Siesta Version  : siesta-4.0--578
Architecture    : x86_64-linux-n-62-25-35
Compiler version: GNU Fortran (GCC) 7.3.0
Compiler flags  : mpif90 -m64 -fPIC -O3 -march=native -ftree-vectorize -fexpensive-optimizationns -funroll-loops -fprefetch-loop-arrays -fno-second-underscore
PP flags        : -I/zdata/groups/common/nicpa/2018-feb/generic/build-tools/1.0/include -I/zdatta/groups/common/nicpa/2018-feb/generic/gcc/7.3.0/include -I/zdata/groups/common/nicpa/2018-feb/generic/gcc/7.3.0/include -I/zdata/groups/common/nicpa/2018-feb/XeonE5-2660v3/zlib/1.2.11/gnu-7.3.0/include -I/zdata/groups/common/nicpa/2018-feb/generic/numactl/2.0.11/include -I/zdata/groups/common/nicpa/2018-feb/XeonE5-2660v3/libxml2/2.9.7/gnu-7.3.0/include -I/zdata/groups/common/nicpa/2018-feb/XeonE5-2660v3/hwloc/1.11.9/gnu-7.3.0/include -I/zdata/groups/common/nicpa/2018-feb/XeonE5-2660v3/openmpi/3.0.0/gnu-7.3.0/include -I/zdata/groups/common/nicpa/2018-feb/XeonE5-2660v3/szip/2.1.1/gnu-7.3.0/include -I/zdata/groups/common/nicpa/2018-feb/XeonE5-2660v3/hdf5-serial/1.8.18/gnu-7.3.0/include -I/zdata/groups/common/nicpa/2018-feb/XeonE5-2660v3/netcdf-serial/4.6.0/gnu-7.3.0/include -I/zdata/groups/common/nicpa/2018-feb/XeonE5-2660v3/scalapack/204/gnu-7.3.0/include -I/zdata/groups/common/nicpa/2018-feb/XeonE5-2660v3/openblas/0.2.20/gnu-7.3.0/include -I/zdata/groups/common/nicpa/2018-feb/XeonE5-2660v3/elpa/2017.05.003/gnu-7.3.0/include -DSIESTA__ELPA -DMPI -D1 -DFC_HAVE_ABORT -DCDF -DSIESTA__MRRR 
PARALLEL version
NetCDF support

* Running on    8 nodes in parallel
>> Start of run:  10-JUN-2018  20:55:02

                           ***********************       
                           *  WELCOME TO SIESTA  *       
                           ***********************       

reinit: Reading from standard input
************************** Dump of input data file ****************************
SystemName          Water molecule -- md anneal
SystemLabel         h2o
NumberOfAtoms       3
NumberOfSpecies     2
MeshCutoff  100 Ry
%block ChemicalSpeciesLabel
 1  8  O      # Species index, atomic number, species label
 2  1  H
%endblock ChemicalSpeciesLabel
LatticeConstant 8.0 Ang
%block LatticeVectors
1.0 0.0 0.0
0.0 1.0 0.0
0.0 0.0 0.8
%endblock LatticeVectors
AtomicCoordinatesFormat  Ang
%block AtomicCoordinatesAndAtomicSpecies
 0.000  0.000  0.000  1
 0.757  0.586  0.000  2
-0.757  0.586  0.000  2
%endblock AtomicCoordinatesAndAtomicSpecies
Solution.Method       diagon
MeshCutoff             100 Ry
WriteCoorStep      .true.
WriteForces        .true.
WriteMDHistory     .true.
MD.UseSaveXV       T
MD.TypeOfRun         Anneal
MD.InitialTemperature 600 K
MD.TargetTemperature 0 K
MD.Initial.Time.Step      1
MD.Final.Time.Step        20
MD.Length.Time.Step       0.2 fs
************************** End of input data file *****************************

reinit: -----------------------------------------------------------------------
reinit: System Name: Water molecule -- md anneal
reinit: -----------------------------------------------------------------------
reinit: System Label: h2o                                                         
reinit: -----------------------------------------------------------------------

initatom: Reading input for the pseudopotentials and atomic orbitals ----------
 Species number:            1  Label: O Atomic number:           8
 Species number:            2  Label: H Atomic number:           1
Ground state valence configuration:   2s02  2p04
Reading pseudopotential information in formatted form from O.psf

Valence configuration for pseudopotential generation:
2s( 2.00) rc: 1.14
2p( 4.00) rc: 1.14
3d( 0.00) rc: 1.14
4f( 0.00) rc: 1.14
Ground state valence configuration:   1s01
Reading pseudopotential information in formatted form from H.psf

Valence configuration for pseudopotential generation:
1s( 1.00) rc: 1.25
2p( 0.00) rc: 1.25
3d( 0.00) rc: 1.25
4f( 0.00) rc: 1.25
For O, standard SIESTA heuristics set lmxkb to 3
 (one more than the basis l, including polarization orbitals).
Use PS.lmax or PS.KBprojectors blocks to override.
For H, standard SIESTA heuristics set lmxkb to 2
 (one more than the basis l, including polarization orbitals).
Use PS.lmax or PS.KBprojectors blocks to override.

<basis_specs>
===============================================================================
O                    Z=   8    Mass=  16.000        Charge= 0.17977+309
Lmxo=1 Lmxkb= 3    BasisType=split      Semic=F
L=0  Nsemic=0  Cnfigmx=2
          n=1  nzeta=2  polorb=0
            splnorm:   0.15000    
               vcte:    0.0000    
               rinn:    0.0000    
               qcoe:    0.0000    
               qyuk:    0.0000    
               qwid:   0.10000E-01
                rcs:    0.0000      0.0000    
            lambdas:    1.0000      1.0000    
L=1  Nsemic=0  Cnfigmx=2
          n=1  nzeta=2  polorb=1
            splnorm:   0.15000    
               vcte:    0.0000    
               rinn:    0.0000    
               qcoe:    0.0000    
               qyuk:    0.0000    
               qwid:   0.10000E-01
                rcs:    0.0000      0.0000    
            lambdas:    1.0000      1.0000    
-------------------------------------------------------------------------------
L=0  Nkbl=1  erefs: 0.17977+309
L=1  Nkbl=1  erefs: 0.17977+309
L=2  Nkbl=1  erefs: 0.17977+309
L=3  Nkbl=1  erefs: 0.17977+309
===============================================================================
</basis_specs>

atom: Called for O                     (Z =   8)

read_vps: Pseudopotential generation method:
read_vps: ATM3      Troullier-Martins                       
Total valence charge:    6.00000

xc_check: Exchange-correlation functional:
xc_check: Ceperley-Alder
V l=0 = -2*Zval/r beyond r=  1.1278
V l=1 = -2*Zval/r beyond r=  1.1278
V l=2 = -2*Zval/r beyond r=  1.1278
V l=3 = -2*Zval/r beyond r=  1.1138
All V_l potentials equal beyond r=  1.1278
This should be close to max(r_c) in ps generation
All pots = -2*Zval/r beyond r=  1.1278

VLOCAL1: 99.0% of the norm of Vloc inside     34.126 Ry
VLOCAL1: 99.9% of the norm of Vloc inside     77.774 Ry
atom: Maximum radius for 4*pi*r*r*local-pseudopot. charge    1.37759
atom: Maximum radius for r*vlocal+2*Zval:    1.18566
GHOST: No ghost state for L =  0
GHOST: No ghost state for L =  1
GHOST: No ghost state for L =  2
GHOST: No ghost state for L =  3

KBgen: Kleinman-Bylander projectors: 
   l= 0   rc=  1.294105   el= -1.742414   Ekb=  9.135903   kbcos=  0.326910
   l= 1   rc=  1.294105   el= -0.676589   Ekb= -8.124878   kbcos= -0.395047
   l= 2   rc=  1.448233   el=  0.002386   Ekb= -2.039267   kbcos= -0.003484
   l= 3   rc=  1.561052   el=  0.003508   Ekb= -0.799141   kbcos= -0.000344

KBgen: Total number of  Kleinman-Bylander projectors:   16
atom: -------------------------------------------------------------------------

atom: SANKEY-TYPE ORBITALS:
atom: Selected multiple-zeta basis: split     

SPLIT: Orbitals with angular momentum L= 0

SPLIT: Basis orbitals for state 2s

SPLIT: PAO cut-off radius determined from an
SPLIT: energy shift=  0.020000 Ry

   izeta = 1
                 lambda =    1.000000
                     rc =    3.305093
                 energy =   -1.723766
                kinetic =    1.614911
    potential(screened) =   -3.338677
       potential(ionic) =  -11.304675

   izeta = 2
                 rmatch =    2.510382
              splitnorm =    0.150000
                 energy =   -1.471299
                kinetic =    2.446434
    potential(screened) =   -3.917732
       potential(ionic) =  -12.476133

SPLIT: Orbitals with angular momentum L= 1

SPLIT: Basis orbitals for state 2p

SPLIT: PAO cut-off radius determined from an
SPLIT: energy shift=  0.020000 Ry

   izeta = 1
                 lambda =    1.000000
                     rc =    3.937239
                 energy =   -0.658841
                kinetic =    5.005986
    potential(screened) =   -5.664827
       potential(ionic) =  -13.452360

   izeta = 2
                 rmatch =    2.541963
              splitnorm =    0.150000
                 energy =   -0.367441
                kinetic =    7.530509
    potential(screened) =   -7.897949
       potential(ionic) =  -16.611953

POLgen: Perturbative polarization orbital with L=  2

POLgen: Polarization orbital for state 2p

   izeta = 1
                     rc =    3.937239
                 energy =    2.398520
                kinetic =    4.716729
    potential(screened) =   -2.318209
       potential(ionic) =   -8.603170
atom: Total number of Sankey-type orbitals: 13

atm_pop: Valence configuration (for local Pseudopot. screening):
 2s( 2.00)                                                            
 2p( 4.00)                                                            
Vna: chval, zval:    6.00000   6.00000

Vna:  Cut-off radius for the neutral-atom potential:   3.937239

atom: _________________________________________________________________________

<basis_specs>
===============================================================================
H                    Z=   1    Mass=  1.0100        Charge= 0.17977+309
Lmxo=0 Lmxkb= 2    BasisType=split      Semic=F
L=0  Nsemic=0  Cnfigmx=1
          n=1  nzeta=2  polorb=1
            splnorm:   0.15000    
               vcte:    0.0000    
               rinn:    0.0000    
               qcoe:    0.0000    
               qyuk:    0.0000    
               qwid:   0.10000E-01
                rcs:    0.0000      0.0000    
            lambdas:    1.0000      1.0000    
-------------------------------------------------------------------------------
L=0  Nkbl=1  erefs: 0.17977+309
L=1  Nkbl=1  erefs: 0.17977+309
L=2  Nkbl=1  erefs: 0.17977+309
===============================================================================
</basis_specs>

atom: Called for H                     (Z =   1)

read_vps: Pseudopotential generation method:
read_vps: ATM3      Troullier-Martins                       
Total valence charge:    1.00000

xc_check: Exchange-correlation functional:
xc_check: Ceperley-Alder
V l=0 = -2*Zval/r beyond r=  1.2343
V l=1 = -2*Zval/r beyond r=  1.2189
V l=2 = -2*Zval/r beyond r=  1.2189
All V_l potentials equal beyond r=  1.2343
This should be close to max(r_c) in ps generation
All pots = -2*Zval/r beyond r=  1.2343

VLOCAL1: 99.0% of the norm of Vloc inside     28.493 Ry
VLOCAL1: 99.9% of the norm of Vloc inside     64.935 Ry
atom: Maximum radius for 4*pi*r*r*local-pseudopot. charge    1.45251
atom: Maximum radius for r*vlocal+2*Zval:    1.21892
GHOST: No ghost state for L =  0
GHOST: No ghost state for L =  1
GHOST: No ghost state for L =  2

KBgen: Kleinman-Bylander projectors: 
   l= 0   rc=  1.364359   el= -0.467325   Ekb= -2.005361   kbcos= -0.336422
   l= 1   rc=  1.434438   el=  0.001430   Ekb= -0.501708   kbcos= -0.021697
   l= 2   rc=  1.470814   el=  0.002365   Ekb= -0.190555   kbcos= -0.002281

KBgen: Total number of  Kleinman-Bylander projectors:    9
atom: -------------------------------------------------------------------------

atom: SANKEY-TYPE ORBITALS:
atom: Selected multiple-zeta basis: split     

SPLIT: Orbitals with angular momentum L= 0

SPLIT: Basis orbitals for state 1s

SPLIT: PAO cut-off radius determined from an
SPLIT: energy shift=  0.020000 Ry

   izeta = 1
                 lambda =    1.000000
                     rc =    4.828263
                 energy =   -0.449375
                kinetic =    0.929372
    potential(screened) =   -1.378747
       potential(ionic) =   -1.915047

   izeta = 2
                 rmatch =    3.854947
              splitnorm =    0.150000
                 energy =   -0.336153
                kinetic =    1.505294
    potential(screened) =   -1.841447
       potential(ionic) =   -2.413582

POLgen: Perturbative polarization orbital with L=  1

POLgen: Polarization orbital for state 1s

   izeta = 1
                     rc =    4.828263
                 energy =    0.706972
                kinetic =    1.396397
    potential(screened) =   -0.689424
       potential(ionic) =   -1.169792
atom: Total number of Sankey-type orbitals:  5

atm_pop: Valence configuration (for local Pseudopot. screening):
 1s( 1.00)                                                            
Vna: chval, zval:    1.00000   1.00000

Vna:  Cut-off radius for the neutral-atom potential:   4.828263

atom: _________________________________________________________________________

prinput: Basis input ----------------------------------------------------------

PAO.BasisType split     

%block ChemicalSpeciesLabel
    1    8 O                       # Species index, atomic number, species label
    2    1 H                       # Species index, atomic number, species label
%endblock ChemicalSpeciesLabel

%block PAO.Basis                 # Define Basis set
O                     2                    # Species label, number of l-shells
 n=2   0   2                         # n, l, Nzeta 
   3.305      2.510   
   1.000      1.000   
 n=2   1   2 P   1                   # n, l, Nzeta, Polarization, NzetaPol
   3.937      2.542   
   1.000      1.000   
H                     1                    # Species label, number of l-shells
 n=1   0   2 P   1                   # n, l, Nzeta, Polarization, NzetaPol
   4.828      3.855   
   1.000      1.000   
%endblock PAO.Basis

prinput: ----------------------------------------------------------------------

Dumping basis to NetCDF file O.ion.nc
Dumping basis to NetCDF file H.ion.nc
coor:   Atomic-coordinates input format  =     Cartesian coordinates
coor:                                          (in Angstroms)

siesta: WARNING: XV file not found

siesta: Atomic coordinates (Bohr) and species
siesta:      0.00000   0.00000   0.00000  1        1
siesta:      1.43052   1.10738   0.00000  2        2
siesta:     -1.43052   1.10738   0.00000  2        3

siesta: System type = molecule  

initatomlists: Number of atoms, orbitals, and projectors:      3    23    34

siesta: ******************** Simulation parameters ****************************
siesta:
siesta: The following are some of the parameters of the simulation.
siesta: A complete list of the parameters used, including default values,
siesta: can be found in file out.fdf
siesta:
redata: Non-Collinear-spin run           =     F
redata: SpinPolarized (Up/Down) run      =     F
redata: Number of spin components        =     1
redata: Long output                      =     F
redata: Number of Atomic Species         =        2
redata: Charge density info will appear in .RHO file
redata: Write Mulliken Pop.              =     NO
redata: Matel table size (NRTAB)         =     1024
redata: Mesh Cutoff                      =   100.0000 Ry
redata: Net charge of the system         =     0.0000 |e|
redata: Min. number of SCF Iter          =        0
redata: Max. number of SCF Iter          =       50
redata: Mix DM or H after convergence    =     F
redata: Recompute H after scf cycle      =     F
redata: Mixing is linear
redata: Mix DM in first SCF step ?       =     F
redata: Write Pulay info on disk?        =     F
redata: Discard 1st Pulay DM after  kick =     F
redata: New DM Mixing Weight             =     0.2500
redata: New DM Occupancy tolerance       = 0.000000000001
redata: No kicks to SCF
redata: DM Mixing Weight for Kicks       =     0.5000
redata: DM Tolerance for SCF             =     0.000100
redata: Require (free) Energy convergence in SCF =     F
redata: DM (free)Energy tolerance for SCF =     0.000010 eV
redata: Require Harris convergence for SCF =     F
redata: DM Harris energy tolerance for SCF =     0.000010 eV
redata: Using Saved Data (generic)   =     F
redata: Use continuation files for DM    =     F
redata: Neglect nonoverlap interactions  =     F
redata: Method of Calculation            =     Diagonalization
redata: Divide and Conquer               =     T
redata: Electronic Temperature           =     0.0019  Ry
redata: Fix the spin of the system       =     F
redata: Dynamics option                  =     Annealing MD run
redata: Initial MD time step             =        1
redata:   Final MD time step             =       20
redata: Length of MD time step           =     0.2000  fs
redata: Initial Temperature of MD run    =   600.0000  K
redata: Annealing Option                 = Temperature and Pressure
redata: Target Temperature               =     0.0000  Kelvin
redata: Target Pressure                  =     0.0000  Ry/Bohr**3
redata: Annealing Relaxation Time        =   100.0000  fs
redata: Approx. Bulk Modulus             =     0.0068  Ry/Bohr**3
redata: ***********************************************************************
Total number of electrons:     8.000000
Total ionic charge:     8.000000

* ProcessorY, Blocksize:    2   3


* Orbital distribution balance (max,min):     3     2

 Kpoints in:            1 . Kpoints trimmed:            1

siesta: k-grid: Number of k-points =     1
siesta: k-grid: Cutoff (effective) =     3.200 Ang
siesta: k-grid: Supercell and displacements
siesta: k-grid:    1   0   0      0.000
siesta: k-grid:    0   1   0      0.000
siesta: k-grid:    0   0   1      0.000

                     ====================================
                        Begin MD step =      1
                     ====================================

outcoor: Atomic coordinates (Ang):                          
    0.00000000    0.00000000    0.00000000   1       1  O
    0.75700000    0.58600000    0.00000000   2       2  H
   -0.75700000    0.58600000    0.00000000   2       3  H

outcell: Unit cell vectors (Ang):
        8.000000    0.000000    0.000000
        0.000000    8.000000    0.000000
        0.000000    0.000000    6.400000

outcell: Cell vector modules (Ang)   :    8.000000    8.000000    6.400000
outcell: Cell angles (23,13,12) (deg):     90.0000     90.0000     90.0000
outcell: Cell volume (Ang**3)        :    409.6000
New_DM. Step:     1
Initializing Density Matrix...
New grid distribution:   1
           1       1:   25    1:   13    1:    5
           2       1:   25    1:   13    6:   10
           3       1:   25    1:   13   11:   15
           4       1:   25    1:   13   16:   20
           5       1:   25   14:   25    1:    5
           6       1:   25   14:   25    6:   10
           7       1:   25   14:   25   11:   15
           8       1:   25   14:   25   16:   20

InitMesh: MESH =    50 x    50 x    40 =      100000
InitMesh: (bp) =    25 x    25 x    20 =       12500
InitMesh: Mesh cutoff (required, used) =   100.000   107.960 Ry
ExtMesh (bp) on 0 =    57 x    45 x    37 =       94905
New grid distribution:   2
           1       7:   25    6:   25    1:    6
           2       7:   25    1:    5    1:    6
           3       7:   25    1:    5    7:   20
           4       1:    6    1:    5    7:   20
           5       1:    6    6:   25    1:    6
           6       1:    6    1:    5    1:    6
           7       7:   25    6:   25    7:   20
           8       1:    6    6:   25    7:   20
New grid distribution:   3
           1       1:    9    7:   25    1:    7
           2      11:   25    1:    6    1:    8
           3       1:    9    7:   25    8:   20
           4      11:   25    1:    6    9:   20
           5      10:   25    7:   25    1:    7
           6       1:   10    1:    6    9:   20
           7      10:   25    7:   25    8:   20
           8       1:   10    1:    6    1:    8
Setting up quadratic distribution...
ExtMesh (bp) on 0 =    51 x    52 x    38 =      100776
PhiOnMesh: Number of (b)points on node 0 =                 2280
PhiOnMesh: nlist on node 0 =                 5165

stepf: Fermi-Dirac step function

siesta: Program's energy decomposition (eV):
siesta: Ebs     =      -124.150764
siesta: Eions   =       815.854478
siesta: Ena     =       175.155695
siesta: Ekin    =       341.667406
siesta: Enl     =       -52.736859
siesta: DEna    =        -0.000003
siesta: DUscf   =         0.000000
siesta: DUext   =         0.000000
siesta: Exc     =      -109.902575
siesta: eta*DQ  =         0.000000
siesta: Emadel  =         0.000000
siesta: Emeta   =         0.000000
siesta: Emolmec =         0.000000
siesta: Ekinion =         0.000000
siesta: Eharris =      -466.548841
siesta: Etot    =      -461.670815
siesta: FreeEng =      -461.670815

   scf: iscf   Eharris(eV)      E_KS(eV)   FreeEng(eV)    dDmax  Ef(eV)
   scf:    1     -466.5488     -461.6708     -461.6708  1.43376 -4.4216
timer: Routine,Calls,Time,% =    IterSCF     1       0.018   1.45
   scf:    2     -467.3089     -464.9907     -464.9907  0.21183  0.2870
   scf:    3     -465.9349     -465.2989     -465.2989  0.05893 -1.4549
   scf:    4     -465.8319     -465.4380     -465.4380  0.02205 -1.9215
   scf:    5     -465.8229     -465.5347     -465.5347  0.01130 -2.0512
   scf:    6     -465.8220     -465.6066     -465.6066  0.00677 -2.0857
   scf:    7     -465.8219     -465.6605     -465.6605  0.00449 -2.0935
   scf:    8     -465.8219     -465.7008     -465.7008  0.00314 -2.0942
   scf:    9     -465.8219     -465.7311     -465.7311  0.00224 -2.0934
   scf:   10     -465.8219     -465.7538     -465.7538  0.00162 -2.0925
   scf:   11     -465.8219     -465.7708     -465.7708  0.00118 -2.0917
   scf:   12     -465.8219     -465.7836     -465.7836  0.00088 -2.0912
   scf:   13     -465.8219     -465.7932     -465.7932  0.00066 -2.0909
   scf:   14     -465.8219     -465.8003     -465.8003  0.00050 -2.0907
   scf:   15     -465.8219     -465.8057     -465.8057  0.00038 -2.0905
   scf:   16     -465.8219     -465.8098     -465.8098  0.00029 -2.0904
   scf:   17     -465.8219     -465.8128     -465.8128  0.00022 -2.0903
   scf:   18     -465.8219     -465.8151     -465.8151  0.00016 -2.0903
   scf:   19     -465.8219     -465.8168     -465.8168  0.00012 -2.0902
   scf:   20     -465.8219     -465.8181     -465.8181  0.00009 -2.0902

SCF Convergence by dMax criterion
max |DM_out - DM_in|:     0.00009368
SCF cycle converged after   20 iterations

Using DM_out to compute the final energy and forces

siesta: E_KS(eV) =             -465.8219

siesta: E_KS - E_eggbox =      -465.8219

siesta: Atomic forces (eV/Ang):
     1   -0.000000   -0.692052    0.000000
     2    0.665845    0.318936   -0.000000
     3   -0.665845    0.318936   -0.000000
----------------------------------------
   Tot    0.000000   -0.054180   -0.000000
----------------------------------------
   Max    0.692052
   Res    0.417542    sqrt( Sum f_i^2 / 3N )
----------------------------------------
   Max    0.692052    constrained

Stress-tensor-Voigt (kbar):       -4.35       -2.33       -1.07        0.36       -0.00        0.08
(Free)E + p*V (eV/cell)     -465.1611
Target enthalpy (eV/cell)     -465.8219

siesta: Stress tensor (static) (eV/Ang**3):
        -0.002567   -0.000000    0.000000
        -0.000000   -0.001103   -0.000000
         0.000000    0.000000   -0.000417

siesta: Pressure (static):          2.18332425  kBar

siesta: Stress tensor (total) (eV/Ang**3):
        -0.002718    0.000223    0.000048
         0.000223   -0.001455   -0.000003
         0.000048   -0.000003   -0.000667

siesta: Pressure (total):          2.58488308  kBar
 Anneal: Kinetic Energy=    1.1399990885723087E-002
 Anneal: Velocity scale factor =   0.99899949949937417     
 Anneal: Cell scale factor =    1.0000021414778193     

siesta: Temp_ion =     598.800 K

                     ====================================
                        Begin MD step =      2
                     ====================================

outcoor: Atomic coordinates (Ang):                          
    0.00019044   -0.00042344    0.00038829   1       1  O
    0.75259898    0.59325565   -0.00010608   2       2  H
   -0.75561591    0.58544752   -0.00604507   2       3  H

outcell: Unit cell vectors (Ang):
        8.000070    0.000000    0.000000
        0.000000    8.000037    0.000000
        0.000000    0.000000    6.400014

outcell: Cell vector modules (Ang)   :    8.000070    8.000037    6.400014
outcell: Cell angles (23,13,12) (deg):     90.0000     90.0000     90.0000
outcell: Cell volume (Ang**3)        :    409.6064
New_DM. Step:     2
Re-using DM from previous geometry...
Re-using DM without extrapolation for lack of history
Density Matrix sparsity pattern changed.
New grid distribution:   1
           1       1:   25    1:   13    1:    5
           2       1:   25    1:   13    6:   10
           3       1:   25    1:   13   11:   15
           4       1:   25    1:   13   16:   20
           5       1:   25   14:   25    1:    5
           6       1:   25   14:   25    6:   10
           7       1:   25   14:   25   11:   15
           8       1:   25   14:   25   16:   20

InitMesh: MESH =    50 x    50 x    40 =      100000
InitMesh: (bp) =    25 x    25 x    20 =       12500
InitMesh: Mesh cutoff (required, used) =   100.000   107.958 Ry
ExtMesh (bp) on 0 =    57 x    45 x    37 =       94905
New grid distribution:   2
           1       7:   25    6:   25    1:    6
           2       7:   25    1:    5    1:    6
           3       7:   25    1:    5    7:   20
           4       1:    6    1:    5    7:   20
           5       1:    6    6:   25    1:    6
           6       1:    6    1:    5    1:    6
           7       7:   25    6:   25    7:   20
           8       1:    6    6:   25    7:   20
New grid distribution:   3
           1       1:    9    7:   25    1:    7
           2      11:   25    1:    6    1:    8
           3       1:    9    7:   25    8:   20
           4      11:   25    1:    6    9:   20
           5      10:   25    7:   25    1:    7
           6       1:   10    1:    6    9:   20
           7      10:   25    7:   25    8:   20
           8       1:   10    1:    6    1:    8
Setting up quadratic distribution...
ExtMesh (bp) on 0 =    51 x    52 x    38 =      100776
PhiOnMesh: Number of (b)points on node 0 =                 2280
PhiOnMesh: nlist on node 0 =                 5155

   scf: iscf   Eharris(eV)      E_KS(eV)   FreeEng(eV)    dDmax  Ef(eV)
   scf:    1     -465.8204     -465.8237     -465.8237  0.00537 -2.1118
   scf:    2     -465.8203     -465.8202     -465.8202  0.00141 -2.1350
   scf:    3     -465.8203     -465.8202     -465.8202  0.00052 -2.1261
   scf:    4     -465.8203     -465.8202     -465.8202  0.00025 -2.1232
   scf:    5     -465.8203     -465.8202     -465.8202  0.00016 -2.1222
   scf:    6     -465.8203     -465.8202     -465.8202  0.00011 -2.1218
   scf:    7     -465.8203     -465.8202     -465.8202  0.00008 -2.1216

SCF Convergence by dMax criterion
max |DM_out - DM_in|:     0.00007525
SCF cycle converged after    7 iterations

Using DM_out to compute the final energy and forces

siesta: E_KS(eV) =             -465.8203

siesta: Atomic forces (eV/Ang):
     1    0.095578   -0.644552   -0.006061
     2    0.653420    0.265939    0.001082
     3   -0.751912    0.332568   -0.005878
----------------------------------------
   Tot   -0.002914   -0.046045   -0.010857
----------------------------------------
   Max    0.751912
   Res    0.421414    sqrt( Sum f_i^2 / 3N )
----------------------------------------
   Max    0.751912    constrained

Stress-tensor-Voigt (kbar):       -4.57       -2.24       -1.07        0.56        0.00        0.06
(Free)E + p*V (eV/cell)     -465.1491
Target enthalpy (eV/cell)     -465.8203

siesta: Stress tensor (static) (eV/Ang**3):
        -0.002700    0.000125   -0.000011
         0.000127   -0.001047    0.000006
        -0.000011    0.000005   -0.000417

siesta: Pressure (static):          2.22436586  kBar

siesta: Stress tensor (total) (eV/Ang**3):
        -0.002850    0.000348    0.000037
         0.000349   -0.001398    0.000003
         0.000037    0.000003   -0.000667

siesta: Pressure (total):          2.62511906  kBar
 Anneal: Kinetic Energy=    1.1233933623365595E-002
 Anneal: Velocity scale factor =   0.99899949949937417     
 Anneal: Cell scale factor =    1.0000021392695719     

siesta: Temp_ion =     590.078 K

                     ====================================
                        Begin MD step =      3
                     ====================================

outcoor: Atomic coordinates (Ang):                          
    0.00038280   -0.00086146    0.00077566   1       1  O
    0.74845461    0.60059756   -0.00021154   2       2  H
   -0.75451983    0.58502210   -0.01208029   2       3  H

outcell: Unit cell vectors (Ang):
        8.000142    0.000000    0.000000
        0.000000    8.000074    0.000000
        0.000000    0.000000    6.400027

outcell: Cell vector modules (Ang)   :    8.000142    8.000074    6.400027
outcell: Cell angles (23,13,12) (deg):     90.0000     90.0000     90.0000
outcell: Cell volume (Ang**3)        :    409.6128
New_DM. Step:     3
Re-using DM from previous geometry...
Extrapolating Density Matrix...
New grid distribution:   1
           1       1:   25    1:   13    1:    5
           2       1:   25    1:   13    6:   10
           3       1:   25    1:   13   11:   15
           4       1:   25    1:   13   16:   20
           5       1:   25   14:   25    1:    5
           6       1:   25   14:   25    6:   10
           7       1:   25   14:   25   11:   15
           8       1:   25   14:   25   16:   20

InitMesh: MESH =    50 x    50 x    40 =      100000
InitMesh: (bp) =    25 x    25 x    20 =       12500
InitMesh: Mesh cutoff (required, used) =   100.000   107.956 Ry
ExtMesh (bp) on 0 =    57 x    45 x    37 =       94905
New grid distribution:   2
           1       7:   25    6:   25    1:    6
           2       7:   25    1:    5    1:    6
           3       7:   25    1:    5    7:   20
           4       1:    6    1:    5    7:   20
           5       1:    6    6:   25    1:    6
           6       1:    6    1:    5    1:    6
           7       7:   25    6:   25    7:   20
           8       1:    6    6:   25    7:   20
New grid distribution:   3
           1       1:    9    7:   25    1:    7
           2      11:   25    1:    6    1:    8
           3       1:    9    7:   25    8:   20
           4      11:   25    1:    6    9:   20
           5      10:   25    7:   25    1:    7
           6       1:   10    1:    6    9:   20
           7      10:   25    7:   25    8:   20
           8       1:   10    1:    6    1:    8
Setting up quadratic distribution...
ExtMesh (bp) on 0 =    51 x    52 x    38 =      100776
PhiOnMesh: Number of (b)points on node 0 =                 2280
PhiOnMesh: nlist on node 0 =                 5157

   scf: iscf   Eharris(eV)      E_KS(eV)   FreeEng(eV)    dDmax  Ef(eV)
   scf:    1     -465.8187     -465.8153     -465.8153  0.00056 -2.1519
   scf:    2     -465.8187     -465.8187     -465.8187  0.00025 -2.1558
   scf:    3     -465.8187     -465.8187     -465.8187  0.00009 -2.1542

SCF Convergence by dMax criterion
max |DM_out - DM_in|:     0.00009114
SCF cycle converged after    3 iterations

Using DM_out to compute the final energy and forces

siesta: E_KS(eV) =             -465.8187

siesta: Atomic forces (eV/Ang):
     1    0.188231   -0.578164   -0.010626
     2    0.627856    0.205185    0.002590
     3   -0.821590    0.335330   -0.012844
----------------------------------------
   Tot   -0.005502   -0.037649   -0.020880
----------------------------------------
   Max    0.821590
   Res    0.420813    sqrt( Sum f_i^2 / 3N )
----------------------------------------
   Max    0.821590    constrained

Stress-tensor-Voigt (kbar):       -4.66       -2.12       -1.07        0.74        0.02        0.02
(Free)E + p*V (eV/cell)     -465.1502
Target enthalpy (eV/cell)     -465.8187

siesta: Stress tensor (static) (eV/Ang**3):
        -0.002779    0.000247   -0.000025
         0.000247   -0.000961    0.000012
        -0.000025    0.000011   -0.000417

siesta: Pressure (static):          2.21972731  kBar

siesta: Stress tensor (total) (eV/Ang**3):
        -0.002910    0.000459    0.000013
         0.000459   -0.001321    0.000015
         0.000013    0.000014   -0.000665

siesta: Pressure (total):          2.61463667  kBar
 Anneal: Kinetic Energy=    1.1072192901592710E-002
 Anneal: Velocity scale factor =   0.99899949949937417     
 Anneal: Cell scale factor =    1.0000021352119379     

siesta: Temp_ion =     581.582 K

                     ====================================
                        Begin MD step =      4
                     ====================================

outcoor: Atomic coordinates (Ang):                          
    0.00057927   -0.00131244    0.00116200   1       1  O
    0.74455657    0.60800245   -0.00031580   2       2  H
   -0.75373745    0.58472447   -0.01810833   2       3  H

outcell: Unit cell vectors (Ang):
        8.000216    0.000000    0.000000
        0.000000    8.000108    0.000000
        0.000000    0.000000    6.400041

outcell: Cell vector modules (Ang)   :    8.000216    8.000108    6.400041
outcell: Cell angles (23,13,12) (deg):     90.0000     90.0000     90.0000
outcell: Cell volume (Ang**3)        :    409.6192
New_DM. Step:     4
Re-using DM from previous geometry...
Extrapolating Density Matrix...
New grid distribution:   1
           1       1:   25    1:   13    1:    5
           2       1:   25    1:   13    6:   10
           3       1:   25    1:   13   11:   15
           4       1:   25    1:   13   16:   20
           5       1:   25   14:   25    1:    5
           6       1:   25   14:   25    6:   10
           7       1:   25   14:   25   11:   15
           8       1:   25   14:   25   16:   20

InitMesh: MESH =    50 x    50 x    40 =      100000
InitMesh: (bp) =    25 x    25 x    20 =       12500
InitMesh: Mesh cutoff (required, used) =   100.000   107.954 Ry
ExtMesh (bp) on 0 =    57 x    45 x    37 =       94905
New grid distribution:   2
           1       7:   25    6:   25    1:    6
           2       7:   25    1:    5    1:    6
           3       7:   25    1:    5    7:   20
           4       1:    6    1:    5    7:   20
           5       1:    6    6:   25    1:    6
           6       1:    6    1:    5    1:    6
           7       7:   25    6:   25    7:   20
           8       1:    6    6:   25    7:   20
New grid distribution:   3
           1       1:    9    7:   25    1:    7
           2      11:   25    1:    6    1:    8
           3       1:    9    7:   25    8:   20
           4      11:   25    1:    6    9:   20
           5      10:   25    7:   25    1:    7
           6       1:   10    1:    6    9:   20
           7      10:   25    7:   25    8:   20
           8       1:   10    1:    6    1:    8
Setting up quadratic distribution...
ExtMesh (bp) on 0 =    51 x    52 x    38 =      100776
PhiOnMesh: Number of (b)points on node 0 =                 2280
PhiOnMesh: nlist on node 0 =                 5142

   scf: iscf   Eharris(eV)      E_KS(eV)   FreeEng(eV)    dDmax  Ef(eV)
   scf:    1     -465.8172     -465.8138     -465.8138  0.00071 -2.1825
   scf:    2     -465.8172     -465.8172     -465.8172  0.00060 -2.1923
   scf:    3     -465.8172     -465.8172     -465.8172  0.00018 -2.1879
   scf:    4     -465.8172     -465.8172     -465.8172  0.00006 -2.1866

SCF Convergence by dMax criterion
max |DM_out - DM_in|:     0.00005975
SCF cycle converged after    4 iterations

Using DM_out to compute the final energy and forces

siesta: E_KS(eV) =             -465.8172

siesta: Atomic forces (eV/Ang):
     1    0.275882   -0.489646   -0.015534
     2    0.589705    0.135172    0.004677
     3   -0.873229    0.326042   -0.019657
----------------------------------------
   Tot   -0.007642   -0.028432   -0.030514
----------------------------------------
   Max    0.873229
   Res    0.415180    sqrt( Sum f_i^2 / 3N )
----------------------------------------
   Max    0.873229    constrained

Stress-tensor-Voigt (kbar):       -4.67       -1.94       -1.06        0.90        0.04       -0.02
(Free)E + p*V (eV/cell)     -465.1638
Target enthalpy (eV/cell)     -465.8172

siesta: Stress tensor (static) (eV/Ang**3):
        -0.002800    0.000363   -0.000039
         0.000363   -0.000840    0.000017
        -0.000039    0.000017   -0.000416

siesta: Pressure (static):          2.16643992  kBar

siesta: Stress tensor (total) (eV/Ang**3):
        -0.002913    0.000564   -0.000013
         0.000564   -0.001208    0.000026
        -0.000013    0.000026   -0.000664

siesta: Pressure (total):          2.55565731  kBar
 Anneal: Kinetic Energy=    1.0917299417737680E-002
 Anneal: Velocity scale factor =   0.99899949949937417     
 Anneal: Cell scale factor =    1.0000021320983152     

siesta: Temp_ion =     573.446 K

                     ====================================
                        Begin MD step =      5
                     ====================================

outcoor: Atomic coordinates (Ang):                          
    0.00078196   -0.00177423    0.00154720   1       1  O
    0.74088978    0.61544360   -0.00041809   2       2  H
   -0.75328760    0.58455079   -0.02413178   2       3  H

outcell: Unit cell vectors (Ang):
        8.000291    0.000000    0.000000
        0.000000    8.000139    0.000000
        0.000000    0.000000    6.400055

outcell: Cell vector modules (Ang)   :    8.000291    8.000139    6.400055
outcell: Cell angles (23,13,12) (deg):     90.0000     90.0000     90.0000
outcell: Cell volume (Ang**3)        :    409.6255
New_DM. Step:     5
Re-using DM from previous geometry...
Extrapolating Density Matrix...
New grid distribution:   1
           1       1:   25    1:   13    1:    5
           2       1:   25    1:   13    6:   10
           3       1:   25    1:   13   11:   15
           4       1:   25    1:   13   16:   20
           5       1:   25   14:   25    1:    5
           6       1:   25   14:   25    6:   10
           7       1:   25   14:   25   11:   15
           8       1:   25   14:   25   16:   20

InitMesh: MESH =    50 x    50 x    40 =      100000
InitMesh: (bp) =    25 x    25 x    20 =       12500
InitMesh: Mesh cutoff (required, used) =   100.000   107.952 Ry
ExtMesh (bp) on 0 =    57 x    45 x    37 =       94905
New grid distribution:   2
           1       7:   25    6:   25    1:    6
           2       7:   25    1:    5    1:    6
           3       7:   25    1:    5    7:   20
           4       1:    6    1:    5    7:   20
           5       1:    6    6:   25    1:    6
           6       1:    6    1:    5    1:    6
           7       7:   25    6:   25    7:   20
           8       1:    6    6:   25    7:   20
New grid distribution:   3
           1       1:    9    7:   25    1:    7
           2      11:   25    1:    6    1:    8
           3       1:    9    7:   25    8:   20
           4      11:   25    1:    6    9:   20
           5      10:   25    7:   25    1:    7
           6       1:   10    1:    6    9:   20
           7      10:   25    7:   25    8:   20
           8       1:   10    1:    6    1:    8
Setting up quadratic distribution...
ExtMesh (bp) on 0 =    51 x    52 x    38 =      100776
PhiOnMesh: Number of (b)points on node 0 =                 2280
PhiOnMesh: nlist on node 0 =                 5148

   scf: iscf   Eharris(eV)      E_KS(eV)   FreeEng(eV)    dDmax  Ef(eV)
   scf:    1     -465.8158     -465.8125     -465.8125  0.00057 -2.2172
   scf:    2     -465.8158     -465.8158     -465.8158  0.00032 -2.2223
   scf:    3     -465.8158     -465.8158     -465.8158  0.00010 -2.2200

SCF Convergence by dMax criterion
max |DM_out - DM_in|:     0.00009966
SCF cycle converged after    3 iterations

Using DM_out to compute the final energy and forces

siesta: E_KS(eV) =             -465.8158

siesta: Atomic forces (eV/Ang):
     1    0.355054   -0.382957   -0.021556
     2    0.541926    0.058104    0.007405
     3   -0.906997    0.305508   -0.025964
----------------------------------------
   Tot   -0.010017   -0.019345   -0.040115
----------------------------------------
   Max    0.906997
   Res    0.406469    sqrt( Sum f_i^2 / 3N )
----------------------------------------
   Max    0.906997    constrained

Stress-tensor-Voigt (kbar):       -4.60       -1.70       -1.06        1.06        0.06       -0.07
(Free)E + p*V (eV/cell)     -465.1878
Target enthalpy (eV/cell)     -465.8158

siesta: Stress tensor (static) (eV/Ang**3):
        -0.002773    0.000470   -0.000055
         0.000470   -0.000690    0.000021
        -0.000055    0.000021   -0.000417

siesta: Pressure (static):          2.07258424  kBar

siesta: Stress tensor (total) (eV/Ang**3):
        -0.002871    0.000660   -0.000041
         0.000660   -0.001064    0.000035
        -0.000041    0.000035   -0.000664

siesta: Pressure (total):          2.45635060  kBar
 Anneal: Kinetic Energy=    1.0768777680479770E-002
 Anneal: Velocity scale factor =   0.99899949949937417     
 Anneal: Cell scale factor =    1.0000021338382328     

siesta: Temp_ion =     565.645 K

                     ====================================
                        Begin MD step =      6
                     ====================================

outcoor: Atomic coordinates (Ang):                          
    0.00099274   -0.00224426    0.00193112   1       1  O
    0.73743557    0.62289164   -0.00051736   2       2  H
   -0.75318230    0.58449297   -0.03015305   2       3  H

outcell: Unit cell vectors (Ang):
        8.000364    0.000000    0.000000
        0.000000    8.000166    0.000000
        0.000000    0.000000    6.400068

outcell: Cell vector modules (Ang)   :    8.000364    8.000166    6.400068
outcell: Cell angles (23,13,12) (deg):     90.0000     90.0000     90.0000
outcell: Cell volume (Ang**3)        :    409.6315
New_DM. Step:     6
Re-using DM from previous geometry...
Extrapolating Density Matrix...
New grid distribution:   1
           1       1:   25    1:   13    1:    5
           2       1:   25    1:   13    6:   10
           3       1:   25    1:   13   11:   15
           4       1:   25    1:   13   16:   20
           5       1:   25   14:   25    1:    5
           6       1:   25   14:   25    6:   10
           7       1:   25   14:   25   11:   15
           8       1:   25   14:   25   16:   20

InitMesh: MESH =    50 x    50 x    40 =      100000
InitMesh: (bp) =    25 x    25 x    20 =       12500
InitMesh: Mesh cutoff (required, used) =   100.000   107.950 Ry
ExtMesh (bp) on 0 =    57 x    45 x    37 =       94905
New grid distribution:   2
           1       7:   25    6:   25    1:    6
           2       7:   25    1:    5    1:    6
           3       7:   25    1:    5    7:   20
           4       1:    6    1:    5    7:   20
           5       1:    6    6:   25    1:    6
           6       1:    6    1:    5    1:    6
           7       7:   25    6:   25    7:   20
           8       1:    6    6:   25    7:   20
New grid distribution:   3
           1       1:    9    7:   25    1:    7
           2      11:   25    1:    6    1:    8
           3       1:    9    7:   25    8:   20
           4      11:   25    1:    6    9:   20
           5      10:   25    7:   25    1:    7
           6       1:   10    1:    6    9:   20
           7      10:   25    7:   25    8:   20
           8       1:   10    1:    6    1:    8
Setting up quadratic distribution...
ExtMesh (bp) on 0 =    51 x    52 x    38 =      100776
PhiOnMesh: Number of (b)points on node 0 =                 2280
PhiOnMesh: nlist on node 0 =                 5157

   scf: iscf   Eharris(eV)      E_KS(eV)   FreeEng(eV)    dDmax  Ef(eV)
   scf:    1     -465.8144     -465.8113     -465.8113  0.00066 -2.2486
   scf:    2     -465.8144     -465.8144     -465.8144  0.00061 -2.2585
   scf:    3     -465.8144     -465.8144     -465.8144  0.00018 -2.2540
   scf:    4     -465.8144     -465.8144     -465.8144  0.00006 -2.2527

SCF Convergence by dMax criterion
max |DM_out - DM_in|:     0.00005729
SCF cycle converged after    4 iterations

Using DM_out to compute the final energy and forces

siesta: E_KS(eV) =             -465.8144

siesta: Atomic forces (eV/Ang):
     1    0.424171   -0.256647   -0.028688
     2    0.485269   -0.026309    0.010706
     3   -0.921376    0.272543   -0.031309
----------------------------------------
   Tot   -0.011936   -0.010412   -0.049291
----------------------------------------
   Max    0.921376
   Res    0.395404    sqrt( Sum f_i^2 / 3N )
----------------------------------------
   Max    0.921376    constrained

Stress-tensor-Voigt (kbar):       -4.45       -1.42       -1.06        1.19        0.07       -0.11
(Free)E + p*V (eV/cell)     -465.2233
Target enthalpy (eV/cell)     -465.8144

siesta: Stress tensor (static) (eV/Ang**3):
        -0.002694    0.000566   -0.000070
         0.000566   -0.000509    0.000024
        -0.000070    0.000024   -0.000418

siesta: Pressure (static):          1.93348125  kBar

siesta: Stress tensor (total) (eV/Ang**3):
        -0.002780    0.000746   -0.000070
         0.000745   -0.000885    0.000042
        -0.000070    0.000042   -0.000665

siesta: Pressure (total):          2.31202092  kBar
 Anneal: Kinetic Energy=    1.0623835436033740E-002
 Anneal: Velocity scale factor =   0.99899949949937417     
 Anneal: Cell scale factor =    1.0000021346032617     

siesta: Temp_ion =     558.031 K

                     ====================================
                        Begin MD step =      7
                     ====================================

outcoor: Atomic coordinates (Ang):                          
    0.00121324   -0.00271949    0.00231358   1       1  O
    0.73417192    0.63031450   -0.00061238   2       2  H
   -0.75342621    0.58453822   -0.03617415   2       3  H

outcell: Unit cell vectors (Ang):
        8.000435    0.000000    0.000000
        0.000000    8.000189    0.000000
        0.000000    0.000000    6.400082

outcell: Cell vector modules (Ang)   :    8.000435    8.000189    6.400082
outcell: Cell angles (23,13,12) (deg):     90.0000     90.0000     90.0000
outcell: Cell volume (Ang**3)        :    409.6372
New_DM. Step:     7
Re-using DM from previous geometry...
Extrapolating Density Matrix...
New grid distribution:   1
           1       1:   25    1:   13    1:    5
           2       1:   25    1:   13    6:   10
           3       1:   25    1:   13   11:   15
           4       1:   25    1:   13   16:   20
           5       1:   25   14:   25    1:    5
           6       1:   25   14:   25    6:   10
           7       1:   25   14:   25   11:   15
           8       1:   25   14:   25   16:   20

InitMesh: MESH =    50 x    50 x    40 =      100000
InitMesh: (bp) =    25 x    25 x    20 =       12500
InitMesh: Mesh cutoff (required, used) =   100.000   107.948 Ry
ExtMesh (bp) on 0 =    57 x    45 x    37 =       94905
New grid distribution:   2
           1       7:   25    6:   25    1:    6
           2       7:   25    1:    5    1:    6
           3       7:   25    1:    5    7:   20
           4       1:    6    1:    5    7:   20
           5       1:    6    6:   25    1:    6
           6       1:    6    1:    5    1:    6
           7       7:   25    6:   25    7:   20
           8       1:    6    6:   25    7:   20
New grid distribution:   3
           1       1:    9    7:   25    1:    7
           2      11:   25    1:    6    1:    8
           3       1:    9    7:   25    8:   20
           4      11:   25    1:    6    9:   20
           5      10:   25    7:   25    1:    7
           6       1:   10    1:    6    9:   20
           7      10:   25    7:   25    8:   20
           8       1:   10    1:    6    1:    8
Setting up quadratic distribution...
ExtMesh (bp) on 0 =    51 x    52 x    38 =      100776
PhiOnMesh: Number of (b)points on node 0 =                 2280
PhiOnMesh: nlist on node 0 =                 5159

   scf: iscf   Eharris(eV)      E_KS(eV)   FreeEng(eV)    dDmax  Ef(eV)
   scf:    1     -465.8130     -465.8101     -465.8101  0.00048 -2.2842
   scf:    2     -465.8130     -465.8130     -465.8130  0.00019 -2.2871
   scf:    3     -465.8130     -465.8130     -465.8130  0.00006 -2.2858

SCF Convergence by dMax criterion
max |DM_out - DM_in|:     0.00005796
SCF cycle converged after    3 iterations

Using DM_out to compute the final energy and forces

siesta: E_KS(eV) =             -465.8130

siesta: Atomic forces (eV/Ang):
     1    0.480884   -0.114514   -0.037542
     2    0.422945   -0.115178    0.014473
     3   -0.917551    0.228207   -0.035399
----------------------------------------
   Tot   -0.013722   -0.001485   -0.058468
----------------------------------------
   Max    0.917551
   Res    0.384904    sqrt( Sum f_i^2 / 3N )
----------------------------------------
   Max    0.917551    constrained

Stress-tensor-Voigt (kbar):       -4.24       -1.09       -1.07        1.31        0.07       -0.16
(Free)E + p*V (eV/cell)     -465.2680
Target enthalpy (eV/cell)     -465.8130

siesta: Stress tensor (static) (eV/Ang**3):
        -0.002572    0.000647   -0.000085
         0.000647   -0.000302    0.000024
        -0.000085    0.000024   -0.000419

siesta: Pressure (static):          1.75812740  kBar

siesta: Stress tensor (total) (eV/Ang**3):
        -0.002649    0.000818   -0.000097
         0.000817   -0.000677    0.000047
        -0.000097    0.000047   -0.000665

siesta: Pressure (total):          2.13156663  kBar
 Anneal: Kinetic Energy=    1.0477834016019977E-002
 Anneal: Velocity scale factor =   0.99899949949937417     
 Anneal: Cell scale factor =    1.0000021365348908     

siesta: Temp_ion =     550.362 K

                     ====================================
                        Begin MD step =      8
                     ====================================

outcoor: Atomic coordinates (Ang):                          
    0.00144482   -0.00319651    0.00269438   1       1  O
    0.73107475    0.63767847   -0.00070173   2       2  H
   -0.75401708    0.58466948   -0.04219666   2       3  H

outcell: Unit cell vectors (Ang):
        8.000503    0.000000    0.000000
        0.000000    8.000206    0.000000
        0.000000    0.000000    6.400096

outcell: Cell vector modules (Ang)   :    8.000503    8.000206    6.400096
outcell: Cell angles (23,13,12) (deg):     90.0000     90.0000     90.0000
outcell: Cell volume (Ang**3)        :    409.6424
New_DM. Step:     8
Re-using DM from previous geometry...
Extrapolating Density Matrix...
New grid distribution:   1
           1       1:   25    1:   13    1:    5
           2       1:   25    1:   13    6:   10
           3       1:   25    1:   13   11:   15
           4       1:   25    1:   13   16:   20
           5       1:   25   14:   25    1:    5
           6       1:   25   14:   25    6:   10
           7       1:   25   14:   25   11:   15
           8       1:   25   14:   25   16:   20

InitMesh: MESH =    50 x    50 x    40 =      100000
InitMesh: (bp) =    25 x    25 x    20 =       12500
InitMesh: Mesh cutoff (required, used) =   100.000   107.946 Ry
ExtMesh (bp) on 0 =    57 x    45 x    37 =       94905
New grid distribution:   2
           1       7:   25    6:   25    1:    6
           2       7:   25    1:    5    1:    6
           3       7:   25    1:    5    7:   20
           4       1:    6    1:    5    7:   20
           5       1:    6    6:   25    1:    6
           6       1:    6    1:    5    1:    6
           7       7:   25    6:   25    7:   20
           8       1:    6    6:   25    7:   20
New grid distribution:   3
           1       1:    9    7:   25    1:    7
           2      11:   25    1:    6    1:    8
           3       1:    9    7:   25    8:   20
           4      11:   25    1:    6    9:   20
           5      10:   25    7:   25    1:    7
           6       1:   10    1:    6    9:   20
           7      10:   25    7:   25    8:   20
           8       1:   10    1:    6    1:    8
Setting up quadratic distribution...
ExtMesh (bp) on 0 =    51 x    52 x    38 =      100776
PhiOnMesh: Number of (b)points on node 0 =                 2280
PhiOnMesh: nlist on node 0 =                 5148

   scf: iscf   Eharris(eV)      E_KS(eV)   FreeEng(eV)    dDmax  Ef(eV)
   scf:    1     -465.8115     -465.8090     -465.8090  0.00050 -2.3164
   scf:    2     -465.8115     -465.8115     -465.8115  0.00031 -2.3213
   scf:    3     -465.8115     -465.8115     -465.8115  0.00009 -2.3190

SCF Convergence by dMax criterion
max |DM_out - DM_in|:     0.00008861
SCF cycle converged after    3 iterations

Using DM_out to compute the final energy and forces

siesta: E_KS(eV) =             -465.8115

siesta: Atomic forces (eV/Ang):
     1    0.523759    0.040137   -0.048219
     2    0.356853   -0.207282    0.018636
     3   -0.896150    0.173262   -0.037854
----------------------------------------
   Tot   -0.015538    0.006117   -0.067437
----------------------------------------
   Max    0.896150
   Res    0.377632    sqrt( Sum f_i^2 / 3N )
----------------------------------------
   Max    0.896150    constrained

Stress-tensor-Voigt (kbar):       -3.98       -0.72       -1.07        1.40        0.08       -0.20
(Free)E + p*V (eV/cell)     -465.3204
Target enthalpy (eV/cell)     -465.8115

siesta: Stress tensor (static) (eV/Ang**3):
        -0.002413    0.000713   -0.000097
         0.000712   -0.000074    0.000022
        -0.000097    0.000022   -0.000420

siesta: Pressure (static):          1.55245547  kBar

siesta: Stress tensor (total) (eV/Ang**3):
        -0.002484    0.000874   -0.000123
         0.000873   -0.000446    0.000048
        -0.000123    0.000048   -0.000666

siesta: Pressure (total):          1.92075755  kBar
 Anneal: Kinetic Energy=    1.0325172701066742E-002
 Anneal: Velocity scale factor =   0.99899949949937417     
 Anneal: Cell scale factor =    1.0000021405288211     

siesta: Temp_ion =     542.344 K

                     ====================================
                        Begin MD step =      9
                     ====================================

outcoor: Atomic coordinates (Ang):                          
    0.00168846   -0.00367162    0.00307327   1       1  O
    0.72811861    0.64494870   -0.00078383   2       2  H
   -0.75494604    0.58486570   -0.04822148   2       3  H

outcell: Unit cell vectors (Ang):
        8.000566    0.000000    0.000000
        0.000000    8.000218    0.000000
        0.000000    0.000000    6.400109

outcell: Cell vector modules (Ang)   :    8.000566    8.000218    6.400109
outcell: Cell angles (23,13,12) (deg):     90.0000     90.0000     90.0000
outcell: Cell volume (Ang**3)        :    409.6472
New_DM. Step:     9
Re-using DM from previous geometry...
Extrapolating Density Matrix...
New grid distribution:   1
           1       1:   25    1:   13    1:    5
           2       1:   25    1:   13    6:   10
           3       1:   25    1:   13   11:   15
           4       1:   25    1:   13   16:   20
           5       1:   25   14:   25    1:    5
           6       1:   25   14:   25    6:   10
           7       1:   25   14:   25   11:   15
           8       1:   25   14:   25   16:   20

InitMesh: MESH =    50 x    50 x    40 =      100000
InitMesh: (bp) =    25 x    25 x    20 =       12500
InitMesh: Mesh cutoff (required, used) =   100.000   107.944 Ry
ExtMesh (bp) on 0 =    57 x    45 x    37 =       94905
New grid distribution:   2
           1       7:   25    6:   25    1:    6
           2       7:   25    1:    5    1:    6
           3       7:   25    1:    5    7:   20
           4       1:    6    1:    5    7:   20
           5       1:    6    6:   25    1:    6
           6       1:    6    1:    5    1:    6
           7       7:   25    6:   25    7:   20
           8       1:    6    6:   25    7:   20
New grid distribution:   3
           1       1:    9    7:   25    1:    7
           2      11:   25    1:    6    1:    8
           3       1:    9    7:   25    8:   20
           4      11:   25    1:    6    9:   20
           5      10:   25    7:   25    1:    7
           6       1:   10    1:    6    9:   20
           7      10:   25    7:   25    8:   20
           8       1:   10    1:    6    1:    8
Setting up quadratic distribution...
ExtMesh (bp) on 0 =    51 x    52 x    38 =      100776
PhiOnMesh: Number of (b)points on node 0 =                 2280
PhiOnMesh: nlist on node 0 =                 5156

   scf: iscf   Eharris(eV)      E_KS(eV)   FreeEng(eV)    dDmax  Ef(eV)
   scf:    1     -465.8098     -465.8077     -465.8077  0.00052 -2.3476
   scf:    2     -465.8098     -465.8098     -465.8098  0.00052 -2.3560
   scf:    3     -465.8098     -465.8098     -465.8098  0.00015 -2.3521
   scf:    4     -465.8098     -465.8098     -465.8098  0.00004 -2.3510

SCF Convergence by dMax criterion
max |DM_out - DM_in|:     0.00004297
SCF cycle converged after    4 iterations

Using DM_out to compute the final energy and forces

siesta: E_KS(eV) =             -465.8098

siesta: Atomic forces (eV/Ang):
     1    0.552394    0.207769   -0.061214
     2    0.288245   -0.302464    0.023213
     3   -0.857272    0.107735   -0.038280
----------------------------------------
   Tot   -0.016633    0.013040   -0.076281
----------------------------------------
   Max    0.857272
   Res    0.376408    sqrt( Sum f_i^2 / 3N )
----------------------------------------
   Max    0.857272    constrained

Stress-tensor-Voigt (kbar):       -3.66       -0.30       -1.07        1.46        0.07       -0.23
(Free)E + p*V (eV/cell)     -465.3808
Target enthalpy (eV/cell)     -465.8098

siesta: Stress tensor (static) (eV/Ang**3):
        -0.002219    0.000760   -0.000107
         0.000759    0.000177    0.000016
        -0.000107    0.000016   -0.000420

siesta: Pressure (static):          1.31500014  kBar

siesta: Stress tensor (total) (eV/Ang**3):
        -0.002287    0.000914   -0.000146
         0.000913   -0.000188    0.000044
        -0.000146    0.000044   -0.000667

siesta: Pressure (total):          1.67793157  kBar
 Anneal: Kinetic Energy=    1.0159281362982556E-002
 Anneal: Velocity scale factor =   0.99899949949937417     
 Anneal: Cell scale factor =    1.0000021419303127     

siesta: Temp_ion =     533.630 K

                     ====================================
                        Begin MD step =     10
                     ====================================

outcoor: Atomic coordinates (Ang):                          
    0.00194484   -0.00414080    0.00344993   1       1  O
    0.72527713    0.65208923   -0.00085697   2       2  H
   -0.75619759    0.58510187   -0.05424878   2       3  H

outcell: Unit cell vectors (Ang):
        8.000625    0.000000    0.000000
        0.000000    8.000222    0.000000
        0.000000    0.000000    6.400123

outcell: Cell vector modules (Ang)   :    8.000625    8.000222    6.400123
outcell: Cell angles (23,13,12) (deg):     90.0000     90.0000     90.0000
outcell: Cell volume (Ang**3)        :    409.6513
New_DM. Step:    10
Re-using DM from previous geometry...
Extrapolating Density Matrix...
New grid distribution:   1
           1       1:   25    1:   13    1:    5
           2       1:   25    1:   13    6:   10
           3       1:   25    1:   13   11:   15
           4       1:   25    1:   13   16:   20
           5       1:   25   14:   25    1:    5
           6       1:   25   14:   25    6:   10
           7       1:   25   14:   25   11:   15
           8       1:   25   14:   25   16:   20

InitMesh: MESH =    50 x    50 x    40 =      100000
InitMesh: (bp) =    25 x    25 x    20 =       12500
InitMesh: Mesh cutoff (required, used) =   100.000   107.943 Ry
ExtMesh (bp) on 0 =    57 x    45 x    37 =       94905
New grid distribution:   2
           1       7:   25    6:   25    1:    6
           2       7:   25    1:    5    1:    6
           3       7:   25    1:    5    7:   20
           4       1:    6    1:    5    7:   20
           5       1:    6    6:   25    1:    6
           6       1:    6    1:    5    1:    6
           7       7:   25    6:   25    7:   20
           8       1:    6    6:   25    7:   20
New grid distribution:   3
           1       1:    9    7:   25    1:    7
           2      11:   25    1:    6    1:    8
           3       1:    9    7:   25    8:   20
           4      11:   25    1:    6    9:   20
           5      10:   25    7:   25    1:    7
           6       1:   10    1:    6    9:   20
           7      10:   25    7:   25    8:   20
           8       1:   10    1:    6    1:    8
Setting up quadratic distribution...
ExtMesh (bp) on 0 =    51 x    52 x    38 =      100776
PhiOnMesh: Number of (b)points on node 0 =                 2280
PhiOnMesh: nlist on node 0 =                 5160

   scf: iscf   Eharris(eV)      E_KS(eV)   FreeEng(eV)    dDmax  Ef(eV)
   scf:    1     -465.8079     -465.8061     -465.8061  0.00034 -2.3820
   scf:    2     -465.8079     -465.8079     -465.8079  0.00007 -2.3829

SCF Convergence by dMax criterion
max |DM_out - DM_in|:     0.00006582
SCF cycle converged after    2 iterations

Using DM_out to compute the final energy and forces

siesta: E_KS(eV) =             -465.8079

siesta: Atomic forces (eV/Ang):
     1    0.565981    0.382105   -0.076563
     2    0.220206   -0.396656    0.027981
     3   -0.803663    0.033793   -0.036603
----------------------------------------
   Tot   -0.017476    0.019242   -0.085185
----------------------------------------
   Max    0.803663
   Res    0.384009    sqrt( Sum f_i^2 / 3N )
----------------------------------------
   Max    0.803663    constrained

Stress-tensor-Voigt (kbar):       -3.32        0.14       -1.07        1.50        0.06       -0.27
(Free)E + p*V (eV/cell)     -465.4460
Target enthalpy (eV/cell)     -465.8079

siesta: Stress tensor (static) (eV/Ang**3):
        -0.002002    0.000788   -0.000113
         0.000787    0.000441    0.000006
        -0.000113    0.000006   -0.000421

siesta: Pressure (static):          1.05799946  kBar

siesta: Stress tensor (total) (eV/Ang**3):
        -0.002069    0.000935   -0.000166
         0.000934    0.000087    0.000036
        -0.000166    0.000036   -0.000667

siesta: Pressure (total):          1.41509584  kBar
 Anneal: Kinetic Energy=    9.9740408438821256E-003
 Anneal: Velocity scale factor =   0.99899949949937417     
 Anneal: Cell scale factor =    1.0000021431642188     

siesta: Temp_ion =     523.900 K

                     ====================================
                        Begin MD step =     11
                     ====================================

outcoor: Atomic coordinates (Ang):                          
    0.00221424   -0.00459990    0.00382402   1       1  O
    0.72252427    0.65906456   -0.00091936   2       2  H
   -0.75775072    0.58534985   -0.06027792   2       3  H

outcell: Unit cell vectors (Ang):
        8.000678    0.000000    0.000000
        0.000000    8.000220    0.000000
        0.000000    0.000000    6.400137

outcell: Cell vector modules (Ang)   :    8.000678    8.000220    6.400137
outcell: Cell angles (23,13,12) (deg):     90.0000     90.0000     90.0000
outcell: Cell volume (Ang**3)        :    409.6547
New_DM. Step:    11
Re-using DM from previous geometry...
Extrapolating Density Matrix...
New grid distribution:   1
           1       1:   25    1:   13    1:    5
           2       1:   25    1:   13    6:   10
           3       1:   25    1:   13   11:   15
           4       1:   25    1:   13   16:   20
           5       1:   25   14:   25    1:    5
           6       1:   25   14:   25    6:   10
           7       1:   25   14:   25   11:   15
           8       1:   25   14:   25   16:   20

InitMesh: MESH =    50 x    50 x    40 =      100000
InitMesh: (bp) =    25 x    25 x    20 =       12500
InitMesh: Mesh cutoff (required, used) =   100.000   107.941 Ry
ExtMesh (bp) on 0 =    57 x    45 x    37 =       94905
New grid distribution:   2
           1       7:   25    6:   25    1:    6
           2       7:   25    1:    5    1:    6
           3       7:   25    1:    5    7:   20
           4       1:    6    1:    5    7:   20
           5       1:    6    6:   25    1:    6
           6       1:    6    1:    5    1:    6
           7       7:   25    6:   25    7:   20
           8       1:    6    6:   25    7:   20
New grid distribution:   3
           1       1:    9    7:   25    1:    7
           2      11:   25    1:    6    1:    8
           3       1:    9    7:   25    8:   20
           4      11:   25    1:    6    9:   20
           5      10:   25    7:   25    1:    7
           6       1:   10    1:    6    9:   20
           7      10:   25    7:   25    8:   20
           8       1:   10    1:    6    1:    8
Setting up quadratic distribution...
ExtMesh (bp) on 0 =    51 x    52 x    38 =      100776
PhiOnMesh: Number of (b)points on node 0 =                 2280
PhiOnMesh: nlist on node 0 =                 5152

   scf: iscf   Eharris(eV)      E_KS(eV)   FreeEng(eV)    dDmax  Ef(eV)
   scf:    1     -465.8056     -465.8043     -465.8043  0.00038 -2.4116
   scf:    2     -465.8056     -465.8055     -465.8055  0.00033 -2.4168
   scf:    3     -465.8056     -465.8055     -465.8055  0.00009 -2.4143

SCF Convergence by dMax criterion
max |DM_out - DM_in|:     0.00009070
SCF cycle converged after    3 iterations

Using DM_out to compute the final energy and forces

siesta: E_KS(eV) =             -465.8055

siesta: Atomic forces (eV/Ang):
     1    0.565333    0.560796   -0.094058
     2    0.153285   -0.489749    0.033035
     3   -0.736999   -0.046672   -0.032623
----------------------------------------
   Tot   -0.018381    0.024374   -0.093647
----------------------------------------
   Max    0.736999
   Res    0.401911    sqrt( Sum f_i^2 / 3N )
----------------------------------------
   Max    0.736999    constrained

Stress-tensor-Voigt (kbar):       -2.93        0.60       -1.07        1.50        0.04       -0.29
(Free)E + p*V (eV/cell)     -465.5161
Target enthalpy (eV/cell)     -465.8055

siesta: Stress tensor (static) (eV/Ang**3):
        -0.001759    0.000798   -0.000116
         0.000797    0.000716   -0.000007
        -0.000116   -0.000007   -0.000420

siesta: Pressure (static):          0.78149101  kBar

siesta: Stress tensor (total) (eV/Ang**3):
        -0.001829    0.000939   -0.000181
         0.000938    0.000376    0.000023
        -0.000181    0.000023   -0.000667

siesta: Pressure (total):          1.13207292  kBar
 Anneal: Kinetic Energy=    9.7646776831281767E-003
 Anneal: Velocity scale factor =   0.99899949949937417     
 Anneal: Cell scale factor =    1.0000021419516154     

siesta: Temp_ion =     512.903 K

                     ====================================
                        Begin MD step =     12
                     ====================================

outcoor: Atomic coordinates (Ang):                          
    0.00249663   -0.00504466    0.00419510   1       1  O
    0.71983444    0.66583969   -0.00096911   2       2  H
   -0.75957951    0.58557910   -0.06630738   2       3  H

outcell: Unit cell vectors (Ang):
        8.000725    0.000000    0.000000
        0.000000    8.000210    0.000000
        0.000000    0.000000    6.400151

outcell: Cell vector modules (Ang)   :    8.000725    8.000210    6.400151
outcell: Cell angles (23,13,12) (deg):     90.0000     90.0000     90.0000
outcell: Cell volume (Ang**3)        :    409.6575
New_DM. Step:    12
Re-using DM from previous geometry...
Extrapolating Density Matrix...
New grid distribution:   1
           1       1:   25    1:   13    1:    5
           2       1:   25    1:   13    6:   10
           3       1:   25    1:   13   11:   15
           4       1:   25    1:   13   16:   20
           5       1:   25   14:   25    1:    5
           6       1:   25   14:   25    6:   10
           7       1:   25   14:   25   11:   15
           8       1:   25   14:   25   16:   20

InitMesh: MESH =    50 x    50 x    40 =      100000
InitMesh: (bp) =    25 x    25 x    20 =       12500
InitMesh: Mesh cutoff (required, used) =   100.000   107.940 Ry
ExtMesh (bp) on 0 =    57 x    45 x    37 =       94905
New grid distribution:   2
           1       7:   25    6:   25    1:    6
           2       7:   25    1:    5    1:    6
           3       7:   25    1:    5    7:   20
           4       1:    6    1:    5    7:   20
           5       1:    6    6:   25    1:    6
           6       1:    6    1:    5    1:    6
           7       7:   25    6:   25    7:   20
           8       1:    6    6:   25    7:   20
New grid distribution:   3
           1       1:    9    7:   25    1:    7
           2      11:   25    1:    6    1:    8
           3       1:    9    7:   25    8:   20
           4      11:   25    1:    6    9:   20
           5      10:   25    7:   25    1:    7
           6       1:   10    1:    6    9:   20
           7      10:   25    7:   25    8:   20
           8       1:   10    1:    6    1:    8
Setting up quadratic distribution...
ExtMesh (bp) on 0 =    51 x    52 x    38 =      100776
PhiOnMesh: Number of (b)points on node 0 =                 2280
PhiOnMesh: nlist on node 0 =                 5166

   scf: iscf   Eharris(eV)      E_KS(eV)   FreeEng(eV)    dDmax  Ef(eV)
   scf:    1     -465.8029     -465.8021     -465.8021  0.00036 -2.4408
   scf:    2     -465.8029     -465.8029     -465.8029  0.00046 -2.4482
   scf:    3     -465.8029     -465.8029     -465.8029  0.00013 -2.4447
   scf:    4     -465.8029     -465.8029     -465.8029  0.00003 -2.4437

SCF Convergence by dMax criterion
max |DM_out - DM_in|:     0.00003456
SCF cycle converged after    4 iterations

Using DM_out to compute the final energy and forces

siesta: E_KS(eV) =             -465.8029

siesta: Atomic forces (eV/Ang):
     1    0.551099    0.742457   -0.113756
     2    0.088440   -0.581081    0.038254
     3   -0.658746   -0.133200   -0.026264
----------------------------------------
   Tot   -0.019207    0.028176   -0.101767
----------------------------------------
   Max    0.742457
   Res    0.430402    sqrt( Sum f_i^2 / 3N )
----------------------------------------
   Max    0.742457    constrained

Stress-tensor-Voigt (kbar):       -2.52        1.08       -1.07        1.48        0.01       -0.31
(Free)E + p*V (eV/cell)     -465.5895
Target enthalpy (eV/cell)     -465.8029

siesta: Stress tensor (static) (eV/Ang**3):
        -0.001499    0.000790   -0.000116
         0.000789    0.000999   -0.000024
        -0.000116   -0.000024   -0.000419

siesta: Pressure (static):          0.49114187  kBar

siesta: Stress tensor (total) (eV/Ang**3):
        -0.001573    0.000925   -0.000192
         0.000924    0.000676    0.000005
        -0.000192    0.000005   -0.000665

siesta: Pressure (total):          0.83436213  kBar
 Anneal: Kinetic Energy=    9.5275075804313637E-003
 Anneal: Velocity scale factor =   0.99899949949937417     
 Anneal: Cell scale factor =    1.0000021369129763     

siesta: Temp_ion =     500.445 K

                     ====================================
                        Begin MD step =     13
                     ====================================

outcoor: Atomic coordinates (Ang):                          
    0.00279165   -0.00547076    0.00456272   1       1  O
    0.71718289    0.67238037   -0.00100426   2       2  H
   -0.76165371    0.58575684   -0.07233476   2       3  H

outcell: Unit cell vectors (Ang):
        8.000766    0.000000    0.000000
        0.000000    8.000192    0.000000
        0.000000    0.000000    6.400164

outcell: Cell vector modules (Ang)   :    8.000766    8.000192    6.400164
outcell: Cell angles (23,13,12) (deg):     90.0000     90.0000     90.0000
outcell: Cell volume (Ang**3)        :    409.6595
New_DM. Step:    13
Re-using DM from previous geometry...
Extrapolating Density Matrix...
New grid distribution:   1
           1       1:   25    1:   13    1:    5
           2       1:   25    1:   13    6:   10
           3       1:   25    1:   13   11:   15
           4       1:   25    1:   13   16:   20
           5       1:   25   14:   25    1:    5
           6       1:   25   14:   25    6:   10
           7       1:   25   14:   25   11:   15
           8       1:   25   14:   25   16:   20

InitMesh: MESH =    50 x    50 x    40 =      100000
InitMesh: (bp) =    25 x    25 x    20 =       12500
InitMesh: Mesh cutoff (required, used) =   100.000   107.939 Ry
ExtMesh (bp) on 0 =    57 x    45 x    37 =       94905
New grid distribution:   2
           1       7:   25    6:   25    1:    6
           2       7:   25    1:    5    1:    6
           3       7:   25    1:    5    7:   20
           4       1:    6    1:    5    7:   20
           5       1:    6    6:   25    1:    6
           6       1:    6    1:    5    1:    6
           7       7:   25    6:   25    7:   20
           8       1:    6    6:   25    7:   20
New grid distribution:   3
           1      10:   25    7:   25    1:    8
           2       1:    9    7:   25    1:    7
           3      11:   25    1:    6    9:   20
           4      11:   25    1:    6    1:    8
           5       1:   10    1:    6    9:   20
           6       1:   10    1:    6    1:    8
           7      10:   25    7:   25    9:   20
           8       1:    9    7:   25    8:   20
Setting up quadratic distribution...
ExtMesh (bp) on 0 =    51 x    52 x    38 =      100776
PhiOnMesh: Number of (b)points on node 0 =                 2280
PhiOnMesh: nlist on node 0 =                 5158

   scf: iscf   Eharris(eV)      E_KS(eV)   FreeEng(eV)    dDmax  Ef(eV)
   scf:    1     -465.7997     -465.7995     -465.7995  0.00019 -2.4728
   scf:    2     -465.7997     -465.7997     -465.7997  0.00013 -2.4709
   scf:    3     -465.7997     -465.7997     -465.7997  0.00005 -2.4718

SCF Convergence by dMax criterion
max |DM_out - DM_in|:     0.00004727
SCF cycle converged after    3 iterations

Using DM_out to compute the final energy and forces

siesta: E_KS(eV) =             -465.7997

siesta: Atomic forces (eV/Ang):
     1    0.524518    0.923131   -0.135385
     2    0.027784   -0.667573    0.043523
     3   -0.571671   -0.223747   -0.017658
----------------------------------------
   Tot   -0.019370    0.031810   -0.109520
----------------------------------------
   Max    0.923131
   Res    0.467989    sqrt( Sum f_i^2 / 3N )
----------------------------------------
   Max    0.923131    constrained

Stress-tensor-Voigt (kbar):       -2.09        1.57       -1.06        1.43       -0.03       -0.32
(Free)E + p*V (eV/cell)     -465.6646
Target enthalpy (eV/cell)     -465.7997

siesta: Stress tensor (static) (eV/Ang**3):
        -0.001229    0.000765   -0.000111
         0.000764    0.001283   -0.000044
        -0.000111   -0.000044   -0.000417

siesta: Pressure (static):          0.19379767  kBar

siesta: Stress tensor (total) (eV/Ang**3):
        -0.001307    0.000894   -0.000197
         0.000893    0.000981   -0.000018
        -0.000197   -0.000018   -0.000663

siesta: Pressure (total):          0.52867962  kBar
 Anneal: Kinetic Energy=    9.2611392769956728E-003
 Anneal: Velocity scale factor =   0.99899949949937417     
 Anneal: Cell scale factor =    1.0000021289106817     

siesta: Temp_ion =     486.454 K

                     ====================================
                        Begin MD step =     14
                     ====================================

outcoor: Atomic coordinates (Ang):                          
    0.00309862   -0.00587392    0.00492637   1       1  O
    0.71454656    0.67865427   -0.00102284   2       2  H
   -0.76393980    0.58584885   -0.07835680   2       3  H

outcell: Unit cell vectors (Ang):
        8.000799    0.000000    0.000000
        0.000000    8.000166    0.000000
        0.000000    0.000000    6.400178

outcell: Cell vector modules (Ang)   :    8.000799    8.000166    6.400178
outcell: Cell angles (23,13,12) (deg):     90.0000     90.0000     90.0000
outcell: Cell volume (Ang**3)        :    409.6608
New_DM. Step:    14
Re-using DM from previous geometry...
Extrapolating Density Matrix...
New grid distribution:   1
           1       1:   25    1:   13    1:    5
           2       1:   25    1:   13    6:   10
           3       1:   25    1:   13   11:   15
           4       1:   25    1:   13   16:   20
           5       1:   25   14:   25    1:    5
           6       1:   25   14:   25    6:   10
           7       1:   25   14:   25   11:   15
           8       1:   25   14:   25   16:   20

InitMesh: MESH =    50 x    50 x    40 =      100000
InitMesh: (bp) =    25 x    25 x    20 =       12500
InitMesh: Mesh cutoff (required, used) =   100.000   107.938 Ry
ExtMesh (bp) on 0 =    57 x    45 x    37 =       94905
New grid distribution:   2
           1       7:   25    6:   25    1:    6
           2       7:   25    1:    5    1:    6
           3       7:   25    1:    5    7:   20
           4       1:    6    1:    5    7:   20
           5       1:    6    6:   25    1:    6
           6       1:    6    1:    5    1:    6
           7       7:   25    6:   25    7:   20
           8       1:    6    6:   25    7:   20
New grid distribution:   3
           1      10:   25    7:   25    1:    8
           2       1:    9    7:   25    1:    7
           3      11:   25    1:    6    9:   20
           4      11:   25    1:    6    1:    8
           5       1:   10    1:    6    9:   20
           6       1:   10    1:    6    1:    8
           7      10:   25    7:   25    9:   20
           8       1:    9    7:   25    8:   20
Setting up quadratic distribution...
ExtMesh (bp) on 0 =    51 x    52 x    38 =      100776
PhiOnMesh: Number of (b)points on node 0 =                 2280
PhiOnMesh: nlist on node 0 =                 5154

   scf: iscf   Eharris(eV)      E_KS(eV)   FreeEng(eV)    dDmax  Ef(eV)
   scf:    1     -465.7963     -465.7965     -465.7965  0.00032 -2.5019
   scf:    2     -465.7963     -465.7962     -465.7962  0.00043 -2.4953
   scf:    3     -465.7963     -465.7962     -465.7962  0.00014 -2.4983
   scf:    4     -465.7963     -465.7963     -465.7963  0.00005 -2.4992

SCF Convergence by dMax criterion
max |DM_out - DM_in|:     0.00004739
SCF cycle converged after    4 iterations

Using DM_out to compute the final energy and forces

siesta: E_KS(eV) =             -465.7963

siesta: Atomic forces (eV/Ang):
     1    0.485779    1.097323   -0.158998
     2   -0.027045   -0.747663    0.048837
     3   -0.478646   -0.315422   -0.006893
----------------------------------------
   Tot   -0.019911    0.034238   -0.117053
----------------------------------------
   Max    1.097323
   Res    0.511657    sqrt( Sum f_i^2 / 3N )
----------------------------------------
   Max    1.097323    constrained

Stress-tensor-Voigt (kbar):       -1.67        2.05       -1.06        1.36       -0.07       -0.31
(Free)E + p*V (eV/cell)     -465.7384
Target enthalpy (eV/cell)     -465.7963

siesta: Stress tensor (static) (eV/Ang**3):
        -0.000960    0.000723   -0.000101
         0.000723    0.001560   -0.000068
        -0.000101   -0.000067   -0.000414

siesta: Pressure (static):         -0.09928798  kBar

siesta: Stress tensor (total) (eV/Ang**3):
        -0.001044    0.000846   -0.000196
         0.000846    0.001280   -0.000046
        -0.000196   -0.000046   -0.000659

siesta: Pressure (total):          0.22623010  kBar
 Anneal: Kinetic Energy=    8.9670828011233616E-003
 Anneal: Velocity scale factor =   0.99899949949937417     
 Anneal: Cell scale factor =    1.0000021157703003     

siesta: Temp_ion =     471.008 K

                     ====================================
                        Begin MD step =     15
[...]

siesta: Stress tensor (static) (eV/Ang**3):
         0.003042    0.000516    0.001022
         0.000516   -0.000627    0.000350
         0.001022    0.000350   -0.000020

siesta: Pressure (static):         -1.27849332  kBar

siesta: Stress tensor (total) (eV/Ang**3):
         0.002971    0.000570    0.001056
         0.000571   -0.000808    0.000221
         0.001056    0.000221   -0.000119

siesta: Pressure (total):         -1.09127876  kBar
 Anneal: Kinetic Energy=    5.3615395699495678E-003
 Anneal: Velocity scale factor =   0.99899949949937417     
 Anneal: Cell scale factor =    1.0000003653145726     

siesta: Temp_ion =     281.622 K

                     ====================================
                        Begin MD step =     17
                     ====================================

outcoor: Atomic coordinates (Ang):                          
    0.01192306    0.01215061    0.01151561   1       1  O
    0.64460954    0.74546960    0.03746267   2       2  H
   -0.86067946    0.22168885   -0.39060779   2       3  H

outcell: Unit cell vectors (Ang):
        8.000313    0.000000    0.000000
        0.000000    7.999545    0.000000
        0.000000    0.000000    6.400794

outcell: Cell vector modules (Ang)   :    8.000313    7.999545    6.400794
outcell: Cell angles (23,13,12) (deg):     90.0000     90.0000     90.0000
outcell: Cell volume (Ang**3)        :    409.6435
New_DM. Step:    17
Re-using DM from previous geometry...
Extrapolating Density Matrix...
New grid distribution:   1
           1       1:   25    1:   13    1:    5
           2       1:   25    1:   13    6:   10
           3       1:   25    1:   13   11:   15
           4       1:   25    1:   13   16:   20
           5       1:   25   14:   25    1:    5
           6       1:   25   14:   25    6:   10
           7       1:   25   14:   25   11:   15
           8       1:   25   14:   25   16:   20

InitMesh: MESH =    50 x    50 x    40 =      100000
InitMesh: (bp) =    25 x    25 x    20 =       12500
InitMesh: Mesh cutoff (required, used) =   100.000   107.933 Ry
ExtMesh (bp) on 0 =    57 x    45 x    37 =       94905
New grid distribution:   2
           1       8:   25    6:   25    1:    7
           2       8:   25    1:    5    1:    6
           3       8:   25    1:    5    7:   20
           4       1:    7    1:    5    8:   20
           5       1:    7    6:   25    1:    7
           6       1:    7    1:    5    1:    7
           7       8:   25    6:   25    8:   20
           8       1:    7    6:   25    8:   20
New grid distribution:   3
           1      17:   25    7:   25    1:   14
           2      11:   25    1:    6    1:   13
           3       1:   10    1:    6    9:   20
           4      11:   25    1:    6   14:   20
           5       1:   16    7:   25    1:    7
           6       1:   10    1:    6    1:    8
           7       1:   16    7:   25    8:   20
           8      17:   25    7:   25   15:   20
Setting up quadratic distribution...
ExtMesh (bp) on 0 =    50 x    52 x    39 =      101400
PhiOnMesh: Number of (b)points on node 0 =                 2520
PhiOnMesh: nlist on node 0 =                 4837

   scf: iscf   Eharris(eV)      E_KS(eV)   FreeEng(eV)    dDmax  Ef(eV)
   scf:    1     -465.7755     -465.7775     -465.7775  0.00045 -1.8226
   scf:    2     -465.7755     -465.7755     -465.7755  0.00013 -1.8212
   scf:    3     -465.7755     -465.7755     -465.7755  0.00007 -1.8219

SCF Convergence by dMax criterion
max |DM_out - DM_in|:     0.00006799
SCF cycle converged after    3 iterations

Using DM_out to compute the final energy and forces

siesta: E_KS(eV) =             -465.7755

siesta: Atomic forces (eV/Ang):
     1   -0.500004   -0.805522   -0.200652
     2   -0.521912    0.225110   -0.272978
     3    0.980793    0.374091    0.263992
----------------------------------------
   Tot   -0.041123   -0.206321   -0.209638
----------------------------------------
   Max    0.980793
   Res    0.527921    sqrt( Sum f_i^2 / 3N )
----------------------------------------
   Max    0.980793    constrained

Stress-tensor-Voigt (kbar):        4.35       -1.50       -0.21        0.81        0.39        1.62
(Free)E + p*V (eV/cell)     -466.0003
Target enthalpy (eV/cell)     -465.7755

siesta: Stress tensor (static) (eV/Ang**3):
         0.002802    0.000439    0.000969
         0.000439   -0.000763    0.000366
         0.000969    0.000366   -0.000040

siesta: Pressure (static):         -1.06776428  kBar

siesta: Stress tensor (total) (eV/Ang**3):
         0.002713    0.000506    0.001009
         0.000507   -0.000934    0.000245
         0.001008    0.000244   -0.000133

siesta: Pressure (total):         -0.87930494  kBar
 Anneal: Kinetic Energy=    5.4226392969576546E-003
 Anneal: Velocity scale factor =   0.99899949949937417     
 Anneal: Cell scale factor =    1.0000004125481301     

siesta: Temp_ion =     284.831 K

                     ====================================
                        Begin MD step =     18
                     ====================================

outcoor: Atomic coordinates (Ang):                          
    0.01193435    0.01233681    0.01144210   1       1  O
    0.64111301    0.74586063    0.03696138   2       2  H
   -0.85817928    0.21681784   -0.39423008   2       3  H

outcell: Unit cell vectors (Ang):
        8.000244    0.000000    0.000000
        0.000000    7.999569    0.000000
        0.000000    0.000000    6.400797

outcell: Cell vector modules (Ang)   :    8.000244    7.999569    6.400797
outcell: Cell angles (23,13,12) (deg):     90.0000     90.0000     90.0000
outcell: Cell volume (Ang**3)        :    409.6414
New_DM. Step:    18
Re-using DM from previous geometry...
Extrapolating Density Matrix...
New grid distribution:   1
           1       1:   25    1:   13    1:    5
           2       1:   25    1:   13    6:   10
           3       1:   25    1:   13   11:   15
           4       1:   25    1:   13   16:   20
           5       1:   25   14:   25    1:    5
           6       1:   25   14:   25    6:   10
           7       1:   25   14:   25   11:   15
           8       1:   25   14:   25   16:   20

InitMesh: MESH =    50 x    50 x    40 =      100000
InitMesh: (bp) =    25 x    25 x    20 =       12500
InitMesh: Mesh cutoff (required, used) =   100.000   107.933 Ry
ExtMesh (bp) on 0 =    57 x    45 x    37 =       94905
New grid distribution:   2
           1       8:   25    6:   25    1:    7
           2       8:   25    1:    5    1:    6
           3       8:   25    1:    5    7:   20
           4       1:    7    1:    5    8:   20
           5       1:    7    6:   25    1:    7
           6       1:    7    1:    5    1:    7
           7       8:   25    6:   25    8:   20
           8       1:    7    6:   25    8:   20
New grid distribution:   3
           1      17:   25    7:   25    1:   14
           2      11:   25    1:    6    1:   13
           3       1:   10    1:    6    9:   20
           4      11:   25    1:    6   14:   20
           5       1:   16    7:   25    1:    7
           6       1:   10    1:    6    1:    8
           7       1:   16    7:   25    8:   20
           8      17:   25    7:   25   15:   20
Setting up quadratic distribution...
ExtMesh (bp) on 0 =    50 x    52 x    39 =      101400
PhiOnMesh: Number of (b)points on node 0 =                 2520
PhiOnMesh: nlist on node 0 =                 4836

   scf: iscf   Eharris(eV)      E_KS(eV)   FreeEng(eV)    dDmax  Ef(eV)
   scf:    1     -465.7769     -465.7786     -465.7786  0.00046 -1.8227
   scf:    2     -465.7769     -465.7769     -465.7769  0.00018 -1.8204
   scf:    3     -465.7769     -465.7769     -465.7769  0.00008 -1.8215

SCF Convergence by dMax criterion
max |DM_out - DM_in|:     0.00008218
SCF cycle converged after    3 iterations

Using DM_out to compute the final energy and forces

siesta: E_KS(eV) =             -465.7769

siesta: Atomic forces (eV/Ang):
     1   -0.498173   -0.900407   -0.169325
     2   -0.451306    0.299606   -0.271557
     3    0.907292    0.391746    0.234638
----------------------------------------
   Tot   -0.042187   -0.209055   -0.206244
----------------------------------------
   Max    0.907292
   Res    0.525617    sqrt( Sum f_i^2 / 3N )
----------------------------------------
   Max    0.907292    constrained

Stress-tensor-Voigt (kbar):        3.87       -1.70       -0.25        0.71        0.43        1.51
(Free)E + p*V (eV/cell)     -465.9409
Target enthalpy (eV/cell)     -465.7769

siesta: Stress tensor (static) (eV/Ang**3):
         0.002526    0.000360    0.000900
         0.000361   -0.000901    0.000382
         0.000899    0.000382   -0.000066

siesta: Pressure (static):         -0.83208697  kBar

siesta: Stress tensor (total) (eV/Ang**3):
         0.002418    0.000441    0.000944
         0.000441   -0.001062    0.000269
         0.000944    0.000268   -0.000155

siesta: Pressure (total):         -0.64147901  kBar
 Anneal: Kinetic Energy=    5.5011585541671027E-003
 Anneal: Velocity scale factor =   0.99899949949937417     
 Anneal: Cell scale factor =    1.0000004842254784     

siesta: Temp_ion =     288.956 K

                     ====================================
                        Begin MD step =     19
                     ====================================

outcoor: Atomic coordinates (Ang):                          
    0.01193370    0.01250111    0.01136469   1       1  O
    0.63745310    0.74636474    0.03635818   2       2  H
   -0.85534110    0.21210511   -0.39775623   2       3  H

outcell: Unit cell vectors (Ang):
        8.000182    0.000000    0.000000
        0.000000    7.999596    0.000000
        0.000000    0.000000    6.400800

outcell: Cell vector modules (Ang)   :    8.000182    7.999596    6.400800
outcell: Cell angles (23,13,12) (deg):     90.0000     90.0000     90.0000
outcell: Cell volume (Ang**3)        :    409.6398
New_DM. Step:    19
Re-using DM from previous geometry...
Extrapolating Density Matrix...
New grid distribution:   1
           1       1:   25    1:   13    1:    5
           2       1:   25    1:   13    6:   10
           3       1:   25    1:   13   11:   15
           4       1:   25    1:   13   16:   20
           5       1:   25   14:   25    1:    5
           6       1:   25   14:   25    6:   10
           7       1:   25   14:   25   11:   15
           8       1:   25   14:   25   16:   20

InitMesh: MESH =    50 x    50 x    40 =      100000
InitMesh: (bp) =    25 x    25 x    20 =       12500
InitMesh: Mesh cutoff (required, used) =   100.000   107.933 Ry
ExtMesh (bp) on 0 =    57 x    45 x    37 =       94905
New grid distribution:   2
           1       8:   25    6:   25    1:    7
           2       8:   25    1:    5    1:    6
           3       8:   25    1:    5    7:   20
           4       1:    7    1:    5    8:   20
           5       1:    7    6:   25    1:    7
           6       1:    7    1:    5    1:    7
           7       8:   25    6:   25    8:   20
           8       1:    7    6:   25    8:   20
New grid distribution:   3
           1      17:   25    7:   25    1:   14
           2      11:   25    1:    6    1:   13
           3       1:   10    1:    6    9:   20
           4      11:   25    1:    6   14:   20
           5       1:   16    7:   25    1:    7
           6       1:   10    1:    6    1:    8
           7       1:   16    7:   25    8:   20
           8      17:   25    7:   25   15:   20
Setting up quadratic distribution...
ExtMesh (bp) on 0 =    50 x    52 x    39 =      101400
PhiOnMesh: Number of (b)points on node 0 =                 2520
PhiOnMesh: nlist on node 0 =                 4824

   scf: iscf   Eharris(eV)      E_KS(eV)   FreeEng(eV)    dDmax  Ef(eV)
   scf:    1     -465.7784     -465.7798     -465.7798  0.00045 -1.8231
   scf:    2     -465.7784     -465.7784     -465.7784  0.00023 -1.8193
   scf:    3     -465.7784     -465.7784     -465.7784  0.00010 -1.8211

SCF Convergence by dMax criterion
max |DM_out - DM_in|:     0.00009671
SCF cycle converged after    3 iterations

Using DM_out to compute the final energy and forces

siesta: E_KS(eV) =             -465.7784

siesta: Atomic forces (eV/Ang):
     1   -0.485247   -0.995206   -0.132657
     2   -0.378865    0.374409   -0.269014
     3    0.820281    0.409673    0.198837
----------------------------------------
   Tot   -0.043832   -0.211125   -0.202834
----------------------------------------
   Max    0.995206
   Res    0.524914    sqrt( Sum f_i^2 / 3N )
----------------------------------------
   Max    0.995206    constrained

Stress-tensor-Voigt (kbar):        3.35       -1.91       -0.30        0.60        0.47        1.38
(Free)E + p*V (eV/cell)     -465.8761
Target enthalpy (eV/cell)     -465.7784

siesta: Stress tensor (static) (eV/Ang**3):
         0.002219    0.000282    0.000815
         0.000283   -0.001040    0.000399
         0.000815    0.000399   -0.000100

siesta: Pressure (static):         -0.57581908  kBar

siesta: Stress tensor (total) (eV/Ang**3):
         0.002092    0.000374    0.000863
         0.000375   -0.001191    0.000292
         0.000863    0.000292   -0.000184

siesta: Pressure (total):         -0.38245040  kBar
 Anneal: Kinetic Energy=    5.5887512776874688E-003
 Anneal: Velocity scale factor =   0.99899949949937417     
 Anneal: Cell scale factor =    1.0000005822615159     

siesta: Temp_ion =     293.557 K

                     ====================================
                        Begin MD step =     20
                     ====================================

outcoor: Atomic coordinates (Ang):                          
    0.01192146    0.01264128    0.01128426   1       1  O
    0.63365763    0.74701005    0.03565423   2       2  H
   -0.85219864    0.20755712   -0.40120000   2       3  H

outcell: Unit cell vectors (Ang):
        8.000129    0.000000    0.000000
        0.000000    7.999626    0.000000
        0.000000    0.000000    6.400804

outcell: Cell vector modules (Ang)   :    8.000129    7.999626    6.400804
outcell: Cell angles (23,13,12) (deg):     90.0000     90.0000     90.0000
outcell: Cell volume (Ang**3)        :    409.6389
New_DM. Step:    20
Re-using DM from previous geometry...
Extrapolating Density Matrix...
New grid distribution:   1
           1       1:   25    1:   13    1:    5
           2       1:   25    1:   13    6:   10
           3       1:   25    1:   13   11:   15
           4       1:   25    1:   13   16:   20
           5       1:   25   14:   25    1:    5
           6       1:   25   14:   25    6:   10
           7       1:   25   14:   25   11:   15
           8       1:   25   14:   25   16:   20

InitMesh: MESH =    50 x    50 x    40 =      100000
InitMesh: (bp) =    25 x    25 x    20 =       12500
InitMesh: Mesh cutoff (required, used) =   100.000   107.933 Ry
ExtMesh (bp) on 0 =    57 x    45 x    37 =       94905
New grid distribution:   2
           1       8:   25    6:   25    1:    7
           2       8:   25    1:    5    1:    6
           3       8:   25    1:    5    7:   20
           4       1:    7    1:    5    8:   20
           5       1:    7    6:   25    1:    7
           6       1:    7    1:    5    1:    7
           7       8:   25    6:   25    8:   20
           8       1:    7    6:   25    8:   20
New grid distribution:   3
           1      17:   25    7:   25    1:   14
           2      11:   25    1:    6    1:   13
           3       1:   10    1:    6    9:   20
           4      11:   25    1:    6   14:   20
           5       1:   16    7:   25    1:    7
           6       1:   10    1:    6    1:    8
           7       1:   16    7:   25    8:   20
           8      17:   25    7:   25   15:   20
Setting up quadratic distribution...
ExtMesh (bp) on 0 =    50 x    52 x    39 =      101400
PhiOnMesh: Number of (b)points on node 0 =                 2520
PhiOnMesh: nlist on node 0 =                 4810

   scf: iscf   Eharris(eV)      E_KS(eV)   FreeEng(eV)    dDmax  Ef(eV)
   scf:    1     -465.7799     -465.7809     -465.7809  0.00043 -1.8236
   scf:    2     -465.7799     -465.7799     -465.7799  0.00031 -1.8183
   scf:    3     -465.7799     -465.7799     -465.7799  0.00011 -1.8208
   scf:    4     -465.7799     -465.7799     -465.7799  0.00005 -1.8215

SCF Convergence by dMax criterion
max |DM_out - DM_in|:     0.00004839
SCF cycle converged after    4 iterations

Using DM_out to compute the final energy and forces

siesta: E_KS(eV) =             -465.7799

siesta: Atomic forces (eV/Ang):
     1   -0.460250   -1.089477   -0.090269
     2   -0.306397    0.448540   -0.265927
     3    0.719998    0.427745    0.156444
----------------------------------------
   Tot   -0.046648   -0.213192   -0.199752
----------------------------------------
   Max    1.089477
   Res    0.526895    sqrt( Sum f_i^2 / 3N )
----------------------------------------
   Max    1.089477    constrained

Stress-tensor-Voigt (kbar):        2.79       -2.11       -0.36        0.50        0.51        1.23
(Free)E + p*V (eV/cell)     -465.8074
Target enthalpy (eV/cell)     -465.7799

siesta: Stress tensor (static) (eV/Ang**3):
         0.001888    0.000208    0.000716
         0.000208   -0.001178    0.000417
         0.000716    0.000416   -0.000141

siesta: Pressure (static):         -0.30387470  kBar

siesta: Stress tensor (total) (eV/Ang**3):
         0.001742    0.000310    0.000767
         0.000310   -0.001319    0.000317
         0.000767    0.000317   -0.000222

siesta: Pressure (total):         -0.10742659  kBar
 Anneal: Kinetic Energy=    5.6776243010860936E-003
 Anneal: Velocity scale factor =   0.99899949949937417     
 Anneal: Cell scale factor =    1.0000007053405218     

siesta: Temp_ion =     298.225 K

siesta: Program's energy decomposition (eV):
siesta: Ebs     =      -102.845967
siesta: Eions   =       815.854478
siesta: Ena     =       175.101985
siesta: Ekin    =       353.210446
siesta: Enl     =       -63.161987
siesta: DEna    =        -2.958686
siesta: DUscf   =         0.781236
siesta: DUext   =         0.000000
siesta: Exc     =      -112.898401
siesta: eta*DQ  =         0.000000
siesta: Emadel  =         0.000000
siesta: Emeta   =         0.000000
siesta: Emolmec =         0.000000
siesta: Ekinion =         0.077094
siesta: Eharris =      -465.702791
siesta: Etot    =      -465.702791
siesta: FreeEng =      -465.702791

siesta: Final energy (eV):
siesta:  Band Struct. =    -102.845967
siesta:       Kinetic =     353.210446
siesta:       Hartree =     415.268216
siesta:    Ext. field =       0.000000
siesta:   Exch.-corr. =    -112.898401
siesta:  Ion-electron =   -1138.677000
siesta:       Ion-ion =      17.316854
siesta:       Ekinion =       0.077094
siesta:         Total =    -465.702791

siesta: Atomic forces (eV/Ang):
siesta:      1   -0.460250   -1.089477   -0.090269
siesta:      2   -0.306397    0.448540   -0.265927
siesta:      3    0.719998    0.427745    0.156444
siesta: ----------------------------------------
siesta:    Tot   -0.046648   -0.213192   -0.199752

siesta: Stress tensor (static) (eV/Ang**3):
siesta:     0.001888    0.000208    0.000716
siesta:     0.000208   -0.001178    0.000417
siesta:     0.000716    0.000416   -0.000141

siesta: Cell volume =        409.638891 Ang**3

siesta: Pressure (static):
siesta:                Solid            Molecule  Units
siesta:          -0.00000207          0.00000178  Ry/Bohr**3
siesta:          -0.00018966          0.00016388  eV/Ang**3
siesta:          -0.30387470          0.26257444  kBar
(Free)E+ p_basis*V_orbitals  =        -465.194718
(Free)Eharris+ p_basis*V_orbitals  =        -465.194718

siesta: Electric dipole (a.u.)  =   -0.117191    0.442747   -0.187298
siesta: Electric dipole (Debye) =   -0.297870    1.125351   -0.476064
>> End of run:  10-JUN-2018  20:55:20
Job completed
