Siesta Version  : siesta-4.0--578
Architecture    : x86_64-linux-n-62-25-35
Compiler version: GNU Fortran (GCC) 7.3.0
Compiler flags  : mpif90 -m64 -fPIC -O3 -march=native -ftree-vectorize -fexpensive-optimizationns -funroll-loops -fprefetch-loop-arrays -fno-second-underscore
PP flags        : -I/zdata/groups/common/nicpa/2018-feb/generic/build-tools/1.0/include -I/zdatta/groups/common/nicpa/2018-feb/generic/gcc/7.3.0/include -I/zdata/groups/common/nicpa/2018-feb/generic/gcc/7.3.0/include -I/zdata/groups/common/nicpa/2018-feb/XeonE5-2660v3/zlib/1.2.11/gnu-7.3.0/include -I/zdata/groups/common/nicpa/2018-feb/generic/numactl/2.0.11/include -I/zdata/groups/common/nicpa/2018-feb/XeonE5-2660v3/libxml2/2.9.7/gnu-7.3.0/include -I/zdata/groups/common/nicpa/2018-feb/XeonE5-2660v3/hwloc/1.11.9/gnu-7.3.0/include -I/zdata/groups/common/nicpa/2018-feb/XeonE5-2660v3/openmpi/3.0.0/gnu-7.3.0/include -I/zdata/groups/common/nicpa/2018-feb/XeonE5-2660v3/szip/2.1.1/gnu-7.3.0/include -I/zdata/groups/common/nicpa/2018-feb/XeonE5-2660v3/hdf5-serial/1.8.18/gnu-7.3.0/include -I/zdata/groups/common/nicpa/2018-feb/XeonE5-2660v3/netcdf-serial/4.6.0/gnu-7.3.0/include -I/zdata/groups/common/nicpa/2018-feb/XeonE5-2660v3/scalapack/204/gnu-7.3.0/include -I/zdata/groups/common/nicpa/2018-feb/XeonE5-2660v3/openblas/0.2.20/gnu-7.3.0/include -I/zdata/groups/common/nicpa/2018-feb/XeonE5-2660v3/elpa/2017.05.003/gnu-7.3.0/include -DSIESTA__ELPA -DMPI -D1 -DFC_HAVE_ABORT -DCDF -DSIESTA__MRRR 
PARALLEL version
NetCDF support

* Running on    8 nodes in parallel
>> Start of run:  10-JUN-2018  20:55:20

                           ***********************       
                           *  WELCOME TO SIESTA  *       
                           ***********************       

reinit: Reading from standard input
************************** Dump of input data file ****************************
##### GENERAL SYSTEM DESCRIPTORS ##############################################
SystemName	Argon dimer. VDW-DF. Unconverged test.
SystemLabel	ar2_vdw
NumberOfAtoms     2
NumberOfSpecies   1
%block ChemicalSpeciesLabel
  1    18    Ar.vdw
%endblock ChemicalSpeciesLabel
##### INITIAL GEOMETRY ########################################################
LatticeConstant	1.00000 Ang
%block LatticeVectors
	15.0000     0.0000    0.0000
	 0.0000    10.0000    0.0000
	 0.0000     0.0000   10.0000
%endblock LatticeVectors
AtomicCoordinatesFormat Ang
%block AtomicCoordinatesAndAtomicSpecies
	0.0000    0.0000    0.0000   1  Ar         1
	4.0000    0.0000    0.0000   1  Ar         2
%endblock AtomicCoordinatesAndAtomicSpecies
##### FUNCTIONAL ##############################################################
XC.functional		VDW
XC.authors		DRSLL
##### BASIS DEFINITION ########################################################
PAO.BasisType		split
PAO.BasisSize		DZP
PAO.EnergyShift	        100 meV
##### PRECISION PARAMETERS ####################################################
%block Ps.lmax
    Ar.vdw 	  2
%endblock Ps.lmax
FilterCutoff             80 Ry
MeshCutoff		100 Ry
##### TASK SPECIFIERS #########################################################
SolutionMethod	        diagon
MaxSCFIterations	50
DM.UseSaveDM		no
DM.MixingWeight		0.1
DM.NumberPulay		5
DM.Tolerance		1.0d-4
MD.TypeOfRun		CG
MD.NumCGsteps		10
MD.MaxCGDispl		0.1 Ang
MD.MaxForceTol	        0.03 eV/Ang
MD.UseSaveXV		no
##### OUTPUT OPTIONS ##########################################################
alloc_report_level      2
timer_report_threshold  1.e-4
************************** End of input data file *****************************

reinit: -----------------------------------------------------------------------
reinit: System Name: Argon dimer. VDW-DF. Unconverged test.
reinit: -----------------------------------------------------------------------
reinit: System Label: ar2_vdw                                                     
reinit: -----------------------------------------------------------------------

initatom: Reading input for the pseudopotentials and atomic orbitals ----------
 Species number:            1  Label: Ar.vdw Atomic number:          18
Ground state valence configuration:   3s02  3p06
Reading pseudopotential information in formatted form from Ar.vdw.psf

Pseudopotential generated from a relativistic atomic calculation
There are spin-orbit pseudopotentials available
Spin-orbit interaction is not included in this calculation

Valence configuration for pseudopotential generation:
3s( 2.00) rc: 1.58
3p( 6.00) rc: 1.58
3d( 0.00) rc: 1.89
4f( 0.00) rc: 1.89
relmxkb: Read Max KB Ang. Momentum=    2 for species Ar.vdw

<basis_specs>
===============================================================================
Ar.vdw               Z=  18    Mass=  39.950        Charge= 0.17977+309
Lmxo=1 Lmxkb= 2    BasisType=split      Semic=F
L=0  Nsemic=0  Cnfigmx=3
          n=1  nzeta=2  polorb=0
            splnorm:   0.15000    
               vcte:    0.0000    
               rinn:    0.0000    
               qcoe:    0.0000    
               qyuk:    0.0000    
               qwid:   0.10000E-01
                rcs:    0.0000      0.0000    
            lambdas:    1.0000      1.0000    
L=1  Nsemic=0  Cnfigmx=3
          n=1  nzeta=2  polorb=1
            splnorm:   0.15000    
               vcte:    0.0000    
               rinn:    0.0000    
               qcoe:    0.0000    
               qyuk:    0.0000    
               qwid:   0.10000E-01
                rcs:    0.0000      0.0000    
            lambdas:    1.0000      1.0000    
-------------------------------------------------------------------------------
L=0  Nkbl=1  erefs: 0.17977+309
L=1  Nkbl=1  erefs: 0.17977+309
L=2  Nkbl=1  erefs: 0.17977+309
===============================================================================
</basis_specs>

Filter: Requested cutoff:   80.000000 Ry
atom: Called for Ar.vdw                (Z =  18)

read_vps: Pseudopotential generation method:
read_vps: ATM3.3    Troullier-Martins                       
Total valence charge:    8.00000

read_vps: Pseudopotential includes a core correction:
read_vps: Pseudo-core for xc-correction

xc_check: Exchange-correlation functional:
xc_check: VDW Dion-Rydberg-Schroeder-Langreth-Lundqvist
V l=0 = -2*Zval/r beyond r=  5.7380
V l=1 = -2*Zval/r beyond r=  5.7380
V l=2 = -2*Zval/r beyond r=  5.7380
All V_l potentials equal beyond r=  1.8628
This should be close to max(r_c) in ps generation
All pots = -2*Zval/r beyond r=  5.7380
Using large-core scheme for Vlocal

atom: Estimated core radius    5.73796
atom: Maximum radius for 4*pi*r*r*local-pseudopot. charge    6.18487
atom: Maximum radius for r*vlocal+2*Zval:    5.81014
GHOST: No ghost state for L =  0
GHOST: No ghost state for L =  1
GHOST: No ghost state for L =  2

KBgen: Kleinman-Bylander projectors: 
   l= 0   rc=  1.933935   el= -1.794714   Ekb= 11.577688   kbcos=  0.177253
   l= 1   rc=  1.933935   el= -0.765735   Ekb= -0.946801   kbcos= -0.508421
   l= 2   rc=  1.933935   el=  0.002320   Ekb= -4.661828   kbcos= -0.053631

KBgen: Total number of  Kleinman-Bylander projectors:    9
atom: -------------------------------------------------------------------------

atom: SANKEY-TYPE ORBITALS:
atom: Selected multiple-zeta basis: split     

SPLIT: Orbitals with angular momentum L= 0

SPLIT: Basis orbitals for state 3s

SPLIT: PAO cut-off radius determined from an
SPLIT: energy shift=  0.007350 Ry

   izeta = 1
                 lambda =    1.000000
                     rc =    3.993203
                 energy =   -1.787952
                kinetic =    1.158248
    potential(screened) =   -2.946200
       potential(ionic) =  -11.276508
PAO Filter: Cutoff used:   39.20 Ry
PAO Filter: diagnostic kin energy tol:    0.003000 Ry
PAO Filter: Nominal cutoff (before filtering):   51.32 Ry
Filter:    Number of eigenfunctions  of the
           filtering kernel (total, used)= 26  6

   izeta = 2
                 rmatch =    2.921453
              splitnorm =    0.150000
                 energy =   -1.603831
                kinetic =    1.743790
    potential(screened) =   -3.347621
       potential(ionic) =  -12.083785
PAO Filter: Cutoff used:   39.20 Ry
PAO Filter: diagnostic kin energy tol:    0.003000 Ry
PAO Filter: Nominal cutoff (before filtering):   54.23 Ry
Filter:    Number of eigenfunctions  of the
           filtering kernel (total, used)= 22  4

SPLIT: Orbitals with angular momentum L= 1

SPLIT: Basis orbitals for state 3p

SPLIT: PAO cut-off radius determined from an
SPLIT: energy shift=  0.007350 Ry

   izeta = 1
                 lambda =    1.000000
                     rc =    4.877340
                 energy =   -0.758189
                kinetic =    2.217693
    potential(screened) =   -2.975882
       potential(ionic) =  -10.769536
PAO Filter: Cutoff used:   39.20 Ry
PAO Filter: diagnostic kin energy tol:    0.003000 Ry
PAO Filter: Nominal cutoff (before filtering):   18.57 Ry
Filter:    Number of eigenfunctions  of the
           filtering kernel (total, used)= 30  8

   izeta = 2
                 rmatch =    3.188610
              splitnorm =    0.150000
                 energy =   -0.541535
                kinetic =    3.267023
    potential(screened) =   -3.808558
       potential(ionic) =  -12.314794
PAO Filter: Cutoff used:   39.20 Ry
PAO Filter: diagnostic kin energy tol:    0.003000 Ry
PAO Filter: Nominal cutoff (before filtering):   29.30 Ry
Filter:    Number of eigenfunctions  of the
           filtering kernel (total, used)= 23  4

POLgen: Perturbative polarization orbital with L=  2

POLgen: Polarization orbital for state 3p

   izeta = 1
                     rc =    4.877340
                 energy =    1.013743
                kinetic =    3.051397
    potential(screened) =   -2.037654
       potential(ionic) =   -8.994896
PAO Filter: diagnostic kin energy tol:    0.003000 Ry
PAO Filter: Nominal cutoff (before filtering):   33.15 Ry
Filter:    Number of eigenfunctions  of the
           filtering kernel (total, used)= 30  7
atom: Total number of Sankey-type orbitals: 13

atm_pop: Valence configuration (for local Pseudopot. screening):
 3s( 2.00)                                                            
 3p( 6.00)                                                            
Vna: chval, zval:    8.00000   8.00000

Vna:  Cut-off radius for the neutral-atom potential:   5.883224
Vna: WARNING: Cut-off radius for the neutral-atom potential, rVna =     5.88322
Vna: WARNING: Cut-off radius for charge density =     4.87734
Vna: WARNING: Check atom: Look for the sentence:
Vna: WARNING: LOCAL NEUTRAL-ATOM PSEUDOPOTENTIAL
Vna: WARNING: Increasing the tolerance parameter EPS
Vna: WARNING: might be a good idea
VNA Filter: diagnostic kinetic energy tol:    0.003000 Ry
VNA Filter: Nominal cutoff (before filtering):   27.15 Ry
VNA Filter: Cutoff used:    80.00 Ry
Filter:    Number of eigenfunctions  of the
           filtering kernel (total, used)= 44 15
comcore: Pseudo-core radius Rcore=  2.137344
PCC Filter: diagnostic kin energy tol:    0.003000 Ry
PCC Filter: Nominal cutoff (before filtering):   93.06 Ry
PCC Filter: Cutoff used:    80.00 Ry
Filter:    Number of eigenfunctions  of the
           filtering kernel (total, used)= 22  4

atom: _________________________________________________________________________

prinput: Basis input ----------------------------------------------------------

PAO.BasisType split     

%block ChemicalSpeciesLabel
    1   18 Ar.vdw                  # Species index, atomic number, species label
%endblock ChemicalSpeciesLabel

%block PAO.Basis                 # Define Basis set
Ar.vdw                2                    # Species label, number of l-shells
 n=3   0   2                         # n, l, Nzeta 
   3.993      2.921   
   1.000      1.000   
 n=3   1   2 P   1                   # n, l, Nzeta, Polarization, NzetaPol
   4.877      3.189   
   1.000      1.000   
%endblock PAO.Basis

prinput: ----------------------------------------------------------------------

Dumping basis to NetCDF file Ar.vdw.ion.nc
coor:   Atomic-coordinates input format  =     Cartesian coordinates
coor:                                          (in Angstroms)

siesta: Atomic coordinates (Bohr) and species
siesta:      0.00000   0.00000   0.00000  1        1
siesta:      7.55891   0.00000   0.00000  1        2

siesta: System type = molecule  

initatomlists: Number of atoms, orbitals, and projectors:      2    26    18

siesta: ******************** Simulation parameters ****************************
siesta:
siesta: The following are some of the parameters of the simulation.
siesta: A complete list of the parameters used, including default values,
siesta: can be found in file out.fdf
siesta:
redata: Non-Collinear-spin run           =     F
redata: SpinPolarized (Up/Down) run      =     F
redata: Number of spin components        =     1
redata: Long output                      =     F
redata: Number of Atomic Species         =        1
redata: Charge density info will appear in .RHO file
redata: Write Mulliken Pop.              =     NO
redata: Matel table size (NRTAB)         =     1024
redata: Mesh Cutoff                      =   100.0000 Ry
redata: Net charge of the system         =     0.0000 |e|
redata: Min. number of SCF Iter          =        0
redata: Max. number of SCF Iter          =       50
redata: Mix DM or H after convergence    =     F
redata: Recompute H after scf cycle      =     F
redata: Performing Pulay mixing using    =     5 iterations
redata: Mix DM in first SCF step ?       =     F
redata: Write Pulay info on disk?        =     F
redata: Discard 1st Pulay DM after  kick =     F
redata: New DM Mixing Weight             =     0.1000
redata: New DM Occupancy tolerance       = 0.000000000001
redata: No kicks to SCF
redata: DM Mixing Weight for Kicks       =     0.5000
redata: DM Tolerance for SCF             =     0.000100
redata: Require (free) Energy convergence in SCF =     F
redata: DM (free)Energy tolerance for SCF =     0.000010 eV
redata: Require Harris convergence for SCF =     F
redata: DM Harris energy tolerance for SCF =     0.000010 eV
redata: Using Saved Data (generic)   =     F
redata: Use continuation files for DM    =     F
redata: Neglect nonoverlap interactions  =     F
redata: Method of Calculation            =     Diagonalization
redata: Divide and Conquer               =     T
redata: Electronic Temperature           =     0.0019  Ry
redata: Fix the spin of the system       =     F
redata: Dynamics option                  =     CG coord. optimization
redata: Variable cell                    =     F
redata: Use continuation files for CG    =     F
redata: Max atomic displ per move        =     0.1890  Bohr
redata: Maximum number of CG moves       =       10
redata: Force tolerance                  =     0.0012  Ry/Bohr
redata: ***********************************************************************
Total number of electrons:    16.000000
Total ionic charge:    16.000000

* ProcessorY, Blocksize:    2   3


* Orbital distribution balance (max,min):     5     3

 Kpoints in:            1 . Kpoints trimmed:            1

siesta: k-grid: Number of k-points =     1
siesta: k-grid: Cutoff (effective) =     5.000 Ang
siesta: k-grid: Supercell and displacements
siesta: k-grid:    1   0   0      0.000
siesta: k-grid:    0   1   0      0.000
siesta: k-grid:    0   0   1      0.000

                     ====================================
                        Begin CG opt. move =      0
                     ====================================

outcell: Unit cell vectors (Ang):
       15.000000    0.000000    0.000000
        0.000000   10.000000    0.000000
        0.000000    0.000000   10.000000

outcell: Cell vector modules (Ang)   :   15.000000   10.000000   10.000000
outcell: Cell angles (23,13,12) (deg):     90.0000     90.0000     90.0000
outcell: Cell volume (Ang**3)        :   1500.0000
New_DM. Step:     1
Initializing Density Matrix...
New grid distribution:   1
           1       1:   48    1:   16    1:    8
           2       1:   48    1:   16    9:   16
           3       1:   48    1:   16   17:   24
           4       1:   48    1:   16   25:   32
           5       1:   48   17:   32    1:    8
           6       1:   48   17:   32    9:   16
           7       1:   48   17:   32   17:   24
           8       1:   48   17:   32   25:   32

InitMesh: MESH =    96 x    64 x    64 =      393216
InitMesh: (bp) =    48 x    32 x    32 =       49152
InitMesh: Mesh cutoff (required, used) =   100.000   113.204 Ry
ExtMesh (bp) on 0 =    84 x    52 x    44 =      192192
New grid distribution:   2
           1      14:   48    1:    8    1:   10
           2       1:   13    9:   32    8:   32
           3      14:   48    1:   11   11:   32
           4       1:   13    8:   32    1:    7
           5      14:   48    9:   32    1:   10
           6       1:   13    1:    8    8:   32
           7      14:   48   12:   32   11:   32
           8       1:   13    1:    7    1:    7
New grid distribution:   3
           1      14:   48    1:    8    1:    8
           2       1:   13    9:   32    9:   32
           3      14:   48    1:    8    9:   32
           4       1:   13    1:    8    9:   32
           5      14:   48    9:   32    1:    8
           6      14:   48    9:   32    9:   32
           7       1:   13    9:   32    1:    8
           8       1:   13    1:    8    1:    8
Setting up quadratic distribution...
ExtMesh (bp) on 0 =    71 x    44 x    46 =      143704
PhiOnMesh: Number of (b)points on node 0 =                 2800
PhiOnMesh: nlist on node 0 =                 6946

stepf: Fermi-Dirac step function

siesta: Program's energy decomposition (eV):
siesta: Ebs     =      -201.911992
siesta: Eions   =      1490.478905
siesta: Ena     =       145.951095
siesta: Ekin    =       424.968057
siesta: Enl     =       -20.150483
siesta: DEna    =         0.000002
siesta: DUscf   =         0.000000
siesta: DUext   =         0.000000
siesta: Exc     =      -222.732370
siesta: eta*DQ  =         0.000000
siesta: Emadel  =         0.000000
siesta: Emeta   =         0.000000
siesta: Emolmec =         0.000000
siesta: Ekinion =         0.000000
siesta: Eharris =     -1162.535757
siesta: Etot    =     -1162.442604
siesta: FreeEng =     -1162.442604

   scf: iscf   Eharris(eV)      E_KS(eV)   FreeEng(eV)    dDmax  Ef(eV)
   scf:    1    -1162.5358    -1162.4426    -1162.4426  0.17712 -1.0259
timer: Routine,Calls,Time,% =    IterSCF     1       1.497  13.09
   scf:    2    -1162.5186    -1162.4813    -1162.4813  0.11888 -1.5345
   scf:    3    -1162.5035    -1162.4807    -1162.4807  0.03284 -1.3352
   scf:    4    -1162.5035    -1162.5031    -1162.5031  0.00703 -1.3153
   scf:    5    -1162.5035    -1162.5032    -1162.5032  0.00015 -1.3275
   scf:    6    -1162.5035    -1162.5033    -1162.5033  0.00004 -1.3274

SCF Convergence by dMax criterion
max |DM_out - DM_in|:     0.00004072
SCF cycle converged after    6 iterations

Using DM_out to compute the final energy and forces

siesta: E_KS(eV) =            -1162.5035

siesta: E_KS - E_eggbox =     -1162.5035

siesta: Atomic forces (eV/Ang):
----------------------------------------
   Tot   -0.001787   -0.000001   -0.000001
----------------------------------------
   Max    0.075365
   Res    0.042999    sqrt( Sum f_i^2 / 3N )
----------------------------------------
   Max    0.075365    constrained

Stress-tensor-Voigt (kbar):        0.35        0.03        0.03        0.00        0.00        0.00
(Free)E + p*V (eV/cell)    -1162.6293
Target enthalpy (eV/cell)    -1162.5035

                     ====================================
                        Begin CG opt. move =      1
                     ====================================

outcell: Unit cell vectors (Ang):
       15.000000    0.000000    0.000000
        0.000000   10.000000    0.000000
        0.000000    0.000000   10.000000

outcell: Cell vector modules (Ang)   :   15.000000   10.000000   10.000000
outcell: Cell angles (23,13,12) (deg):     90.0000     90.0000     90.0000
outcell: Cell volume (Ang**3)        :   1500.0000
New_DM. Step:     2
Re-using DM from previous geometry...
Re-using DM without extrapolation (not allowed)
New grid distribution:   1
           1       1:   48    1:   16    1:    8
           2       1:   48    1:   16    9:   16
           3       1:   48    1:   16   17:   24
           4       1:   48    1:   16   25:   32
           5       1:   48   17:   32    1:    8
           6       1:   48   17:   32    9:   16
           7       1:   48   17:   32   17:   24
           8       1:   48   17:   32   25:   32

InitMesh: MESH =    96 x    64 x    64 =      393216
InitMesh: (bp) =    48 x    32 x    32 =       49152
InitMesh: Mesh cutoff (required, used) =   100.000   113.204 Ry
ExtMesh (bp) on 0 =    84 x    52 x    44 =      192192
New grid distribution:   2
           1      13:   48    1:    8    1:   10
           2       1:   12    8:   32    8:   32
           3      13:   48    1:   12   11:   32
           4       1:   12    1:    7    8:   32
           5      13:   48    9:   32    1:   10
           6       1:   12    8:   32    1:    7
           7      13:   48   13:   32   11:   32
           8       1:   12    1:    7    1:    7
New grid distribution:   3
           1      14:   48    1:    8    1:    8
           2       1:   13    9:   32    9:   32
           3      14:   48    1:    8    9:   32
           4       1:   13    1:    8    9:   32
           5      14:   48    9:   32    1:    8
           6      14:   48    9:   32    9:   32
           7       1:   13    9:   32    1:    8
           8       1:   13    1:    8    1:    8
Setting up quadratic distribution...
ExtMesh (bp) on 0 =    72 x    44 x    46 =      145728
PhiOnMesh: Number of (b)points on node 0 =                 2880
PhiOnMesh: nlist on node 0 =                 7303

   scf: iscf   Eharris(eV)      E_KS(eV)   FreeEng(eV)    dDmax  Ef(eV)
   scf:    1    -1162.5146    -1162.5125    -1162.5125  0.01772 -1.2515
   scf:    2    -1162.5145    -1162.5145    -1162.5145  0.00035 -1.2524
   scf:    3    -1162.5145    -1162.5145    -1162.5145  0.00030 -1.2523
   scf:    4    -1162.5145    -1162.5145    -1162.5145  0.00004 -1.2518

SCF Convergence by dMax criterion
max |DM_out - DM_in|:     0.00004025
SCF cycle converged after    4 iterations

Using DM_out to compute the final energy and forces

siesta: E_KS(eV) =            -1162.5145

siesta: Atomic forces (eV/Ang):
----------------------------------------
   Tot   -0.015256   -0.000001   -0.000001
----------------------------------------
   Max    0.101322
   Res    0.054273    sqrt( Sum f_i^2 / 3N )
----------------------------------------
   Max    0.101322    constrained

Stress-tensor-Voigt (kbar):        0.31        0.02        0.02        0.00        0.00        0.00
(Free)E + p*V (eV/cell)    -1162.6257
Target enthalpy (eV/cell)    -1162.5145

                     ====================================
                        Begin CG opt. move =      2
                     ====================================

outcell: Unit cell vectors (Ang):
       15.000000    0.000000    0.000000
        0.000000   10.000000    0.000000
        0.000000    0.000000   10.000000

outcell: Cell vector modules (Ang)   :   15.000000   10.000000   10.000000
outcell: Cell angles (23,13,12) (deg):     90.0000     90.0000     90.0000
outcell: Cell volume (Ang**3)        :   1500.0000
New_DM. Step:     3
Re-using DM from previous geometry...
Re-using DM without extrapolation (not allowed)
Density Matrix sparsity pattern changed.
New grid distribution:   1
           1       1:   48    1:   16    1:    8
           2       1:   48    1:   16    9:   16
           3       1:   48    1:   16   17:   24
           4       1:   48    1:   16   25:   32
           5       1:   48   17:   32    1:    8
           6       1:   48   17:   32    9:   16
           7       1:   48   17:   32   17:   24
           8       1:   48   17:   32   25:   32

InitMesh: MESH =    96 x    64 x    64 =      393216
InitMesh: (bp) =    48 x    32 x    32 =       49152
InitMesh: Mesh cutoff (required, used) =   100.000   113.204 Ry
ExtMesh (bp) on 0 =    84 x    52 x    44 =      192192
New grid distribution:   2
           1      12:   48    1:    8    1:   10
           2       1:   11    8:   32    8:   32
           3      12:   48    1:   12   11:   32
           4       1:   11    1:    7    8:   32
           5      12:   48    9:   32    1:   10
           6       1:   11    8:   32    1:    7
           7      12:   48   13:   32   11:   32
           8       1:   11    1:    7    1:    7
New grid distribution:   3
           1      14:   48    1:    8    1:    8
           2       1:   13    9:   32    9:   32
           3      14:   48    1:    8    9:   32
           4       1:   13    1:    8    9:   32
           5      14:   48    9:   32    1:    8
           6      14:   48    9:   32    9:   32
           7       1:   13    9:   32    1:    8
           8       1:   13    1:    8    1:    8
Setting up quadratic distribution...
ExtMesh (bp) on 0 =    73 x    44 x    46 =      147752
PhiOnMesh: Number of (b)points on node 0 =                 2960
PhiOnMesh: nlist on node 0 =                 7536

   scf: iscf   Eharris(eV)      E_KS(eV)   FreeEng(eV)    dDmax  Ef(eV)
   scf:    1    -1162.5286    -1162.5251    -1162.5251  0.02548 -0.9456
   scf:    2    -1162.5286    -1162.5286    -1162.5286  0.00070 -0.9452
   scf:    3    -1162.5286    -1162.5286    -1162.5286  0.00058 -0.9451
   scf:    4    -1162.5286    -1162.5286    -1162.5286  0.00008 -0.9446

SCF Convergence by dMax criterion
max |DM_out - DM_in|:     0.00007543
SCF cycle converged after    4 iterations

Using DM_out to compute the final energy and forces

siesta: E_KS(eV) =            -1162.5286

siesta: Atomic forces (eV/Ang):
----------------------------------------
   Tot   -0.003932   -0.000001   -0.000001
----------------------------------------
   Max    0.057770
   Res    0.032239    sqrt( Sum f_i^2 / 3N )
----------------------------------------
   Max    0.057770    constrained

Stress-tensor-Voigt (kbar):        0.19       -0.00       -0.00        0.00        0.00        0.00
(Free)E + p*V (eV/cell)    -1162.5863
Target enthalpy (eV/cell)    -1162.5286

                     ====================================
                        Begin CG opt. move =      3
                     ====================================

outcell: Unit cell vectors (Ang):
       15.000000    0.000000    0.000000
        0.000000   10.000000    0.000000
        0.000000    0.000000   10.000000

outcell: Cell vector modules (Ang)   :   15.000000   10.000000   10.000000
outcell: Cell angles (23,13,12) (deg):     90.0000     90.0000     90.0000
outcell: Cell volume (Ang**3)        :   1500.0000
New_DM. Step:     4
Re-using DM from previous geometry...
Re-using DM without extrapolation (not allowed)
Density Matrix sparsity pattern changed.
New grid distribution:   1
           1       1:   48    1:   16    1:    8
           2       1:   48    1:   16    9:   16
           3       1:   48    1:   16   17:   24
           4       1:   48    1:   16   25:   32
           5       1:   48   17:   32    1:    8
           6       1:   48   17:   32    9:   16
           7       1:   48   17:   32   17:   24
           8       1:   48   17:   32   25:   32

InitMesh: MESH =    96 x    64 x    64 =      393216
InitMesh: (bp) =    48 x    32 x    32 =       49152
InitMesh: Mesh cutoff (required, used) =   100.000   113.204 Ry
ExtMesh (bp) on 0 =    84 x    52 x    44 =      192192
New grid distribution:   2
           1      11:   48    1:    8    1:   10
           2       1:   10    8:   32    8:   32
           3      11:   48    1:   12   11:   32
           4       1:   10    1:    7    8:   32
           5      11:   48    9:   32    1:   10
           6       1:   10    8:   32    1:    7
           7      11:   48   13:   32   11:   32
           8       1:   10    1:    7    1:    7
New grid distribution:   3
           1      13:   48    9:   32    1:    8
           2      13:   48    1:    8    9:   32
           3      13:   48    1:    8    1:    8
           4       1:   12    1:    8    9:   32
           5       1:   12    9:   32    1:    8
           6      13:   48    9:   32    9:   32
           7       1:   12    9:   32    9:   32
           8       1:   12    1:    8    1:    8
Setting up quadratic distribution...
ExtMesh (bp) on 0 =    74 x    44 x    46 =      149776
PhiOnMesh: Number of (b)points on node 0 =                 3040
PhiOnMesh: nlist on node 0 =                 7743

   scf: iscf   Eharris(eV)      E_KS(eV)   FreeEng(eV)    dDmax  Ef(eV)
   scf:    1    -1162.5330    -1162.5321    -1162.5321  0.02026 -0.3253
   scf:    2    -1162.5330    -1162.5329    -1162.5329  0.00280 -0.3229
   scf:    3    -1162.5330    -1162.5329    -1162.5329  0.00224 -0.3228
   scf:    4    -1162.5330    -1162.5330    -1162.5330  0.00018 -0.3221
   scf:    5    -1162.5330    -1162.5330    -1162.5330  0.00002 -0.3231

SCF Convergence by dMax criterion
max |DM_out - DM_in|:     0.00002294
SCF cycle converged after    5 iterations

Using DM_out to compute the final energy and forces

siesta: E_KS(eV) =            -1162.5330

siesta: Atomic forces (eV/Ang):
----------------------------------------
   Tot    0.032263   -0.000007   -0.000007
----------------------------------------
   Max    0.038166
   Res    0.015767    sqrt( Sum f_i^2 / 3N )
----------------------------------------
   Max    0.038166    constrained

Stress-tensor-Voigt (kbar):       -0.05        0.03        0.03        0.00        0.00        0.00
(Free)E + p*V (eV/cell)    -1162.5361
Target enthalpy (eV/cell)    -1162.5330

                     ====================================
                        Begin CG opt. move =      4
                     ====================================

outcell: Unit cell vectors (Ang):
       15.000000    0.000000    0.000000
        0.000000   10.000000    0.000000
        0.000000    0.000000   10.000000

outcell: Cell vector modules (Ang)   :   15.000000   10.000000   10.000000
outcell: Cell angles (23,13,12) (deg):     90.0000     90.0000     90.0000
outcell: Cell volume (Ang**3)        :   1500.0000
New_DM. Step:     5
Re-using DM from previous geometry...
Re-using DM without extrapolation (not allowed)
New grid distribution:   1
           1       1:   48    1:   16    1:    8
           2       1:   48    1:   16    9:   16
           3       1:   48    1:   16   17:   24
           4       1:   48    1:   16   25:   32
           5       1:   48   17:   32    1:    8
           6       1:   48   17:   32    9:   16
           7       1:   48   17:   32   17:   24
           8       1:   48   17:   32   25:   32

InitMesh: MESH =    96 x    64 x    64 =      393216
InitMesh: (bp) =    48 x    32 x    32 =       49152
InitMesh: Mesh cutoff (required, used) =   100.000   113.204 Ry
ExtMesh (bp) on 0 =    84 x    52 x    44 =      192192
New grid distribution:   2
           1      11:   48    1:    8    1:    9
           2       1:   10    8:   32    8:   32
           3      11:   48    1:   12   10:   32
           4       1:   10    1:    7    8:   32
           5      11:   48    9:   32    1:    9
           6       1:   10    8:   32    1:    7
           7      11:   48   13:   32   10:   32
           8       1:   10    1:    7    1:    7
New grid distribution:   3
           1      13:   48    9:   32    1:    8
           2      13:   48    1:    8    9:   32
           3      13:   48    1:    8    1:    8
           4       1:   12    1:    8    9:   32
           5       1:   12    9:   32    1:    8
           6      13:   48    9:   32    9:   32
           7       1:   12    9:   32    9:   32
           8       1:   12    1:    8    1:    8
Setting up quadratic distribution...
ExtMesh (bp) on 0 =    74 x    44 x    45 =      146520
PhiOnMesh: Number of (b)points on node 0 =                 2736
PhiOnMesh: nlist on node 0 =                 7882

   scf: iscf   Eharris(eV)      E_KS(eV)   FreeEng(eV)    dDmax  Ef(eV)
   scf:    1    -1162.5333    -1162.5326    -1162.5326  0.00783 -0.5280
   scf:    2    -1162.5333    -1162.5333    -1162.5333  0.00112 -0.5288
   scf:    3    -1162.5333    -1162.5332    -1162.5332  0.00086 -0.5289
   scf:    4    -1162.5333    -1162.5333    -1162.5333  0.00007 -0.5291

SCF Convergence by dMax criterion
max |DM_out - DM_in|:     0.00006872
SCF cycle converged after    4 iterations

Using DM_out to compute the final energy and forces

siesta: E_KS(eV) =            -1162.5333

siesta: Atomic forces (eV/Ang):
----------------------------------------
   Tot   -0.013991   -0.000002   -0.000002
----------------------------------------
   Max    0.010547
   Res    0.004530    sqrt( Sum f_i^2 / 3N )
----------------------------------------
   Max    0.010547    constrained

Stress-tensor-Voigt (kbar):        0.03        0.00        0.00        0.00        0.00        0.00
(Free)E + p*V (eV/cell)    -1162.5449
Target enthalpy (eV/cell)    -1162.5333

outcoor: Relaxed atomic coordinates (Ang):                  
    0.23731327   -0.00000153   -0.00000153   1       1  Ar.vdw
    3.75692366   -0.00000138   -0.00000138   1       2  Ar.vdw

siesta: Program's energy decomposition (eV):
siesta: Ebs     =      -207.651480
siesta: Eions   =      1490.478905
siesta: Ena     =       145.955643
siesta: Ekin    =       419.898334
siesta: Enl     =       -19.760822
siesta: DEna    =         3.223851
siesta: DUscf   =         0.025416
siesta: DUext   =         0.000000
siesta: Exc     =      -221.396803
siesta: eta*DQ  =         0.000000
siesta: Emadel  =         0.000000
siesta: Emeta   =         0.000000
siesta: Emolmec =         0.000000
siesta: Ekinion =         0.000000
siesta: Eharris =     -1162.533286
siesta: Etot    =     -1162.533286
siesta: FreeEng =     -1162.533286

siesta: Final energy (eV):
siesta:  Band Struct. =    -207.651480
siesta:       Kinetic =     419.898334
siesta:       Hartree =     836.297453
siesta:    Ext. field =       0.000000
siesta:   Exch.-corr. =    -221.396803
siesta:  Ion-electron =   -2033.230730
siesta:       Ion-ion =    -164.101539
siesta:       Ekinion =       0.000000
siesta:         Total =   -1162.533286

siesta: Stress tensor (static) (eV/Ang**3):
siesta:     0.000019    0.000000    0.000000
siesta:     0.000000    0.000002    0.000000
siesta:     0.000000    0.000000    0.000002

siesta: Cell volume =       1500.000000 Ang**3

siesta: Pressure (static):
siesta:                Solid            Molecule  Units
siesta:          -0.00000008         -0.00000011  Ry/Bohr**3
siesta:          -0.00000775         -0.00001052  eV/Ang**3
siesta:          -0.01241083         -0.01686144  kBar
(Free)E+ p_basis*V_orbitals  =       -1161.986137
(Free)Eharris+ p_basis*V_orbitals  =       -1161.986138

siesta: Electric dipole (a.u.)  =    0.000047   -0.000006   -0.000006
siesta: Electric dipole (Debye) =    0.000119   -0.000015   -0.000015

WARNING: alloc-realloc-dealloc name mismatch
         Name: sparseMat Dscf
         Size:               -40. Bytes
         Node:     0
         Subsequent mismatches will not be reported
>> End of run:  10-JUN-2018  20:55:58
Job completed
