Siesta Version  : siesta-4.1-1033
Architecture    : x86_64-linux-n-62-18-18
Compiler version: GNU Fortran (GCC) 7.3.0
Compiler flags  : mpifort -m64 -fPIC -O3 -march=native -ftree-vectorize -fexpensive-optimizatioons -funroll-loops -fprefetch-loop-arrays -fno-second-underscore  -flto
PP flags        : -I/zdata/groups/common/nicpa/2018-feb/generic/build-tools/1.0/include -I/zdatta/groups/common/nicpa/2018-feb/generic/gcc/7.3.0/include -I/zdata/groups/common/nicpa/2018-feb/generic/gcc/7.3.0/include -I/zdata/groups/common/nicpa/2018-feb/XeonE5-2665/zlib/1.2.11/gnu-7.3.0/include -I/zdata/groups/common/nicpa/2018-feb/generic/numactl/2.0.11/include -I/zdata/groups/common/nicpa/2018-feb/XeonE5-2665/libxml2/2.9.7/gnu-7.3.0/include -I/zdata/groups/common/nicpa/2018-feb/XeonE5-2665/hwloc/1.11.9/gnu-7.3.0/include -I/zdata/groups/common/nicpa/2018-feb/XeonE5-2665/openmpi/3.0.0/gnu-7.3.0/include -I/zdata/groups/common/nicpa/2018-feb/XeonE5-2665/szip/2.1.1/gnu-7.3.0/include -I/zdata/groups/common/nicpa/2018-feb/XeonE5-2665/hdf5/1.8.18/gnu-7.3.0/include -I/zdata/groups/common/nicpa/2018-feb/XeonE5-2665/pnetcdf/1.8.1/gnu-7.3.0/include -I/zdata/groups/common/nicpa/2018-feb/XeonE5-2665/netcdf/4.6.0/gnu-7.3.0/include -I/zdata/groups/common/nicpa/2018-feb/XeonE5-2665/flook/0.7.0/gnu-7.3.0/include -I/zdata/groups/common/nicpa/2018-feb/XeonE5-2665/parmetis/4.0.3/gnu-7.3.0/include -I/zdata/groups/common/nicpa/2018-feb/XeonE5-2665/scalapack/204/gnu-7.3.0/include -I/zdata/groups/common/nicpa/2018-feb/XeonE5-2665/openblas/0.2.20/gnu-7.3.0/include -I/zdata/groups/common/nicpa/2018-feb/XeonE5-2665/scotch/6.0.4/gnu-7.3.0/include -I/zdata/groups/common/nicpa/2018-feb/XeonE5-2665/mumps/5.1.2/gnu-7.3.0/include -I/zdata/groups/common/nicpa/2018-feb/XeonE5-2665/fftw/3.3.7/gnu-7.3.0/include -I/zdata/groups/common/nicpa/2018-feb/XeonE5-2665/elpa/2017.05.003/gnu-7.3.0/include/elpa -DSIESTA__ELPA -DMPI -D1 -DFC_HAVE_ABORT -DCDF -DCDF4 -DSIESTA__FLOOK  -DNCDF -DNCDF_4 -DNCDF_PARALLEL -DSIESTA__METIS -DSIESTA__MUMPS -DTS_NOCHECKS -DSIESTA__MRRR
Libraries       : libncdf.a libfdict.a -lnetcdff -lnetcdf -lpnetcdf -lhdf5_hl -lhdf5 -lz  -lzmuumps -lmumps_common -lesmumps -lscotch -lscotcherr -lpord -lparmetis -lmetis -lelpa -lscalapack -lopenblas  -L/zdata/groups/common/nicpa/2018-feb/XeonE5-2665/flook/0.7.0/gnu-7.3.0/lib -Wl,-rpath=/zdata/groups/common/nicpa/2018-feb/XeonE5-2665/flook/0.7.0/gnu-7.3.0/lib -lflookall -ldl  -flto -fuse-linker-plugin  -lmetis
PARALLEL version
NetCDF support
NetCDF-4 support
NetCDF-4 MPI-IO support
METIS ordering support

* Running on 8 nodes in parallel
>> Start of run:   5-NOV-2018   9:21:37

                           ***********************       
                           *  WELCOME TO SIESTA  *       
                           ***********************       

reinit: Reading from ../batio3.fdf

reinit: -----------------------------------------------------------------------
reinit: System Name: Barium titanate (BaTiO3) cubic structure
reinit: -----------------------------------------------------------------------
reinit: System Label: batio3
reinit: -----------------------------------------------------------------------

initatom: Reading input for the pseudopotentials and atomic orbitals ----------
Species number:   1 Atomic number:   56 Label: Ba
Species number:   2 Atomic number:   22 Label: Ti
Species number:   3 Atomic number:    8 Label: O

Ground state valence configuration:   6s02
Reading pseudopotential information in formatted form from Ba.psf

Pseudopotential generated from a relativistic atomic calculation

Valence configuration for pseudopotential generation:
5s( 2.00) rc: 1.73
5p( 6.00) rc: 1.99
5d( 0.00) rc: 2.49
4f( 0.00) rc: 0.50
Ground state valence configuration:   4s02  3d02
Reading pseudopotential information in formatted form from Ti.psf

Pseudopotential generated from a relativistic atomic calculation

Valence configuration for pseudopotential generation:
3s( 2.00) rc: 1.30
3p( 6.00) rc: 1.30
3d( 2.00) rc: 1.30
4f( 0.00) rc: 1.98
Ground state valence configuration:   2s02  2p04
Reading pseudopotential information in formatted form from O.psf

Valence configuration for pseudopotential generation:
2s( 2.00) rc: 1.14
2p( 4.00) rc: 1.14
3d( 0.00) rc: 1.14
4f( 0.00) rc: 1.14
Semicore shell(s) with  8 electrons included in the valence for
Ba
Semicore shell(s) with  8 electrons included in the valence for
Ti
relmxkb: Read Max KB Ang. Momentum=    3 for species Ba
relmxkb: Read Max KB Ang. Momentum=    3 for species Ti
relmxkb: Read Max KB Ang. Momentum=    3 for species O

<basis_specs>
===============================================================================
Ba                   Z=  56    Mass=  137.33        Charge= 0.70000    
Lmxo=2 Lmxkb= 3    BasisType=split      Semic=T
L=0  Nsemic=1  Cnfigmx=6
          n=1  nzeta=1  polorb=0
            splnorm:   0.15000    
               vcte:    98.950    
               rinn:    5.9000    
               qcoe:    0.0000    
               qyuk:    0.0000    
               qwid:   0.10000E-01
                rcs:    6.3990    
            lambdas:    1.0000    
          n=2  nzeta=2  polorb=0
            splnorm:   0.15000    
               vcte:    97.950    
               rinn:    6.5000    
               qcoe:    0.0000    
               qyuk:    0.0000    
               qwid:   0.10000E-01
                rcs:    6.9996      5.9995    
            lambdas:    1.0000      1.0000    
L=1  Nsemic=1  Cnfigmx=6
          n=1  nzeta=1  polorb=0
            splnorm:   0.15000    
               vcte:    96.950    
               rinn:    6.0900    
               qcoe:    0.0000    
               qyuk:    0.0000    
               qwid:   0.10000E-01
                rcs:    6.5992    
            lambdas:    1.0000    
          n=2  nzeta=1  polorb=0
            splnorm:   0.15000    
               vcte:    94.960    
               rinn:    6.6000    
               qcoe:    0.0000    
               qyuk:    0.0000    
               qwid:   0.10000E-01
                rcs:    7.1000    
            lambdas:    1.0000    
L=2  Nsemic=0  Cnfigmx=5
          n=1  nzeta=1  polorb=0
            splnorm:   0.15000    
               vcte:    95.950    
               rinn:    6.6000    
               qcoe:    0.0000    
               qyuk:    0.0000    
               qwid:   0.10000E-01
                rcs:    7.1000    
            lambdas:    1.0000    
-------------------------------------------------------------------------------
L=0  Nkbl=2  erefs: 0.17977+309 0.17977+309
L=1  Nkbl=2  erefs: 0.17977+309 0.17977+309
L=2  Nkbl=1  erefs: 0.17977+309
L=3  Nkbl=1  erefs: 0.17977+309
===============================================================================
</basis_specs>

atom: Called for Ba                    (Z =  56)

read_vps: Pseudopotential generation method:
read_vps: ATM3      Troullier-Martins                       
Total valence charge:    8.00000

atom: Pseudopotential generated from an ionic configuration
atom: with net charge 2.00

xc_check: Exchange-correlation functional:
xc_check: Ceperley-Alder
V l=0 = -2*Zval/r beyond r=  3.0408
V l=1 = -2*Zval/r beyond r=  3.0408
V l=2 = -2*Zval/r beyond r=  3.0408
V l=3 = -2*Zval/r beyond r=  3.0408
All V_l potentials equal beyond r=  2.3980
This should be close to max(r_c) in ps generation
All pots = -2*Zval/r beyond r=  3.0408

VLOCAL1: 99.0% of the norm of Vloc inside      7.549 Ry
VLOCAL1: 99.9% of the norm of Vloc inside     17.204 Ry
atom: Maximum radius for 4*pi*r*r*local-pseudopot. charge    2.89253
atom: Maximum radius for r*vlocal+2*Zval:    2.55265
KBgen: More than one KB projector for l=  0
KBgen: ghost states analysis will be not performed
KBgen: More than one KB projector for l=  1
KBgen: ghost states analysis will be not performed
GHOST: No ghost state for L =  2
GHOST: No ghost state for L =  3

KBgen: Kleinman-Bylander projectors: 
   l= 0   rc=  3.079089   el= -3.386946   Ekb= 10.724425   kbcos=  0.241185
   l= 0   rc=  3.489071   el= -0.913761   Ekb= -2.933060   kbcos= -0.061684
   l= 1   rc=  3.157038   el= -2.283249   Ekb=  5.047295   kbcos=  0.299477
   l= 1   rc=  3.622397   el= -0.655160   Ekb= -1.272406   kbcos= -0.038998
   l= 2   rc=  3.318905   el= -0.958059   Ekb=  1.647301   kbcos=  0.327554
   l= 3   rc=  2.856602   el= -0.787057   Ekb=-60.816228   kbcos= -0.434775

KBgen: Total number of  Kleinman-Bylander projectors:   20
atom: -------------------------------------------------------------------------

atom: SANKEY-TYPE ORBITALS:
atom: Selected multiple-zeta basis: split     

atom: basis set generated (by rescaling the valence charge)
atom: for a cation of charge   0.7000

SPLIT: Orbitals with angular momentum L= 0

SPLIT: Basis orbitals for state 5s

   izeta = 1
                 lambda =    1.000000
                     rc =    6.518482
                 energy =   -2.111149
                kinetic =    1.019268
    potential(screened) =   -3.130417
       potential(ionic) =  -11.404495

SPLIT: Basis orbitals for state 6s

   izeta = 1
                 lambda =    1.000000
                     rc =    7.026172
                 energy =   -0.144977
                kinetic =    0.699691
    potential(screened) =   -0.844668
       potential(ionic) =   -5.701538

   izeta = 2
                 rmatch =    6.047476
              splitnorm =    0.877005
                 energy =    0.431199
                kinetic =    1.160814
    potential(screened) =   -0.729615
       potential(ionic) =   -6.764926

SPLIT: Orbitals with angular momentum L= 1

SPLIT: Basis orbitals for state 5p

   izeta = 1
                 lambda =    1.000000
                     rc =    6.683499
                 energy =   -1.104428
                kinetic =    1.361081
    potential(screened) =   -2.465510
       potential(ionic) =  -10.040308

SPLIT: Basis orbitals for state 6p

   izeta = 1
                 lambda =    1.000000
                     rc =    7.204041
                 energy =    0.107526
                kinetic =    0.941328
    potential(screened) =   -0.833802
       potential(ionic) =   -5.462010

SPLIT: Orbitals with angular momentum L= 2

SPLIT: Basis orbitals for state 5d

   izeta = 1
                 lambda =    1.000000
                     rc =    7.204041
                 energy =   -0.055970
                kinetic =    1.086999
    potential(screened) =   -1.142969
       potential(ionic) =   -6.717380
atom: Total number of Sankey-type orbitals: 14

atm_pop: Valence configuration (for local Pseudopot. screening):
 5s( 2.00) 6s( 2.00)                                                  
 5p( 6.00) 6p( 0.00)                                                  
 5d( 0.00)                                                            
Vna: chval, zval:   10.00000  10.00000

Vna:  Cut-off radius for the neutral-atom potential:   7.026172

atom: _________________________________________________________________________

<basis_specs>
===============================================================================
Ti                   Z=  22    Mass=  47.880        Charge=  1.9100    
Lmxo=2 Lmxkb= 3    BasisType=split      Semic=T
L=0  Nsemic=1  Cnfigmx=4
          n=1  nzeta=1  polorb=0
            splnorm:   0.15000    
               vcte:    93.950    
               rinn:    5.2000    
               qcoe:    0.0000    
               qyuk:    0.0000    
               qwid:   0.10000E-01
                rcs:    5.6995    
            lambdas:    1.0000    
          n=2  nzeta=2  polorb=0
            splnorm:   0.15000    
               vcte:    96.470    
               rinn:    5.6000    
               qcoe:    0.0000    
               qyuk:    0.0000    
               qwid:   0.10000E-01
                rcs:    6.1000      5.0994    
            lambdas:    1.0000      1.0000    
L=1  Nsemic=1  Cnfigmx=4
          n=1  nzeta=1  polorb=0
            splnorm:   0.15000    
               vcte:    95.470    
               rinn:    5.2000    
               qcoe:    0.0000    
               qyuk:    0.0000    
               qwid:   0.10000E-01
                rcs:    5.6994    
            lambdas:    1.0000    
          n=2  nzeta=1  polorb=0
            splnorm:   0.15000    
               vcte:   0.50000    
               rinn:    1.7700    
               qcoe:    0.0000    
               qyuk:    0.0000    
               qwid:   0.10000E-01
                rcs:    3.0537    
            lambdas:    1.0000    
L=2  Nsemic=0  Cnfigmx=3
          n=1  nzeta=2  polorb=0
            splnorm:   0.15000    
               vcte:    46.050    
               rinn:    4.9500    
               qcoe:    0.0000    
               qyuk:    0.0000    
               qwid:   0.10000E-01
                rcs:    5.9433      4.7001    
            lambdas:    1.0000      1.0000    
-------------------------------------------------------------------------------
L=0  Nkbl=2  erefs: 0.17977+309 0.17977+309
L=1  Nkbl=2  erefs: 0.17977+309 0.17977+309
L=2  Nkbl=1  erefs: 0.17977+309
L=3  Nkbl=1  erefs: 0.17977+309
===============================================================================
</basis_specs>

atom: Called for Ti                    (Z =  22)

read_vps: Pseudopotential generation method:
read_vps: ATM3      Troullier-Martins                       
Total valence charge:   10.00000

atom: Pseudopotential generated from an ionic configuration
atom: with net charge 2.00

xc_check: Exchange-correlation functional:
xc_check: Ceperley-Alder
V l=0 = -2*Zval/r beyond r=  1.3619
V l=1 = -2*Zval/r beyond r=  1.3450
V l=2 = -2*Zval/r beyond r=  1.3619
V l=3 = -2*Zval/r beyond r=  1.9570
All V_l potentials equal beyond r=  1.9570
This should be close to max(r_c) in ps generation
All pots = -2*Zval/r beyond r=  1.9570

VLOCAL1: 99.0% of the norm of Vloc inside     11.334 Ry
VLOCAL1: 99.9% of the norm of Vloc inside     25.831 Ry
atom: Maximum radius for 4*pi*r*r*local-pseudopot. charge    2.39028
atom: Maximum radius for r*vlocal+2*Zval:    2.08320
KBgen: More than one KB projector for l=  0
KBgen: ghost states analysis will be not performed
KBgen: More than one KB projector for l=  1
KBgen: ghost states analysis will be not performed
GHOST: No ghost state for L =  2
GHOST: No ghost state for L =  3

KBgen: Kleinman-Bylander projectors: 
   l= 0   rc=  2.135936   el= -5.743976   Ekb= -5.805318   kbcos= -0.455192
   l= 0   rc=  2.245453   el= -1.267778   Ekb= 19.285053   kbcos=  0.028076
   l= 1   rc=  2.135936   el= -4.022769   Ekb= -4.339349   kbcos= -0.763416
   l= 1   rc=  2.273699   el= -0.909433   Ekb= -2.226591   kbcos= -0.073996
   l= 2   rc=  2.109401   el= -1.465431   Ekb=-15.974261   kbcos= -0.485371
   l= 3   rc=  2.390280   el= -0.279946   Ekb= -1.793497   kbcos= -0.025582

KBgen: Total number of  Kleinman-Bylander projectors:   20
atom: -------------------------------------------------------------------------

atom: SANKEY-TYPE ORBITALS:
atom: Selected multiple-zeta basis: split     

atom: basis set generated (by rescaling the valence charge)
atom: for a cation of charge   1.9100

SPLIT: Orbitals with angular momentum L= 0

SPLIT: Basis orbitals for state 3s

   izeta = 1
                 lambda =    1.000000
                     rc =    5.806269
                 energy =   -5.597682
                kinetic =    2.110270
    potential(screened) =   -7.707952
       potential(ionic) =  -22.848412

SPLIT: Basis orbitals for state 4s

   izeta = 1
                 lambda =    1.000000
                     rc =    6.103968
                 energy =   -1.179234
                kinetic =    1.125882
    potential(screened) =   -2.305116
       potential(ionic) =  -10.096665

   izeta = 2
                 rmatch =    5.124001
              splitnorm =    0.277785
                 energy =   -1.061654
                kinetic =    1.729786
    potential(screened) =   -2.791440
       potential(ionic) =  -11.724056

SPLIT: Orbitals with angular momentum L= 1

SPLIT: Basis orbitals for state 3p

   izeta = 1
                 lambda =    1.000000
                     rc =    5.806269
                 energy =   -3.881705
                kinetic =    4.778405
    potential(screened) =   -8.660110
       potential(ionic) =  -23.263886

SPLIT: Basis orbitals for state 4p

   izeta = 1
                 lambda =    1.000000
                     rc =    3.107819
                 energy =    0.770505
                kinetic =    5.534371
    potential(screened) =   -4.763865
       potential(ionic) =  -15.502075

SPLIT: Orbitals with angular momentum L= 2

SPLIT: Basis orbitals for state 3d

   izeta = 1
                 lambda =    1.000000
                     rc =    5.953258
                 energy =   -1.340771
                kinetic =    7.362238
    potential(screened) =   -8.703009
       potential(ionic) =  -21.522617

   izeta = 2
                 rmatch =    4.753750
              splitnorm =    0.009122
                 energy =   -1.328728
* WARNING: effective split_norm is quite small. Orbitals will be very similar.
                kinetic =    7.784434
    potential(screened) =   -9.113162
       potential(ionic) =  -22.268396
atom: Total number of Sankey-type orbitals: 19

atm_pop: Valence configuration (for local Pseudopot. screening):
 3s( 2.00) 4s( 2.00)                                                  
 3p( 6.00) 4p( 0.00)                                                  
 3d( 2.00)                                                            
Vna: chval, zval:   12.00000  12.00000

Vna:  Cut-off radius for the neutral-atom potential:   6.103968

atom: _________________________________________________________________________

<basis_specs>
===============================================================================
O                    Z=   8    Mass=  16.000        Charge=-0.28000    
Lmxo=2 Lmxkb= 3    BasisType=split      Semic=F
L=0  Nsemic=0  Cnfigmx=2
          n=1  nzeta=2  polorb=0
            splnorm:   0.15000    
               vcte:    40.580    
               rinn:    3.9500    
               qcoe:    0.0000    
               qyuk:    0.0000    
               qwid:   0.10000E-01
                rcs:    4.9527      3.6033    
            lambdas:    1.0000      1.0000    
L=1  Nsemic=0  Cnfigmx=2
          n=1  nzeta=2  polorb=0
            splnorm:   0.15000    
               vcte:    36.780    
               rinn:    4.3500    
               qcoe:    0.0000    
               qyuk:    0.0000    
               qwid:   0.10000E-01
                rcs:    4.9999      3.8975    
            lambdas:    1.0000      1.0000    
L=2  Nsemic=0  Cnfigmx=3
          n=1  nzeta=1  polorb=0
            splnorm:   0.15000    
               vcte:    21.690    
               rinn:   0.93000    
               qcoe:    0.0000    
               qyuk:    0.0000    
               qwid:   0.10000E-01
                rcs:    2.7328    
            lambdas:    1.0000    
-------------------------------------------------------------------------------
L=0  Nkbl=1  erefs: 0.17977+309
L=1  Nkbl=1  erefs: 0.17977+309
L=2  Nkbl=1  erefs: 0.17977+309
L=3  Nkbl=1  erefs: 0.17977+309
===============================================================================
</basis_specs>

atom: Called for O                     (Z =   8)

read_vps: Pseudopotential generation method:
read_vps: ATM3      Troullier-Martins                       
Total valence charge:    6.00000

xc_check: Exchange-correlation functional:
xc_check: Ceperley-Alder
V l=0 = -2*Zval/r beyond r=  1.1278
V l=1 = -2*Zval/r beyond r=  1.1278
V l=2 = -2*Zval/r beyond r=  1.1278
V l=3 = -2*Zval/r beyond r=  1.1138
All V_l potentials equal beyond r=  1.1278
This should be close to max(r_c) in ps generation
All pots = -2*Zval/r beyond r=  1.1278

VLOCAL1: 99.0% of the norm of Vloc inside     34.126 Ry
VLOCAL1: 99.9% of the norm of Vloc inside     77.774 Ry
atom: Maximum radius for 4*pi*r*r*local-pseudopot. charge    1.37759
atom: Maximum radius for r*vlocal+2*Zval:    1.18566
GHOST: No ghost state for L =  0
GHOST: No ghost state for L =  1
GHOST: No ghost state for L =  2
GHOST: No ghost state for L =  3

KBgen: Kleinman-Bylander projectors: 
   l= 0   rc=  1.294105   el= -1.742414   Ekb=  9.135903   kbcos=  0.326910
   l= 1   rc=  1.294105   el= -0.676589   Ekb= -8.124878   kbcos= -0.395047
   l= 2   rc=  1.448233   el=  0.002386   Ekb= -2.039267   kbcos= -0.003484
   l= 3   rc=  1.561052   el=  0.003508   Ekb= -0.799141   kbcos= -0.000344

KBgen: Total number of  Kleinman-Bylander projectors:   16
atom: -------------------------------------------------------------------------

atom: SANKEY-TYPE ORBITALS:
atom: Selected multiple-zeta basis: split     

atom: basis set generated (by rescaling the valence charge)
atom: for an anion of charge  -0.2800

SPLIT: Orbitals with angular momentum L= 0

SPLIT: Basis orbitals for state 2s

   izeta = 1
                 lambda =    1.000000
                     rc =    4.930772
                 energy =   -1.739193
                kinetic =    1.445061
    potential(screened) =   -3.184254
       potential(ionic) =  -10.962557

   izeta = 2
                 rmatch =    3.652726
              splitnorm =    0.027759
                 energy =   -1.717885
* WARNING: effective split_norm is quite small. Orbitals will be very similar.
                kinetic =    1.725080
    potential(screened) =   -3.442965
       potential(ionic) =  -11.514570

SPLIT: Orbitals with angular momentum L= 1

SPLIT: Basis orbitals for state 2p

   izeta = 1
                 lambda =    1.000000
                     rc =    5.055603
                 energy =   -0.666651
                kinetic =    4.372891
    potential(screened) =   -5.039542
       potential(ionic) =  -12.474029

   izeta = 2
                 rmatch =    3.937239
              splitnorm =    0.041494
                 energy =   -0.646289
* WARNING: effective split_norm is quite small. Orbitals will be very similar.
                kinetic =    5.236356
    potential(screened) =   -5.882646
       potential(ionic) =  -13.808487

SPLIT: Orbitals with angular momentum L= 2

SPLIT: Basis orbitals for state 3d

   izeta = 1
                 lambda =    1.000000
                     rc =    2.774434
                 energy =    3.678926
                kinetic =    6.313626
    potential(screened) =   -2.634699
       potential(ionic) =   -9.713508
atom: Total number of Sankey-type orbitals: 13

atm_pop: Valence configuration (for local Pseudopot. screening):
 2s( 2.00)                                                            
 2p( 4.00)                                                            
 3d( 0.00)                                                            
Vna: chval, zval:    6.00000   6.00000

Vna:  Cut-off radius for the neutral-atom potential:   5.055603

atom: _________________________________________________________________________

prinput: Basis input ----------------------------------------------------------

PAO.BasisType split     

%block ChemicalSpeciesLabel
    1   56 Ba                      # Species index, atomic number, species label
    2   22 Ti                      # Species index, atomic number, species label
    3    8 O                       # Species index, atomic number, species label
%endblock ChemicalSpeciesLabel

%block PAO.Basis                 # Define Basis set
Ba                    5   0.700            # Label, l-shells, ionic net charge
 n=5   0   1                         # n, l, Nzeta 
   6.518   
   1.000   
 n=6   0   2                         # n, l, Nzeta 
   7.026      6.047   
   1.000      1.000   
 n=5   1   1                         # n, l, Nzeta 
   6.683   
   1.000   
 n=6   1   1                         # n, l, Nzeta 
   7.204   
   1.000   
 n=5   2   1                         # n, l, Nzeta 
   7.204   
   1.000   
Ti                    5   1.910            # Label, l-shells, ionic net charge
 n=3   0   1                         # n, l, Nzeta 
   5.806   
   1.000   
 n=4   0   2                         # n, l, Nzeta 
   6.104      5.124   
   1.000      1.000   
 n=3   1   1                         # n, l, Nzeta 
   5.806   
   1.000   
 n=4   1   1                         # n, l, Nzeta 
   3.108   
   1.000   
 n=3   2   2                         # n, l, Nzeta 
   5.953      4.754   
   1.000      1.000   
O                     3  -0.280            # Label, l-shells, ionic net charge
 n=2   0   2                         # n, l, Nzeta 
   4.931      3.653   
   1.000      1.000   
 n=2   1   2                         # n, l, Nzeta 
   5.056      3.937   
   1.000      1.000   
 n=3   2   1                         # n, l, Nzeta 
   2.774   
   1.000   
%endblock PAO.Basis

prinput: ----------------------------------------------------------------------

Dumping basis to NetCDF file Ba.ion.nc
Dumping basis to NetCDF file Ti.ion.nc
Dumping basis to NetCDF file O.ion.nc
coor:   Atomic-coordinates input format  =     Fractional

siesta: Atomic coordinates (Bohr) and species
siesta:      0.00000   0.00000   0.00000  1        1
siesta:      3.78500   3.78500   3.78500  2        2
siesta:      0.00000   3.78500   3.78500  3        3
siesta:      3.78500   0.00000   3.78500  3        4
siesta:      3.78500   3.78500   0.00000  3        5

siesta: System type = bulk      

initatomlists: Number of atoms, orbitals, and projectors:      5    72    88

siesta: ******************** Simulation parameters ****************************
siesta:
siesta: The following are some of the parameters of the simulation.
siesta: A complete list of the parameters used, including default values,
siesta: can be found in file out.fdf
siesta:
redata: Spin configuration                          = none
redata: Number of spin components                   = 1
redata: Time-Reversal Symmetry                      = T
redata: Spin-spiral                                 = F
redata: Long output                                 =   F
redata: Number of Atomic Species                    =        3
redata: Charge density info will appear in .RHO file
redata: Write Mulliken Pop.                         = NO
redata: Matel table size (NRTAB)                    =     1024
redata: Mesh Cutoff                                 =   200.0000 Ry
redata: Net charge of the system                    =     0.0000 |e|
redata: Min. number of SCF Iter                     =        0
redata: Max. number of SCF Iter                     =     1000
redata: SCF convergence failure will abort job
redata: SCF mix quantity                            = Hamiltonian
redata: Mix DM or H after convergence               =   F
redata: Recompute H after scf cycle                 =   F
redata: Mix DM in first SCF step                    =   T
redata: Write Pulay info on disk                    =   F
redata: New DM Mixing Weight                        =     0.0200
redata: New DM Occupancy tolerance                  = 0.000000000001
redata: Kick with linear mixing every               =       15 iterations
redata: DM Mixing Weight for Kicks                  =     1.0000
redata: Require Harris convergence for SCF          =   F
redata: Harris energy tolerance for SCF             =     0.000100 eV
redata: Require DM convergence for SCF              =   T
redata: DM tolerance for SCF                        =     0.000100
redata: Require EDM convergence for SCF             =   F
redata: EDM tolerance for SCF                       =     0.001000 eV
redata: Require H convergence for SCF               =   T
redata: Hamiltonian tolerance for SCF               =     0.001000 eV
redata: Require (free) Energy convergence for SCF   =   F
redata: (free) Energy tolerance for SCF             =     0.000100 eV
redata: Using Saved Data (generic)                  =   F
redata: Use continuation files for DM               =   F
redata: Neglect nonoverlap interactions             =   F
redata: Method of Calculation                       = Diagonalization
redata: Electronic Temperature                      =    99.9993 K
redata: Fix the spin of the system                  =   F
redata: Dynamics option                             = Single-point calculation
mix.SCF: Pulay mixing                            = Pulay
mix.SCF:    Variant                              = stable
mix.SCF:    History steps                        = 3
mix.SCF:    Linear mixing weight                 =     0.020000
mix.SCF:    Mixing weight                        =     0.020000
mix.SCF:    SVD condition                        = 0.1000E-07
mix.SCF:    Restart steps                        = 14
mix.SCF:    Restart save steps                   = 1
mix.SCF:    Number of mixing iterations          = 14
mix.SCF:    Following mixer                      = Linear-Kick
mix.SCF: Linear mixing                           = Linear-Kick
mix.SCF:    Mixing weight                        =     1.000000
mix.SCF:    Number of mixing iterations          = 1
mix.SCF:    Following mixer                      = Pulay
redata: Save all siesta data in one NC              =   F
redata: ***********************************************************************

%block SCF.Mixers
  Pulay
  Linear-Kick
%endblock SCF.Mixers

%block SCF.Mixer.Pulay
  # Mixing method
  method pulay
  variant stable

  # Mixing options
  weight 0.0200
  weight.linear 0.0200
  history 3
  restart 14
  restart.save 1

  # Continuation options
  iterations 14
  next Linear-Kick
%endblock SCF.Mixer.Pulay

%block SCF.Mixer.Linear-Kick
  # Mixing method
  method linear

  # Mixing options
  weight 1.0000

  # Continuation options
  iterations 1
  next Pulay
%endblock SCF.Mixer.Linear-Kick

DM_history_depth set to one: no extrapolation allowed by default for geometry relaxation
Size of DM history Fstack: 1
Total number of electrons:    40.000000
Total ionic charge:    40.000000

* ProcessorY, Blocksize:    2   9


* Orbital distribution balance (max,min):     9     9

 Kpoints in:           32 . Kpoints trimmed:           32

siesta: k-grid: Number of k-points =    32
siesta: k-grid: Cutoff (effective) =     8.012 Ang
siesta: k-grid: Supercell and displacements
siesta: k-grid:    4   0   0      0.500
siesta: k-grid:    0   4   0      0.500
siesta: k-grid:    0   0   4      0.500

diag: Algorithm                                     = D&C
diag: Parallel over k                               =   F
diag: Use parallel 2D distribution                  =   T
diag: Parallel block-size                           = 9
diag: Parallel distribution                         =     2 x     4
diag: Used triangular part                          = Lower
diag: Absolute tolerance                            =  0.100E-15
diag: Orthogonalization factor                      =  0.100E-05
diag: Memory factor                                 =  1.0000

superc: Internal auxiliary supercell:     5 x     5 x     5  =     125
superc: Number of atoms, orbitals, and projectors:    625   9000  11000


ts: **************************************************************
ts: Save H and S matrices                           =    F
ts: Save DM and EDM matrices                        =    F
ts: Fix Hartree potential                           =    F
ts: Only save the overlap matrix S                  =    F
ts: **************************************************************

************************ Begin: TS CHECKS AND WARNINGS ************************
************************ End: TS CHECKS AND WARNINGS **************************


                     ====================================
                        Single-point calculation
                     ====================================

outcoor: Atomic coordinates (fractional):                   
    0.00000000    0.00000000    0.00000000   1       1  Ba
    0.50000000    0.50000000    0.50000000   2       2  Ti
    0.00000000    0.50000000    0.50000000   3       3  O
    0.50000000    0.00000000    0.50000000   3       4  O
    0.50000000    0.50000000    0.00000000   3       5  O

superc: Internal auxiliary supercell:     5 x     5 x     5  =     125
superc: Number of atoms, orbitals, and projectors:    625   9000  11000

outcell: Unit cell vectors (Ang):
        4.005870    0.000000    0.000000
        0.000000    4.005870    0.000000
        0.000000    0.000000    4.005870

outcell: Cell vector modules (Ang)   :    4.005870    4.005870    4.005870
outcell: Cell angles (23,13,12) (deg):     90.0000     90.0000     90.0000
outcell: Cell volume (Ang**3)        :     64.2822
<dSpData1D:S at geom step 0
  <sparsity:sparsity for geom step 0
    nrows_g=72 nrows=9 sparsity=4.5104 nnzs=23382, refcount: 7>
  <dData1D:(new from dSpData1D) n=23382, refcount: 1>
refcount: 1>
new_DM -- step:     1
Initializing Density Matrix...
DM filled with atomic data:
<dSpData2D:DM initialized from atoms
  <sparsity:sparsity for geom step 0
    nrows_g=72 nrows=9 sparsity=4.5104 nnzs=23382, refcount: 8>
  <dData2D:DM n=23382 m=1, refcount: 1>
refcount: 1>
No. of atoms with KB's overlaping orbs in proc 0. Max # of overlaps:      39     502
New grid distribution:   1
           1       1:   18    1:    9    1:    5
           2       1:   18    1:    9    6:   10
           3       1:   18    1:    9   11:   14
           4       1:   18    1:    9   15:   18
           5       1:   18   10:   18    1:    5
           6       1:   18   10:   18    6:   10
           7       1:   18   10:   18   11:   14
           8       1:   18   10:   18   15:   18

InitMesh: MESH =    36 x    36 x    36 =       46656
InitMesh: (bp) =    18 x    18 x    18 =        5832
InitMesh: Mesh cutoff (required, used) =   200.000   223.210 Ry
ExtMesh (bp) on 0 =    90 x    81 x    77 =      561330
New grid distribution:   2
           1       1:    9   10:   18   10:   18
           2      10:   18    1:    9    1:    9
           3      10:   18    1:    9   10:   18
           4      10:   18   10:   18    1:    9
           5       1:    9    1:    9   10:   18
           6       1:    9    1:    9    1:    9
           7      10:   18   10:   18   10:   18
           8       1:    9   10:   18    1:    9
New grid distribution:   3
           1       1:    9   10:   18   10:   18
           2      10:   18    1:    9    1:    9
           3      10:   18    1:    9   10:   18
           4      10:   18   10:   18    1:    9
           5       1:    9    1:    9   10:   18
           6       1:    9    1:    9    1:    9
           7      10:   18   10:   18   10:   18
           8       1:    9   10:   18    1:    9
Setting up quadratic distribution...
ExtMesh (bp) on 0 =    81 x    81 x    81 =      531441
PhiOnMesh: Number of (b)points on node 0 =                  729
PhiOnMesh: nlist on node 0 =                77702

stepf: Fermi-Dirac step function

siesta: Program's energy decomposition (eV):
siesta: Ebs     =      -786.784253
siesta: Eions   =      5133.559120
siesta: Ena     =       829.873245
siesta: Ekin    =      1871.622792
siesta: Enl     =      -409.643080
siesta: Eso     =         0.000000
siesta: Eldau   =         0.000000
siesta: DEna    =      -181.352699
siesta: DUscf   =        63.058983
siesta: DUext   =         0.000000
siesta: Enegf   =         0.000000
siesta: Exc     =      -602.696239
siesta: eta*DQ  =         0.000000
siesta: Emadel  =         0.000000
siesta: Emeta   =         0.000000
siesta: Emolmec =         0.000000
siesta: Ekinion =         0.000000
siesta: Eharris =     -3470.095842
siesta: Etot    =     -3562.696117
siesta: FreeEng =     -3562.696117

        iscf     Eharris(eV)        E_KS(eV)     FreeEng(eV)     dDmax    Ef(eV) dHmax(eV)
   scf:    1    -3470.095842    -3562.696117    -3562.696117  1.961004 -9.677268 22.268877
timer: Routine,Calls,Time,% = IterSCF        1       1.045   3.03
   scf:    2    -3568.033579    -3565.383201    -3565.383201  0.056497 -9.995554 21.424915
   scf:    3    -3368.100603    -3537.425286    -3537.432714  3.164503 -6.851959 33.952702
   scf:    4    -3611.506036    -3596.922418    -3596.922418  1.510835 -7.692315  2.267689
   scf:    5    -3596.057282    -3597.030736    -3597.030736  0.332278 -7.177809  2.455310
   scf:    6    -3597.258903    -3597.150889    -3597.150889  0.035797 -7.236395  1.952276
   scf:    7    -3596.727157    -3597.227679    -3597.227679  0.210703 -7.493496  1.691781
   scf:    8    -3597.389651    -3597.395139    -3597.395139  0.122747 -7.328952  0.250023
   scf:    9    -3597.398024    -3597.397750    -3597.397750  0.013361 -7.342553  0.025349
   scf:   10    -3597.397771    -3597.397761    -3597.397761  0.000398 -7.342888  0.024698
   scf:   11    -3597.397939    -3597.397861    -3597.397861  0.005969 -7.349404  0.020947
   scf:   12    -3597.397864    -3597.397863    -3597.397863  0.000111 -7.349493  0.020726
   scf:   13    -3597.397897    -3597.397881    -3597.397881  0.002631 -7.350897  0.012852
   scf:   14    -3597.397883    -3597.397882    -3597.397882  0.000090 -7.350639  0.011915
mix: Pulay -- resetting history
mix: switching mixer --> Linear-Kick
   scf:   15    -3597.397885    -3597.397884    -3597.397884  0.000170 -7.349538  0.009332
mix: switching mixer --> Pulay
   scf:   16    -3597.397765    -3597.397850    -3597.397850  0.004455 -7.350536  0.021539
   scf:   17    -3597.397891    -3597.397889    -3597.397889  0.003463 -7.350644  0.008859
   scf:   18    -3597.397894    -3597.397892    -3597.397892  0.001032 -7.351813  0.000587
   scf:   19    -3597.397892    -3597.397892    -3597.397892  0.000019 -7.351814  0.000632

SCF Convergence by DM+H criterion
max |DM_out - DM_in|         :     0.0000186817
max |H_out - H_in|      (eV) :     0.0006324023
SCF cycle converged after 19 iterations

Using DM_out to compute the final energy and forces
No. of atoms with KB's overlaping orbs in proc 0. Max # of overlaps:      39     502

grdsam: Reading %block Grid.CellSampling
grdsam: Grid-cell sampling: 0 / 7
grdsam: Grid-cell sampling: 1 / 7
New grid distribution:   1
           1       1:   18    1:    9    1:    5
           2       1:   18    1:    9    6:   10
           3       1:   18    1:    9   11:   14
           4       1:   18    1:    9   15:   18
           5       1:   18   10:   18    1:    5
           6       1:   18   10:   18    6:   10
           7       1:   18   10:   18   11:   14
           8       1:   18   10:   18   15:   18

InitMesh: MESH =    36 x    36 x    36 =       46656
InitMesh: (bp) =    18 x    18 x    18 =        5832
InitMesh: Mesh cutoff (required, used) =   200.000   223.210 Ry
ExtMesh (bp) on 0 =    90 x    81 x    77 =      561330
New grid distribution:   2
           1       1:    9   10:   18   10:   18
           2      10:   18    1:    9    1:    9
           3      10:   18    1:    9   10:   18
           4      10:   18   10:   18    1:    9
           5       1:    9    1:    9   10:   18
           6       1:    9    1:    9    1:    9
           7      10:   18   10:   18   10:   18
           8       1:    9   10:   18    1:    9
New grid distribution:   3
           1       1:    9   10:   18   10:   18
           2      10:   18    1:    9    1:    9
           3      10:   18    1:    9   10:   18
           4      10:   18   10:   18    1:    9
           5       1:    9    1:    9   10:   18
           6       1:    9    1:    9    1:    9
           7      10:   18   10:   18   10:   18
           8       1:    9   10:   18    1:    9
Setting up quadratic distribution...
ExtMesh (bp) on 0 =    81 x    81 x    81 =      531441
PhiOnMesh: Number of (b)points on node 0 =                  729
PhiOnMesh: nlist on node 0 =                77266
grdsam: Grid-cell sampling: 2 / 7
New grid distribution:   1
           1       1:   18    1:    9    1:    5
           2       1:   18    1:    9    6:   10
           3       1:   18    1:    9   11:   14
           4       1:   18    1:    9   15:   18
           5       1:   18   10:   18    1:    5
           6       1:   18   10:   18    6:   10
           7       1:   18   10:   18   11:   14
           8       1:   18   10:   18   15:   18

InitMesh: MESH =    36 x    36 x    36 =       46656
InitMesh: (bp) =    18 x    18 x    18 =        5832
InitMesh: Mesh cutoff (required, used) =   200.000   223.210 Ry
ExtMesh (bp) on 0 =    90 x    81 x    77 =      561330
New grid distribution:   2
           1       1:    9   10:   18   10:   18
           2      10:   18    1:    9    1:    9
           3      10:   18    1:    9   10:   18
           4      10:   18   10:   18    1:    9
           5       1:    9    1:    9   10:   18
           6       1:    9    1:    9    1:    9
           7      10:   18   10:   18   10:   18
           8       1:    9   10:   18    1:    9
New grid distribution:   3
           1       1:    9   10:   18   10:   18
           2      10:   18    1:    9    1:    9
           3      10:   18    1:    9   10:   18
           4      10:   18   10:   18    1:    9
           5       1:    9    1:    9   10:   18
           6       1:    9    1:    9    1:    9
           7      10:   18   10:   18   10:   18
           8       1:    9   10:   18    1:    9
Setting up quadratic distribution...
ExtMesh (bp) on 0 =    81 x    81 x    81 =      531441
PhiOnMesh: Number of (b)points on node 0 =                  729
PhiOnMesh: nlist on node 0 =                78051
grdsam: Grid-cell sampling: 3 / 7
New grid distribution:   1
           1       1:   18    1:    9    1:    5
           2       1:   18    1:    9    6:   10
           3       1:   18    1:    9   11:   14
           4       1:   18    1:    9   15:   18
           5       1:   18   10:   18    1:    5
           6       1:   18   10:   18    6:   10
           7       1:   18   10:   18   11:   14
           8       1:   18   10:   18   15:   18

InitMesh: MESH =    36 x    36 x    36 =       46656
InitMesh: (bp) =    18 x    18 x    18 =        5832
InitMesh: Mesh cutoff (required, used) =   200.000   223.210 Ry
ExtMesh (bp) on 0 =    90 x    81 x    77 =      561330
New grid distribution:   2
           1       1:    9   10:   18   10:   18
           2      10:   18    1:    9    1:    9
           3      10:   18    1:    9   10:   18
           4      10:   18   10:   18    1:    9
           5       1:    9    1:    9   10:   18
           6       1:    9    1:    9    1:    9
           7      10:   18   10:   18   10:   18
           8       1:    9   10:   18    1:    9
New grid distribution:   3
           1       1:    9   10:   18   10:   18
           2      10:   18    1:    9    1:    9
           3      10:   18    1:    9   10:   18
           4      10:   18   10:   18    1:    9
           5       1:    9    1:    9   10:   18
           6       1:    9    1:    9    1:    9
           7      10:   18   10:   18   10:   18
           8       1:    9   10:   18    1:    9
Setting up quadratic distribution...
ExtMesh (bp) on 0 =    81 x    81 x    81 =      531441
PhiOnMesh: Number of (b)points on node 0 =                  729
PhiOnMesh: nlist on node 0 =                78051
grdsam: Grid-cell sampling: 4 / 7
New grid distribution:   1
           1       1:   18    1:    9    1:    5
           2       1:   18    1:    9    6:   10
           3       1:   18    1:    9   11:   14
           4       1:   18    1:    9   15:   18
           5       1:   18   10:   18    1:    5
           6       1:   18   10:   18    6:   10
           7       1:   18   10:   18   11:   14
           8       1:   18   10:   18   15:   18

InitMesh: MESH =    36 x    36 x    36 =       46656
InitMesh: (bp) =    18 x    18 x    18 =        5832
InitMesh: Mesh cutoff (required, used) =   200.000   223.210 Ry
ExtMesh (bp) on 0 =    90 x    81 x    77 =      561330
New grid distribution:   2
           1       1:    9   10:   18   10:   18
           2      10:   18    1:    9    1:    9
           3      10:   18    1:    9   10:   18
           4      10:   18   10:   18    1:    9
           5       1:    9    1:    9   10:   18
           6       1:    9    1:    9    1:    9
           7      10:   18   10:   18   10:   18
           8       1:    9   10:   18    1:    9
New grid distribution:   3
           1       1:    9   10:   18   10:   18
           2      10:   18    1:    9    1:    9
           3      10:   18    1:    9   10:   18
           4      10:   18   10:   18    1:    9
           5       1:    9    1:    9   10:   18
           6       1:    9    1:    9    1:    9
           7      10:   18   10:   18   10:   18
           8       1:    9   10:   18    1:    9
Setting up quadratic distribution...
ExtMesh (bp) on 0 =    81 x    81 x    81 =      531441
PhiOnMesh: Number of (b)points on node 0 =                  729
PhiOnMesh: nlist on node 0 =                78409
grdsam: Grid-cell sampling: 5 / 7
New grid distribution:   1
           1       1:   18    1:    9    1:    5
           2       1:   18    1:    9    6:   10
           3       1:   18    1:    9   11:   14
           4       1:   18    1:    9   15:   18
           5       1:   18   10:   18    1:    5
           6       1:   18   10:   18    6:   10
           7       1:   18   10:   18   11:   14
           8       1:   18   10:   18   15:   18

InitMesh: MESH =    36 x    36 x    36 =       46656
InitMesh: (bp) =    18 x    18 x    18 =        5832
InitMesh: Mesh cutoff (required, used) =   200.000   223.210 Ry
ExtMesh (bp) on 0 =    90 x    81 x    77 =      561330
New grid distribution:   2
           1       1:    9   10:   18   10:   18
           2      10:   18    1:    9    1:    9
           3      10:   18    1:    9   10:   18
           4      10:   18   10:   18    1:    9
           5       1:    9    1:    9   10:   18
           6       1:    9    1:    9    1:    9
           7      10:   18   10:   18   10:   18
           8       1:    9   10:   18    1:    9
New grid distribution:   3
           1       1:    9   10:   18   10:   18
           2      10:   18    1:    9    1:    9
           3      10:   18    1:    9   10:   18
           4      10:   18   10:   18    1:    9
           5       1:    9    1:    9   10:   18
           6       1:    9    1:    9    1:    9
           7      10:   18   10:   18   10:   18
           8       1:    9   10:   18    1:    9
Setting up quadratic distribution...
ExtMesh (bp) on 0 =    81 x    81 x    81 =      531441
PhiOnMesh: Number of (b)points on node 0 =                  729
PhiOnMesh: nlist on node 0 =                77762
grdsam: Grid-cell sampling: 6 / 7
New grid distribution:   1
           1       1:   18    1:    9    1:    5
           2       1:   18    1:    9    6:   10
           3       1:   18    1:    9   11:   14
           4       1:   18    1:    9   15:   18
           5       1:   18   10:   18    1:    5
           6       1:   18   10:   18    6:   10
           7       1:   18   10:   18   11:   14
           8       1:   18   10:   18   15:   18

InitMesh: MESH =    36 x    36 x    36 =       46656
InitMesh: (bp) =    18 x    18 x    18 =        5832
InitMesh: Mesh cutoff (required, used) =   200.000   223.210 Ry
ExtMesh (bp) on 0 =    90 x    81 x    77 =      561330
New grid distribution:   2
           1       1:    9   10:   18   10:   18
           2      10:   18    1:    9    1:    9
           3      10:   18    1:    9   10:   18
           4      10:   18   10:   18    1:    9
           5       1:    9    1:    9   10:   18
           6       1:    9    1:    9    1:    9
           7      10:   18   10:   18   10:   18
           8       1:    9   10:   18    1:    9
New grid distribution:   3
           1       1:    9   10:   18   10:   18
           2      10:   18    1:    9    1:    9
           3      10:   18    1:    9   10:   18
           4      10:   18   10:   18    1:    9
           5       1:    9    1:    9   10:   18
           6       1:    9    1:    9    1:    9
           7      10:   18   10:   18   10:   18
           8       1:    9   10:   18    1:    9
Setting up quadratic distribution...
ExtMesh (bp) on 0 =    81 x    81 x    81 =      531441
PhiOnMesh: Number of (b)points on node 0 =                  729
PhiOnMesh: nlist on node 0 =                77762
grdsam: Grid-cell sampling: 7 / 7
New grid distribution:   1
           1       1:   18    1:    9    1:    5
           2       1:   18    1:    9    6:   10
           3       1:   18    1:    9   11:   14
           4       1:   18    1:    9   15:   18
           5       1:   18   10:   18    1:    5
           6       1:   18   10:   18    6:   10
           7       1:   18   10:   18   11:   14
           8       1:   18   10:   18   15:   18

InitMesh: MESH =    36 x    36 x    36 =       46656
InitMesh: (bp) =    18 x    18 x    18 =        5832
InitMesh: Mesh cutoff (required, used) =   200.000   223.210 Ry
ExtMesh (bp) on 0 =    90 x    81 x    77 =      561330
New grid distribution:   2
           1       1:    9   10:   18   10:   18
           2      10:   18    1:    9    1:    9
           3      10:   18    1:    9   10:   18
           4      10:   18   10:   18    1:    9
           5       1:    9    1:    9   10:   18
           6       1:    9    1:    9    1:    9
           7      10:   18   10:   18   10:   18
           8       1:    9   10:   18    1:    9
New grid distribution:   3
           1       1:    9   10:   18   10:   18
           2      10:   18    1:    9    1:    9
           3      10:   18    1:    9   10:   18
           4      10:   18   10:   18    1:    9
           5       1:    9    1:    9   10:   18
           6       1:    9    1:    9    1:    9
           7      10:   18   10:   18   10:   18
           8       1:    9   10:   18    1:    9
Setting up quadratic distribution...
ExtMesh (bp) on 0 =    81 x    81 x    81 =      531441
PhiOnMesh: Number of (b)points on node 0 =                  729
PhiOnMesh: nlist on node 0 =                77962

grdsam: Max (sampled force - avg. force):   0.000000   0.000000  -0.000000 eV/Ang
grdsam: Standard deviation of sampled force:   0.000000   0.000000   0.000000 eV/Ang
grdsam: Max (sampled stress - avg. stress):   1.956268 kbar

New grid distribution:   1
           1       1:   18    1:    9    1:    5
           2       1:   18    1:    9    6:   10
           3       1:   18    1:    9   11:   14
           4       1:   18    1:    9   15:   18
           5       1:   18   10:   18    1:    5
           6       1:   18   10:   18    6:   10
           7       1:   18   10:   18   11:   14
           8       1:   18   10:   18   15:   18

InitMesh: MESH =    36 x    36 x    36 =       46656
InitMesh: (bp) =    18 x    18 x    18 =        5832
InitMesh: Mesh cutoff (required, used) =   200.000   223.210 Ry
ExtMesh (bp) on 0 =    90 x    81 x    77 =      561330
New grid distribution:   2
           1       1:    9   10:   18   10:   18
           2      10:   18    1:    9    1:    9
           3      10:   18    1:    9   10:   18
           4      10:   18   10:   18    1:    9
           5       1:    9    1:    9   10:   18
           6       1:    9    1:    9    1:    9
           7      10:   18   10:   18   10:   18
           8       1:    9   10:   18    1:    9
New grid distribution:   3
           1       1:    9   10:   18   10:   18
           2      10:   18    1:    9    1:    9
           3      10:   18    1:    9   10:   18
           4      10:   18   10:   18    1:    9
           5       1:    9    1:    9   10:   18
           6       1:    9    1:    9    1:    9
           7      10:   18   10:   18   10:   18
           8       1:    9   10:   18    1:    9
Setting up quadratic distribution...
ExtMesh (bp) on 0 =    81 x    81 x    81 =      531441
PhiOnMesh: Number of (b)points on node 0 =                  729
PhiOnMesh: nlist on node 0 =                77702

siesta: E_KS(eV) =            -3597.3882

siesta: E_KS - E_eggbox =     -3597.3882

siesta: Atomic forces (eV/Ang):
     1    0.000000    0.000000    0.000000
     2   -0.000000   -0.000000   -0.000000
     3   -0.000000   -0.000000   -0.000000
     4   -0.000000    0.000000   -0.000000
     5   -0.000000    0.000000    0.000000
----------------------------------------
   Tot   -0.000000    0.000000   -0.000000
----------------------------------------
   Max    0.000000
   Res    0.000000    sqrt( Sum f_i^2 / 3N )
----------------------------------------
   Max    0.000000    constrained

Stress-tensor-Voigt (kbar):       82.89       82.89       82.89       -0.00        0.00       -0.00
(Free)E + p*V (eV/cell)    -3600.7137
Target enthalpy (eV/cell)    -3597.3882

siesta: Program's energy decomposition (eV):
siesta: Ebs     =      -879.231452
siesta: Eions   =      5133.559120
siesta: Ena     =       829.873245
siesta: Ekin    =      1757.749970
siesta: Enl     =      -412.203403
siesta: Eso     =         0.000000
siesta: Eldau   =         0.000000
siesta: DEna    =       -68.368076
siesta: DUscf   =         7.538531
siesta: DUext   =         0.000000
siesta: Enegf   =         0.000000
siesta: Exc     =      -578.419364
siesta: eta*DQ  =         0.000000
siesta: Emadel  =         0.000000
siesta: Emeta   =         0.000000
siesta: Emolmec =         0.000000
siesta: Ekinion =         0.000000
siesta: Eharris =     -3597.397892
siesta: Etot    =     -3597.388218
siesta: FreeEng =     -3597.388218

siesta: Final energy (eV):
siesta:  Band Struct. =    -879.231452
siesta:       Kinetic =    1757.749970
siesta:       Hartree =     809.826419
siesta:       Eldau   =       0.000000
siesta:       Eso     =       0.000000
siesta:    Ext. field =       0.000000
siesta:       Enegf   =       0.000000
siesta:   Exch.-corr. =    -578.419364
siesta:  Ion-electron =   -3498.710822
siesta:       Ion-ion =   -2087.834421
siesta:       Ekinion =       0.000000
siesta:         Total =   -3597.388218
siesta:         Fermi =      -7.351814

siesta: Stress tensor (static) (eV/Ang**3):
siesta:     0.051733   -0.000000   -0.000000
siesta:    -0.000000    0.051733   -0.000000
siesta:    -0.000000    0.000000    0.051733

siesta: Cell volume =         64.282168 Ang**3

siesta: Pressure (static):
siesta:                Solid            Molecule  Units
siesta:          -0.00056344         -0.00056344  Ry/Bohr**3
siesta:          -0.05173335         -0.05173335  eV/Ang**3
siesta:         -82.88686326        -82.88686326  kBar
(Free)E+ p_basis*V_orbitals  =       -3594.185183
(Free)Eharris+ p_basis*V_orbitals  =       -3594.194857
>> End of run:   5-NOV-2018   9:22:35
Job completed
