Siesta Version:                                        siesta-3.1
Architecture  : ifort11-macosx64
Compiler flags: ifort  -O2
SERIAL version

* Running in serial mode
>> Start of run:  10-JUN-2011  14:24:48

                           ***********************       
                           *  WELCOME TO SIESTA  *       
                           ***********************       

reinit: Reading from standard input
************************** Dump of input data file ****************************
SystemName benzene
SystemLabel benzene
NumberOfSpecies 2
NumberOfAtoms   12
%block ChemicalSpeciesLabel
1    1 H
2    6 C
%endblock ChemicalSpeciesLabel
%block PS.Lmax
  C 2
%endblock PS.Lmax
AtomicCoordinatesFormat NotScaledCartesianAng
ZM.ForceTolLength 0.04 eV/Ang
ZM.ForceTolAngle 0.0001 eV/deg
ZM.MaxDisplLength 0.1 Ang
ZM.MaxDisplAngle 20.0 deg
%block Zmatrix
molecule
      2 0 0 0 xm1 ym1 zm1 0 0 0
      2 1 0 0 CC 90.0 60.0 0 0 0
      2 2 1 0 CC CCC 90.0 0 0 0
      2 3 2 1 CC CCC 0.0 0 0 0
      2 4 3 2 CC CCC 0.0 0 0 0
      2 5 4 3 CC CCC 0.0 0 0 0
      1 1 2 3 CH CCH 180.0 0 0 0
      1 2 1 7 CH CCH 0.0 0 0 0
      1 3 2 8 CH CCH 0.0 0 0 0
      1 4 3 9 CH CCH 0.0 0 0 0
      1 5 4 10 CH CCH 0.0 0 0 0
      1 6 5 11 CH CCH 0.0 0 0 0
constants
        ym1 3.68
variables
        zm1 6.9032294
        CC 1.417
        CH 1.112
        CCH 120.0
        CCC 120.0
constraints
        xm1 CC -1.0 3.903229
%endblock Zmatrix
ZM.UnitsLength Ang
ZM.UnitsAngle deg
MD.TypeOfRun CG
MD.NumCGsteps 4
MeshCutoff 120 Ry
PAO.EnergyShift 0.01 Ry
DM.NumberPulay 5
DM.MixingWeight 0.3
************************** End of input data file *****************************

reinit: -----------------------------------------------------------------------
reinit: System Name: benzene
reinit: -----------------------------------------------------------------------
reinit: System Label: benzene                                                     
reinit: -----------------------------------------------------------------------

initatom: Reading input for the pseudopotentials and atomic orbitals ----------
 Species number:            1  Label: H Atomic number:           1
 Species number:            2  Label: C Atomic number:           6
Ground state valence configuration:   1s01
Reading pseudopotential information in formatted form from H.psf

Valence configuration for pseudopotential generation:
1s( 1.00) rc: 1.25
2p( 0.00) rc: 1.25
3d( 0.00) rc: 1.25
4f( 0.00) rc: 1.25
Ground state valence configuration:   2s02  2p02
Reading pseudopotential information in formatted form from C.psf

Valence configuration for pseudopotential generation:
2s( 2.00) rc: 1.49
2p( 2.00) rc: 1.52
3d( 0.00) rc: 1.58
relmxkb: Read Max KB Ang. Momentum=    2 for species C
For H, standard SIESTA heuristics set lmxkb to 2
 (one more than the basis l, including polarization orbitals).
Use PS.lmax or PS.KBprojectors blocks to override.

<basis_specs>
===============================================================================
H                    Z=   1    Mass=  1.0100        Charge= 0.17977+309
Lmxo=0 Lmxkb=2     BasisType=split      Semic=F
L=0  Nsemic=0  Cnfigmx=1
          n=1  nzeta=2  polorb=1
            splnorm:   0.15000    
               vcte:    0.0000    
               rinn:    0.0000    
                rcs:    0.0000      0.0000    
            lambdas:    1.0000      1.0000    
-------------------------------------------------------------------------------
L=0  Nkbl=1  erefs: 0.17977+309
L=1  Nkbl=1  erefs: 0.17977+309
L=2  Nkbl=1  erefs: 0.17977+309
===============================================================================
</basis_specs>

atom: Called for H                     (Z =   1)

read_vps: Pseudopotential generation method:
read_vps: ATM3      Troullier-Martins                       
Total valence charge:    1.00000

xc_check: Exchange-correlation functional:
xc_check: Ceperley-Alder
V l=0 = -2*Zval/r beyond r=  1.2343
V l=1 = -2*Zval/r beyond r=  1.2189
V l=2 = -2*Zval/r beyond r=  1.2189
All V_l potentials equal beyond r=  1.2343
This should be close to max(r_c) in ps generation
All pots = -2*Zval/r beyond r=  1.2343

VLOCAL1: 99.0% of the norm of Vloc inside     28.493 Ry
VLOCAL1: 99.9% of the norm of Vloc inside     64.935 Ry
atom: Maximum radius for 4*pi*r*r*local-pseudopot. charge    1.45251
atom: Maximum radius for r*vlocal+2*Zval:    1.21892
GHOST: No ghost state for L =  0
GHOST: No ghost state for L =  1
GHOST: No ghost state for L =  2

KBgen: Kleinman-Bylander projectors: 
   l= 0   rc=  1.364359   el= -0.467325   Ekb= -2.005361   kbcos= -0.336422
   l= 1   rc=  1.434438   el=  0.001430   Ekb= -0.501708   kbcos= -0.021697
   l= 2   rc=  1.470814   el=  0.002365   Ekb= -0.190555   kbcos= -0.002281

KBgen: Total number of  Kleinman-Bylander projectors:    9
atom: -------------------------------------------------------------------------

atom: SANKEY-TYPE ORBITALS:
atom: Selected multiple-zeta basis: split     

SPLIT: Orbitals with angular momentum L= 0

SPLIT: Basis orbitals for state 1s

SPLIT: PAO cut-off radius determined from an
SPLIT: energy shift=  0.010000 Ry

   izeta = 1
                 lambda =    1.000000
                     rc =    5.336316
                 energy =   -0.457946
                kinetic =    0.886710
    potential(screened) =   -1.344656
       potential(ionic) =   -1.876618

   izeta = 2
                 rmatch =    4.002347
              splitnorm =    0.150000
                 energy =   -0.355904
                kinetic =    1.439488
    potential(screened) =   -1.795392
       potential(ionic) =   -2.364690

POLgen: Perturbative polarization orbital with L=  1

POLgen: Polarization orbital for state 1s

   izeta = 1
                     rc =    5.336316
                 energy =    0.616245
                kinetic =    1.262150
    potential(screened) =   -0.645906
       potential(ionic) =   -1.116519
atom: Total number of Sankey-type orbitals:  5

atm_pop: Valence configuration (for local Pseudopot. screening):
 1s( 1.00)                                                            
Vna: chval, zval:    1.00000   1.00000

Vna:  Cut-off radius for the neutral-atom potential:   5.336316

atom: _________________________________________________________________________

<basis_specs>
===============================================================================
C                    Z=   6    Mass=  12.010        Charge= 0.17977+309
Lmxo=1 Lmxkb=2     BasisType=split      Semic=F
L=0  Nsemic=0  Cnfigmx=2
          n=1  nzeta=2  polorb=0
            splnorm:   0.15000    
               vcte:    0.0000    
               rinn:    0.0000    
                rcs:    0.0000      0.0000    
            lambdas:    1.0000      1.0000    
L=1  Nsemic=0  Cnfigmx=2
          n=1  nzeta=2  polorb=1
            splnorm:   0.15000    
               vcte:    0.0000    
               rinn:    0.0000    
                rcs:    0.0000      0.0000    
            lambdas:    1.0000      1.0000    
-------------------------------------------------------------------------------
L=0  Nkbl=1  erefs: 0.17977+309
L=1  Nkbl=1  erefs: 0.17977+309
L=2  Nkbl=1  erefs: 0.17977+309
===============================================================================
</basis_specs>

atom: Called for C                     (Z =   6)

read_vps: Pseudopotential generation method:
read_vps: ATM3      Troullier-Martins                       
Total valence charge:    4.00000

xc_check: Exchange-correlation functional:
xc_check: Ceperley-Alder
V l=0 = -2*Zval/r beyond r=  1.4666
V l=1 = -2*Zval/r beyond r=  1.5038
V l=2 = -2*Zval/r beyond r=  1.5612
All V_l potentials equal beyond r=  1.5612
This should be close to max(r_c) in ps generation
All pots = -2*Zval/r beyond r=  1.5612

VLOCAL1: 99.0% of the norm of Vloc inside     17.809 Ry
VLOCAL1: 99.9% of the norm of Vloc inside     40.586 Ry
atom: Maximum radius for 4*pi*r*r*local-pseudopot. charge    1.88329
atom: Maximum radius for r*vlocal+2*Zval:    1.62091
GHOST: No ghost state for L =  0
GHOST: No ghost state for L =  1
GHOST: No ghost state for L =  2

KBgen: Kleinman-Bylander projectors: 
   l= 0   rc=  1.747182   el= -1.001947   Ekb=  5.181700   kbcos=  0.300603
   l= 1   rc=  1.747182   el= -0.398598   Ekb= -4.328763   kbcos= -0.367074
   l= 2   rc=  1.955272   el=  0.002326   Ekb= -1.016175   kbcos= -0.009979

KBgen: Total number of  Kleinman-Bylander projectors:    9
atom: -------------------------------------------------------------------------

atom: SANKEY-TYPE ORBITALS:
atom: Selected multiple-zeta basis: split     

SPLIT: Orbitals with angular momentum L= 0

SPLIT: Basis orbitals for state 2s

SPLIT: PAO cut-off radius determined from an
SPLIT: energy shift=  0.010000 Ry

   izeta = 1
                 lambda =    1.000000
                     rc =    4.518360
                 energy =   -0.992087
                kinetic =    0.856755
    potential(screened) =   -1.848843
       potential(ionic) =   -5.436865

   izeta = 2
                 rmatch =    3.475094
              splitnorm =    0.150000
                 energy =   -0.853594
                kinetic =    1.308346
    potential(screened) =   -2.161940
       potential(ionic) =   -6.002045

SPLIT: Orbitals with angular momentum L= 1

SPLIT: Basis orbitals for state 2p

SPLIT: PAO cut-off radius determined from an
SPLIT: energy shift=  0.010000 Ry

   izeta = 1
                 lambda =    1.000000
                     rc =    5.382558
                 energy =   -0.388318
                kinetic =    2.456485
    potential(screened) =   -2.844804
       potential(ionic) =   -6.312273

   izeta = 2
                 rmatch =    3.607901
              splitnorm =    0.150000
                 energy =   -0.250655
                kinetic =    3.636791
    potential(screened) =   -3.887446
       potential(ionic) =   -7.736789

POLgen: Perturbative polarization orbital with L=  2

POLgen: Polarization orbital for state 2p

   izeta = 1
                     rc =    5.382558
                 energy =    1.148490
                kinetic =    2.389078
    potential(screened) =   -1.240587
       potential(ionic) =   -4.090578
atom: Total number of Sankey-type orbitals: 13

atm_pop: Valence configuration (for local Pseudopot. screening):
 2s( 2.00)                                                            
 2p( 2.00)                                                            
Vna: chval, zval:    4.00000   4.00000

Vna:  Cut-off radius for the neutral-atom potential:   5.382558

atom: _________________________________________________________________________

prinput: Basis input ----------------------------------------------------------

PAO.BasisType split     

%block ChemicalSpeciesLabel
    1    1 H                       # Species index, atomic number, species label
    2    6 C                       # Species index, atomic number, species label
%endblock ChemicalSpeciesLabel

%block PAO.Basis                 # Define Basis set
H                     1                    # Species label, number of l-shells
 n=1   0   2 P   1                   # n, l, Nzeta, Polarization, NzetaPol
   5.336      4.002   
   1.000      1.000   
C                     2                    # Species label, number of l-shells
 n=2   0   2                         # n, l, Nzeta 
   4.518      3.475   
   1.000      1.000   
 n=2   1   2 P   1                   # n, l, Nzeta, Polarization, NzetaPol
   5.383      3.608   
   1.000      1.000   
%endblock PAO.Basis

prinput: ----------------------------------------------------------------------

coor:   Atomic-coordinates input format  =     Cartesian coordinates
coor:                                          (in Angstroms)
read_Zmatrix: Length units: Ang       
read_Zmatrix: Angle  units: deg       
read_Zmatrix: Force tolerances:
read_Zmatrix:    for lengths =     0.001556 Ry/Bohr
read_Zmatrix:    for angles  =     0.000421 Ry/rad

read_Zmatrix: Maximum displacements:
read_Zmatrix:    for lengths =     0.188973 Bohr
read_Zmatrix:    for angles  =     0.349066 rad
%block Zmatrix
molecule
      2 0 0 0 xm1 ym1 zm1 0 0 0
      2 1 0 0 CC 90.0 60.0 0 0 0
      2 2 1 0 CC CCC 90.0 0 0 0
      2 3 2 1 CC CCC 0.0 0 0 0
      2 4 3 2 CC CCC 0.0 0 0 0
      2 5 4 3 CC CCC 0.0 0 0 0
      1 1 2 3 CH CCH 180.0 0 0 0
      1 2 1 7 CH CCH 0.0 0 0 0
      1 3 2 8 CH CCH 0.0 0 0 0
      1 4 3 9 CH CCH 0.0 0 0 0
      1 5 4 10 CH CCH 0.0 0 0 0
      1 6 5 11 CH CCH 0.0 0 0 0
constants
        ym1 3.68
variables
        zm1 6.9032294
        CC 1.417
        CH 1.112
        CCH 120.0
        CCC 120.0
constraints
        xm1 CC -1.0 3.903229
%endblock Zmatrix

zmatrix: Z-matrix coordinates: (Ang ; deg )
zmatrix: (Fractional coordinates have been converted to cartesian)
molecule    1 (    12 atoms)
      2.48622900      3.68000000      6.90322940
      1.41700000     90.00000000     60.00000000
      1.41700000    120.00000000     90.00000000
      1.41700000    120.00000000      0.00000000
      1.41700000    120.00000000      0.00000000
      1.41700000    120.00000000      0.00000000
      1.11200000    120.00000000    180.00000000
      1.11200000    120.00000000      0.00000000
      1.11200000    120.00000000      0.00000000
      1.11200000    120.00000000      0.00000000
      1.11200000    120.00000000      0.00000000
      1.11200000    120.00000000      0.00000000


Z-matrix Symbol Section -------
Variables
 xm1          2.48622900000000     
 zm1          6.90322940000000     
 ccc          120.000000000000     
 ch           1.11200000000000     
 cch          120.000000000000     
Constants
 ym1          3.68000000000000     
 cc           1.41700000000000     
------------ End of Z-matrix Information


siesta: Atomic coordinates (Bohr) and species
siesta:      4.69829   6.95419  13.04522  2        1
siesta:      6.03717   9.27319  13.04522  2        2
siesta:      8.71491   9.27319  13.04522  2        3
siesta:     10.05378   6.95419  13.04522  2        4
siesta:      8.71491   4.63520  13.04522  2        5
siesta:      6.03717   4.63520  13.04522  2        6
siesta:      2.59692   6.95419  13.04522  1        7
siesta:      4.98648  11.09303  13.04522  1        8
siesta:      9.76560  11.09303  13.04522  1        9
siesta:     12.15516   6.95419  13.04522  1       10
siesta:      9.76560   2.81536  13.04522  1       11
siesta:      4.98648   2.81536  13.04522  1       12

siesta: Automatic unit cell vectors (Ang):
siesta:   11.776283    0.000000    0.000000
siesta:    0.000000   11.030875    0.000000
siesta:    0.000000    0.000000    6.266317

siesta: System type = molecule  

initatomlists: Number of atoms, orbitals, and projectors:     12   108   108

siesta: ******************** Simulation parameters ****************************
siesta:
siesta: The following are some of the parameters of the simulation.
siesta: A complete list of the parameters used, including default values,
siesta: can be found in file out.fdf
siesta:
redata: Non-Collinear-spin run           =     F
redata: SpinPolarized (Up/Down) run      =     F
redata: Number of spin components        =     1
redata: Long output                      =     F
redata: Number of Atomic Species         =        2
redata: Charge density info will appear in .RHO file
redata: Write Mulliken Pop.              =     NO
redata: Mesh Cutoff                      =   120.0000  Ry
redata: Net charge of the system         =     0.0000 |e|
redata: Max. number of SCF Iter          =       50
redata: Performing Pulay mixing using    =     5 iterations
redata: Mix DM in first SCF step ?       =     F
redata: Write Pulay info on disk?        =     F
redata: Discard 1st Pulay DM after  kick =     F
redata: New DM Mixing Weight             =     0.3000
redata: New DM Occupancy tolerance       = 0.000000000001
redata: No kicks to SCF
redata: DM Mixing Weight for Kicks       =     0.5000
redata: DM Tolerance for SCF             =     0.000100
redata: Require Energy convergence for SCF =     F
redata: DM Energy tolerance for SCF      =     0.000100 eV
redata: Require Harris convergence for SCF =     F
redata: DM Harris energy tolerance for SCF =     0.000100 eV
redata: Using Saved Data (generic)   =     F
redata: Use continuation files for DM    =     F
redata: Neglect nonoverlap interactions  =     F
redata: Method of Calculation            =     Diagonalization
redata: Divide and Conquer               =     T
redata: Electronic Temperature           =     0.0019  Ry
redata: Fix the spin of the system       =     F
redata: Dynamics option                  =     CG coord. optimization
redata: Variable cell                    =     F
redata: Use continuation files for CG    =     F
redata: Max atomic displ per move        =     0.2000  Bohr
redata: Maximum number of CG moves       =        4
redata: Force tolerance                  =     0.0016  Ry/Bohr
redata: ***********************************************************************
Total number of electrons:    30.000000
Total ionic charge:    30.000000
 Kpoints in:            1 . Kpoints trimmed:            1

siesta: k-grid: Number of k-points =     1
siesta: k-grid: Cutoff (effective) =     3.133 Ang
siesta: k-grid: Supercell and displacements
siesta: k-grid:    1   0   0      0.000
siesta: k-grid:    0   1   0      0.000
siesta: k-grid:    0   0   1      0.000

* Maximum dynamic memory allocated =     2 MB

siesta:                 ==============================
                            Begin CG move =      0

zmatrix: Z-matrix coordinates: (Ang ; deg )
zmatrix: (Fractional coordinates have been converted to cartesian)
molecule    1 (    12 atoms)
      2.48622900      3.68000000      6.90322940
      1.41700000     90.00000000     60.00000000
      1.41700000    120.00000000     90.00000000
      1.41700000    120.00000000      0.00000000
      1.41700000    120.00000000      0.00000000
      1.41700000    120.00000000      0.00000000
      1.11200000    120.00000000    180.00000000
      1.11200000    120.00000000      0.00000000
      1.11200000    120.00000000      0.00000000
      1.11200000    120.00000000      0.00000000
      1.11200000    120.00000000      0.00000000
      1.11200000    120.00000000      0.00000000


Z-matrix Symbol Section -------
Variables
 xm1          2.48622900000000     
 zm1          6.90322940000000     
 ccc          120.000000000000     
 ch           1.11200000000000     
 cch          120.000000000000     
Constants
 ym1          3.68000000000000     
 cc           1.41700000000000     
------------ End of Z-matrix Information

                        ==============================

outcell: Unit cell vectors (Ang):
       11.776283    0.000000    0.000000
        0.000000   11.030875    0.000000
        0.000000    0.000000    6.266317

outcell: Cell vector modules (Ang)   :   11.776283   11.030875    6.266317
outcell: Cell angles (23,13,12) (deg):     90.0000     90.0000     90.0000
outcell: Cell volume (Ang**3)        :    814.0116
New_DM. Step:     1
Initializing Density Matrix...

InitMesh: MESH =    80 x    80 x    48 =      307200
InitMesh: Mesh cutoff (required, used) =   120.000   127.546 Ry

* Maximum dynamic memory allocated =    31 MB

stepf: Fermi-Dirac step function

siesta: Program's energy decomposition (eV):
siesta: Ebs     =      -450.457661
siesta: Eions   =      1613.953835
siesta: Ena     =       340.728180
siesta: Ekin    =       613.333480
siesta: Enl     =       -32.517563
siesta: DEna    =        -0.000047
siesta: DUscf   =         0.000000
siesta: DUext   =         0.000000
siesta: Exc     =      -317.548210
siesta: eta*DQ  =         0.000000
siesta: Emadel  =         0.000000
siesta: Emeta   =         0.000000
siesta: Emolmec =         0.000000
siesta: Ekinion =         0.000000
siesta: Eharris =     -1027.088434
siesta: Etot    =     -1009.957996
siesta: FreeEng =     -1009.957996

siesta: iscf   Eharris(eV)      E_KS(eV)   FreeEng(eV)   dDmax  Ef(eV)
siesta:    1    -1027.0884    -1009.9580    -1009.9580  1.9554 -7.7325
timer: Routine,Calls,Time,% = IterSCF        1       2.790  77.69
elaps: Routine,Calls,Wall,% = IterSCF        1       2.790  77.67
siesta:    2    -1026.4534    -1021.6424    -1021.6424  0.2841 -1.6491
siesta:    3    -1023.9298    -1021.4695    -1021.4695  0.1891 -4.0581
siesta:    4    -1023.8477    -1023.1469    -1023.1469  0.0366 -4.5113
siesta:    5    -1023.8416    -1023.6519    -1023.6519  0.0079 -4.5244
siesta:    6    -1023.8404    -1023.7696    -1023.7696  0.0025 -4.4711
siesta:    7    -1023.8402    -1023.8308    -1023.8308  0.0003 -4.4698
siesta:    8    -1023.8402    -1023.8335    -1023.8335  0.0002 -4.4729
siesta:    9    -1023.8402    -1023.8393    -1023.8393  0.0001 -4.4730

siesta: E_KS(eV) =            -1023.8398

siesta: E_KS - E_eggbox =     -1023.8398

zmatrix: Atomic forces (eV/Ang ; eV/deg )
zmatrix: (No information if symbols are used)
molecule    1 (    12 atoms)
     1    0.000000    0.000000    0.000000
     2    0.000000    0.000000    0.000000
     3    0.000000    0.000000    0.000000
     4    0.000000    0.000000    0.000000
     5    0.000000    0.000000    0.000000
     6    0.000000    0.000000    0.000000
     7    0.000000    0.000000    0.000000
     8    0.000000    0.000000    0.000000
     9    0.000000    0.000000    0.000000
    10    0.000000    0.000000    0.000000
    11    0.000000    0.000000    0.000000
    12    0.000000    0.000000    0.000000


Variable forces (eV/Ang ; eV/deg )
 xm1          5.55848801499734     
 zm1         3.208947223139576E-003
 ccc        -0.119227326561127     
 ch         -0.813489904935049     
 cch         5.900232876112381E-005

siesta: Atomic forces (eV/Ang):
----------------------------------------
   Tot   -0.000730   -0.010406    0.003209
----------------------------------------
   Max    0.792056
   Res    0.327572    sqrt( Sum f_i^2 / 3N )
----------------------------------------
   Max    0.792056    constrained

Stress-tensor-Voigt (kbar):        8.66        8.62       -0.06        0.00        0.00        0.00
(Free)E + p*V (eV/cell)    -1026.7559
Target enthalpy (eV/cell)    -1023.8398

* Maximum dynamic memory allocated =    31 MB

siesta:                 ==============================
                            Begin CG move =      1

zmatrix: Z-matrix coordinates: (Ang ; deg )
zmatrix: (Fractional coordinates have been converted to cartesian)
molecule    1 (    12 atoms)
      2.56576569      3.68000000      6.90327532
      1.33746331     90.00000000     60.00000000
      1.33746331    100.00000000     90.00000000
      1.33746331    100.00000000      0.00000000
      1.33746331    100.00000000      0.00000000
      1.33746331    100.00000000      0.00000000
      1.10035973    120.00989745    180.00000000
      1.10035973    120.00989745      0.00000000
      1.10035973    120.00989745      0.00000000
      1.10035973    120.00989745      0.00000000
      1.10035973    120.00989745      0.00000000
      1.10035973    120.00989745      0.00000000


Z-matrix Symbol Section -------
Variables
 xm1          2.56576569091495     
 zm1          6.90327531699087     
 ccc          99.9999999954336     
 ch           1.10035973110733     
 cch          120.009897450606     
Constants
 ym1          3.68000000000000     
 cc           1.33746330908505     
------------ End of Z-matrix Information

                        ==============================

outcell: Unit cell vectors (Ang):
       11.776283    0.000000    0.000000
        0.000000   11.030875    0.000000
        0.000000    0.000000    6.266317

outcell: Cell vector modules (Ang)   :   11.776283   11.030875    6.266317
outcell: Cell angles (23,13,12) (deg):     90.0000     90.0000     90.0000
outcell: Cell volume (Ang**3)        :    814.0116
New_DM. Step:     2
Re-using DM from previous geometry...
Re-using DM without extrapolation (not allowed)
Density Matrix sparsity pattern changed.

siesta: iscf   Eharris(eV)      E_KS(eV)   FreeEng(eV)   dDmax  Ef(eV)
siesta:    1     -937.7894     -858.4020     -858.4020  5.1622 -6.3190
siesta:    2    -1138.4094     -777.6061     -777.6061  8.6803  1.9936
siesta:    3     -879.3619     -842.7068     -842.7072  1.1701 -5.2021
siesta:    4     -873.1550     -843.5866     -843.5866  0.8478 -4.0646
siesta:    5     -872.8052     -847.3979     -847.3998  0.7323 -3.9403
siesta:    6     -872.1137     -860.4370     -860.4382  0.9095 -3.3291
siesta:    7     -871.9075     -863.2372     -863.2604  0.3975 -3.1539
siesta:    8     -871.8460     -871.0828     -871.0924  0.1208 -2.8932
siesta:    9     -871.8376     -871.5531     -871.5809  0.0516 -2.9060
siesta:   10     -871.8357     -871.7328     -871.7635  0.0255 -2.9141
siesta:   11     -871.8357     -871.7612     -871.7935  0.0200 -2.9455
siesta:   12     -871.8353     -871.8250     -871.8562  0.0026 -2.9447
siesta:   13     -871.8356     -871.8220     -871.8536  0.0025 -2.9406
siesta:   14     -871.8354     -871.8426     -871.8739  0.0008 -2.9395
siesta:   15     -871.8354     -871.8400     -871.8714  0.0002 -2.9395
siesta:   16     -871.8353     -871.8363     -871.8677  0.0001 -2.9398

siesta: E_KS(eV) =             -871.8357

zmatrix: Atomic forces (eV/Ang ; eV/deg )
zmatrix: (No information if symbols are used)
molecule    1 (    12 atoms)
     1    0.000000    0.000000    0.000000
     2    0.000000    0.000000    0.000000
     3    0.000000    0.000000    0.000000
     4    0.000000    0.000000    0.000000
     5    0.000000    0.000000    0.000000
     6    0.000000    0.000000    0.000000
     7    0.000000    0.000000    0.000000
     8    0.000000    0.000000    0.000000
     9    0.000000    0.000000    0.000000
    10    0.000000    0.000000    0.000000
    11    0.000000    0.000000    0.000000
    12    0.000000    0.000000    0.000000


Variable forces (eV/Ang ; eV/deg )
 xm1         -435.390203371494     
 zm1         6.993835220837017E-003
 ccc          19.6152594177994     
 ch           32.6692340452653     
 cch         3.161266827969947E-002

siesta: Atomic forces (eV/Ang):
----------------------------------------
   Tot   -0.009661    0.050037    0.006994
----------------------------------------
   Max  229.870043
   Res   70.667947    sqrt( Sum f_i^2 / 3N )
----------------------------------------
   Max  229.870043    constrained

Stress-tensor-Voigt (kbar):     -387.24     -829.59       -0.04      -73.27        0.00        0.00
(Free)E + p*V (eV/cell)     -665.7863
Target enthalpy (eV/cell)     -871.8672

* Maximum dynamic memory allocated =    31 MB

siesta:                 ==============================
                            Begin CG move =      2

zmatrix: Z-matrix coordinates: (Ang ; deg )
zmatrix: (Fractional coordinates have been converted to cartesian)
molecule    1 (    12 atoms)
      2.48675341      3.68000000      6.90322970
      1.41647559     90.00000000     60.00000000
      1.41647559    119.86813367     90.00000000
      1.41647559    119.86813367      0.00000000
      1.41647559    119.86813367      0.00000000
      1.41647559    119.86813367      0.00000000
      1.11192325    120.00006526    180.00000000
      1.11192325    120.00006526      0.00000000
      1.11192325    120.00006526      0.00000000
      1.11192325    120.00006526      0.00000000
      1.11192325    120.00006526      0.00000000
      1.11192325    120.00006526      0.00000000


Z-matrix Symbol Section -------
Variables
 xm1          2.48675341059079     
 zm1          6.90322970274526     
 ccc          119.868133666392     
 ch           1.11192325202096     
 cch          120.000065257026     
Constants
 ym1          3.68000000000000     
 cc           1.41647558940921     
------------ End of Z-matrix Information

                        ==============================

outcell: Unit cell vectors (Ang):
       11.776283    0.000000    0.000000
        0.000000   11.030875    0.000000
        0.000000    0.000000    6.266317

outcell: Cell vector modules (Ang)   :   11.776283   11.030875    6.266317
outcell: Cell angles (23,13,12) (deg):     90.0000     90.0000     90.0000
outcell: Cell volume (Ang**3)        :    814.0116
New_DM. Step:     3
Re-using DM from previous geometry...
Re-using DM without extrapolation (not allowed)
Density Matrix sparsity pattern changed.

siesta: iscf   Eharris(eV)      E_KS(eV)   FreeEng(eV)   dDmax  Ef(eV)
siesta:    1    -1088.3477     -923.6231     -923.6546  2.5986 -2.6988
siesta:    2    -1603.2847     -836.4299     -836.4300  3.8492 -6.0318
siesta:    3    -1027.2881     -935.1409     -935.1409  1.4076 -6.0864
siesta:    4    -1027.6713     -954.0569     -954.0569  0.6947 -4.3962
siesta:    5    -1024.8196     -972.1633     -972.1633  0.4060 -5.3339
siesta:    6    -1024.3997     -981.7088     -981.7088  0.3404 -5.1501
siesta:    7    -1023.9608    -1003.6715    -1003.6715  0.1646 -4.7903
siesta:    8    -1023.8577    -1023.9637    -1023.9637  0.0164 -4.4762
siesta:    9    -1023.8528    -1024.0528    -1024.0528  0.0084 -4.4707
siesta:   10    -1023.8522    -1023.9606    -1023.9606  0.0038 -4.4672
siesta:   11    -1023.8521    -1023.9378    -1023.9378  0.0023 -4.4681
siesta:   12    -1023.8521    -1023.8696    -1023.8696  0.0006 -4.4705
siesta:   13    -1023.8521    -1023.8550    -1023.8550  0.0001 -4.4704
siesta:   14    -1023.8521    -1023.8544    -1023.8544  0.0001 -4.4701

siesta: E_KS(eV) =            -1023.8532

zmatrix: Atomic forces (eV/Ang ; eV/deg )
zmatrix: (No information if symbols are used)
molecule    1 (    12 atoms)
     1    0.000000    0.000000    0.000000
     2    0.000000    0.000000    0.000000
     3    0.000000    0.000000    0.000000
     4    0.000000    0.000000    0.000000
     5    0.000000    0.000000    0.000000
     6    0.000000    0.000000    0.000000
     7    0.000000    0.000000    0.000000
     8    0.000000    0.000000    0.000000
     9    0.000000    0.000000    0.000000
    10    0.000000    0.000000    0.000000
    11    0.000000    0.000000    0.000000
    12    0.000000    0.000000    0.000000


Variable forces (eV/Ang ; eV/deg )
 xm1          4.59959455539330     
 zm1         2.224269745541107E-003
 ccc        -1.903116162086534E-002
 ch         -0.789486807935528     
 cch        -8.154337117916696E-004

siesta: Atomic forces (eV/Ang):
----------------------------------------
   Tot    0.008329   -0.006013    0.002224
----------------------------------------
   Max    0.773238
   Res    0.304375    sqrt( Sum f_i^2 / 3N )
----------------------------------------
   Max    0.773238    constrained

Stress-tensor-Voigt (kbar):        7.85        6.69       -0.05        0.93        0.00        0.00
(Free)E + p*V (eV/cell)    -1026.3070
Target enthalpy (eV/cell)    -1023.8532

cgvc_zmatrix: Finished line minimization    1.  Mean atomic displacement =    0.0007

* Maximum dynamic memory allocated =    31 MB

siesta:                 ==============================
                            Begin CG move =      3

zmatrix: Z-matrix coordinates: (Ang ; deg )
zmatrix: (Fractional coordinates have been converted to cartesian)
molecule    1 (    12 atoms)
      2.48805679      3.68000000      6.90323031
      1.41517221     90.00000000     60.00000000
      1.41517221    119.85652190     90.00000000
      1.41517221    119.85652190      0.00000000
      1.41517221    119.85652190      0.00000000
      1.41517221    119.85652190      0.00000000
      1.11169310    119.99679627    180.00000000
      1.11169310    119.99679627      0.00000000
      1.11169310    119.99679627      0.00000000
      1.11169310    119.99679627      0.00000000
      1.11169310    119.99679627      0.00000000
      1.11169310    119.99679627      0.00000000


Z-matrix Symbol Section -------
Variables
 xm1          2.48805679108583     
 zm1          6.90323030919942     
 ccc          119.856521897001     
 ch           1.11169310475343     
 cch          119.996796268164     
Constants
 ym1          3.68000000000000     
 cc           1.41517220891417     
------------ End of Z-matrix Information

                        ==============================

outcell: Unit cell vectors (Ang):
       11.776283    0.000000    0.000000
        0.000000   11.030875    0.000000
        0.000000    0.000000    6.266317

outcell: Cell vector modules (Ang)   :   11.776283   11.030875    6.266317
outcell: Cell angles (23,13,12) (deg):     90.0000     90.0000     90.0000
outcell: Cell volume (Ang**3)        :    814.0116
New_DM. Step:     4
Re-using DM from previous geometry...
Re-using DM without extrapolation (not allowed)
Density Matrix sparsity pattern changed.

siesta: iscf   Eharris(eV)      E_KS(eV)   FreeEng(eV)   dDmax  Ef(eV)
siesta:    1    -1023.8581    -1023.9045    -1023.9045  0.0019 -4.4647
siesta:    2    -1023.8582    -1023.8580    -1023.8580  0.0013 -4.4753
siesta:    3    -1023.8581    -1023.8683    -1023.8683  0.0003 -4.4689
siesta:    4    -1023.8581    -1023.8614    -1023.8614  0.0001 -4.4682
siesta:    5    -1023.8581    -1023.8594    -1023.8594  0.0001 -4.4677

siesta: E_KS(eV) =            -1023.8581

zmatrix: Atomic forces (eV/Ang ; eV/deg )
zmatrix: (No information if symbols are used)
molecule    1 (    12 atoms)
     1    0.000000    0.000000    0.000000
     2    0.000000    0.000000    0.000000
     3    0.000000    0.000000    0.000000
     4    0.000000    0.000000    0.000000
     5    0.000000    0.000000    0.000000
     6    0.000000    0.000000    0.000000
     7    0.000000    0.000000    0.000000
     8    0.000000    0.000000    0.000000
     9    0.000000    0.000000    0.000000
    10    0.000000    0.000000    0.000000
    11    0.000000    0.000000    0.000000
    12    0.000000    0.000000    0.000000


Variable forces (eV/Ang ; eV/deg )
 xm1          4.15977757705974     
 zm1         2.410652139822327E-003
 ccc        -1.969750822774647E-003
 ch         -0.740813505324006     
 cch        -8.379392611754457E-004

siesta: Atomic forces (eV/Ang):
----------------------------------------
   Tot    0.008910   -0.002000    0.002411
----------------------------------------
   Max    0.720714
   Res    0.289477    sqrt( Sum f_i^2 / 3N )
----------------------------------------
   Max    0.720714    constrained

Stress-tensor-Voigt (kbar):        7.23        5.96       -0.05        1.02        0.00        0.00
(Free)E + p*V (eV/cell)    -1026.0828
Target enthalpy (eV/cell)    -1023.8581

* Maximum dynamic memory allocated =    31 MB

siesta:                 ==============================
                            Begin CG move =      4

zmatrix: Z-matrix coordinates: (Ang ; deg )
zmatrix: (Fractional coordinates have been converted to cartesian)
molecule    1 (    12 atoms)
      2.49014220      3.68000000      6.90323128
      1.41308680     90.00000000     60.00000000
      1.41308680    119.83794307     90.00000000
      1.41308680    119.83794307      0.00000000
      1.41308680    119.83794307      0.00000000
      1.41308680    119.83794307      0.00000000
      1.11132487    119.99156589    180.00000000
      1.11132487    119.99156589      0.00000000
      1.11132487    119.99156589      0.00000000
      1.11132487    119.99156589      0.00000000
      1.11132487    119.99156589      0.00000000
      1.11132487    119.99156589      0.00000000


Z-matrix Symbol Section -------
Variables
 xm1          2.49014219987788     
 zm1          6.90323127952608     
 ccc          119.837943065974     
 ch           1.11132486912538     
 cch          119.991565885985     
Constants
 ym1          3.68000000000000     
 cc           1.41308680012212     
------------ End of Z-matrix Information

                        ==============================

outcell: Unit cell vectors (Ang):
       11.776283    0.000000    0.000000
        0.000000   11.030875    0.000000
        0.000000    0.000000    6.266317

outcell: Cell vector modules (Ang)   :   11.776283   11.030875    6.266317
outcell: Cell angles (23,13,12) (deg):     90.0000     90.0000     90.0000
outcell: Cell volume (Ang**3)        :    814.0116
New_DM. Step:     5
Re-using DM from previous geometry...
Re-using DM without extrapolation (not allowed)

siesta: iscf   Eharris(eV)      E_KS(eV)   FreeEng(eV)   dDmax  Ef(eV)
siesta:    1    -1023.8661    -1023.9391    -1023.9391  0.0030 -4.4597
siesta:    2    -1023.8663    -1023.8659    -1023.8659  0.0020 -4.4764
siesta:    3    -1023.8660    -1023.8816    -1023.8816  0.0004 -4.4664
siesta:    4    -1023.8660    -1023.8712    -1023.8712  0.0002 -4.4653
siesta:    5    -1023.8660    -1023.8679    -1023.8679  0.0001 -4.4644

siesta: E_KS(eV) =            -1023.8661

zmatrix: Atomic forces (eV/Ang ; eV/deg )
zmatrix: (No information if symbols are used)
molecule    1 (    12 atoms)
     1    0.000000    0.000000    0.000000
     2    0.000000    0.000000    0.000000
     3    0.000000    0.000000    0.000000
     4    0.000000    0.000000    0.000000
     5    0.000000    0.000000    0.000000
     6    0.000000    0.000000    0.000000
     7    0.000000    0.000000    0.000000
     8    0.000000    0.000000    0.000000
     9    0.000000    0.000000    0.000000
    10    0.000000    0.000000    0.000000
    11    0.000000    0.000000    0.000000
    12    0.000000    0.000000    0.000000


Variable forces (eV/Ang ; eV/deg )
 xm1          3.45351295958928     
 zm1         2.155027999655521E-003
 ccc         2.564752664287478E-002
 ch         -0.660649109789629     
 cch        -8.919066617629801E-004

siesta: Atomic forces (eV/Ang):
----------------------------------------
   Tot    0.006306   -0.001298    0.002155
----------------------------------------
   Max    0.689593
   Res    0.271868    sqrt( Sum f_i^2 / 3N )
----------------------------------------
   Max    0.689593    constrained

Stress-tensor-Voigt (kbar):        6.24        4.78       -0.05        1.16        0.00        0.00
(Free)E + p*V (eV/cell)    -1025.7241
Target enthalpy (eV/cell)    -1023.8661

* Maximum dynamic memory allocated =    31 MB

outcoor: Final (unrelaxed) atomic coordinates (Ang):        
    2.49347885    3.68000000    6.90323283   2       1  C
    3.19835393    4.90087944    6.90323283   2       2  C
    4.60809618    4.89616067    6.90323283   2       3  C
    5.30478235    3.67058984    6.90323283   2       4  C
    4.58768327    2.45685001    6.90323283   2       5  C
    3.17805948    2.47572456    6.90323283   2       6  C
    1.38274321    3.68032574    6.90323283   1       7  H
    2.64270401    5.86264186    6.90323283   1       8  H
    5.16639913    5.85638543    6.90323283   1       9  H
    6.41549528    3.66347982    6.90323283   1      10  H
    5.13364757    1.48955648    6.90323283   1      11  H
    2.61014251    1.52115446    6.90323283   1      12  H

zmatrix: Z-matrix coordinates: (Ang ; deg )
zmatrix: (Fractional coordinates have been converted to cartesian)
molecule    1 (    12 atoms)
      2.49347885      3.68000000      6.90323283
      1.40975015     90.00000000     60.00000000
      1.40975015    119.80821694     90.00000000
      1.40975015    119.80821694      0.00000000
      1.40975015    119.80821694      0.00000000
      1.40975015    119.80821694      0.00000000
      1.11073569    119.98319727    180.00000000
      1.11073569    119.98319727      0.00000000
      1.11073569    119.98319727      0.00000000
      1.11073569    119.98319727      0.00000000
      1.11073569    119.98319727      0.00000000
      1.11073569    119.98319727      0.00000000


Z-matrix Symbol Section -------
Variables
 xm1          2.49347885394516     
 zm1          6.90323283204873     
 ccc          119.808216936331     
 ch           1.11073569212051     
 cch          119.983197274498     
Constants
 ym1          3.68000000000000     
 cc           1.40975014605484     
------------ End of Z-matrix Information


siesta: Program's energy decomposition (eV):
siesta: Ebs     =      -358.403839
siesta: Eions   =      1613.953835
siesta: Ena     =       340.410978
siesta: Ekin    =       732.370619
siesta: Enl     =      -119.339391
siesta: DEna    =       -33.919144
siesta: DUscf   =         3.791754
siesta: DUext   =         0.000000
siesta: Exc     =      -333.227107
siesta: eta*DQ  =         0.000000
siesta: Emadel  =         0.000000
siesta: Emeta   =         0.000000
siesta: Emolmec =         0.000000
siesta: Ekinion =         0.000000
siesta: Eharris =     -1023.866009
siesta: Etot    =     -1023.866127
siesta: FreeEng =     -1023.866127

siesta: Final energy (eV):
siesta:  Band Struct. =    -358.403839
siesta:       Kinetic =     732.370619
siesta:       Hartree =    1842.458778
siesta:    Ext. field =       0.000000
siesta:   Exch.-corr. =    -333.227107
siesta:  Ion-electron =   -4340.163717
siesta:       Ion-ion =    1074.695300
siesta:       Ekinion =       0.000000
siesta:         Total =   -1023.866127

siesta: Atomic forces (eV/Ang):
siesta:      1    0.156158    0.689593    0.000186
siesta:      2    0.382803   -0.483881    0.000473
siesta:      3   -0.397989   -0.506621    0.000306
siesta:      4   -0.637724   -0.049489    0.000213
siesta:      5   -0.205860    0.578239    0.000261
siesta:      6    0.673952   -0.222031   -0.000172
siesta:      7    0.105975    0.034090   -0.000391
siesta:      8    0.064111   -0.095461   -0.000256
siesta:      9   -0.049023   -0.101203    0.000138
siesta:     10   -0.114465   -0.008825   -0.000305
siesta:     11   -0.056504    0.097196    0.000938
siesta:     12    0.084872    0.067095    0.000763
siesta: ----------------------------------------
siesta:    Tot    0.006306   -0.001298    0.002155

siesta: Stress tensor (static) (eV/Ang**3):
siesta:     0.003894    0.000723    0.000000
siesta:     0.000722    0.002986    0.000000
siesta:     0.000000    0.000000   -0.000033

siesta: Cell volume =        814.011582 Ang**3

siesta: Pressure (static):
siesta:                Solid            Molecule  Units
siesta:          -0.00002486          0.00000018  Ry/Bohr**3
siesta:          -0.00228244          0.00001657  eV/Ang**3
siesta:          -3.65690588          0.02655109  kBar
(Free)E+ p_basis*V_orbitals  =       -1019.862933
(Free)Eharris+ p_basis*V_orbitals  =       -1019.860999

siesta: Electric dipole (a.u.)  =   -0.001082   -0.000262   -0.000068
siesta: Electric dipole (Debye) =   -0.002751   -0.000665   -0.000172

* Maximum dynamic memory allocated : Node    0 =    31 MB

* Maximum memory occured during poison                        

timer: CPU execution times:
timer:  Routine       Calls   Time/call    Tot.time        %
timer:  siesta            1      58.687      58.687   100.00
timer:  Setup             1       0.340       0.340     0.58
timer:  bands             1       0.000       0.000     0.00
timer:  writewave         1       0.001       0.001     0.00
timer:  KSV_init          1       0.000       0.000     0.00
timer:  IterMD            5      11.668      58.339    99.41
timer:  hsparse           5       0.012       0.061     0.10
timer:  overlap           5       0.099       0.493     0.84
timer:  IterSCF          49       0.975      47.751    81.37
timer:  kinefsm          10       0.054       0.544     0.93
timer:  nlefsm           10       0.164       1.637     2.79
timer:  DHSCF            54       1.016      54.880    93.51
timer:  DHSCF1            1       0.040       0.040     0.07
timer:  DHSCF2            5       0.858       4.290     7.31
timer:  REORD           442       0.001       0.377     0.64
timer:  POISON           59       0.043       2.509     4.27
timer:  DHSCF3           54       0.838      45.256    77.11
timer:  rhoofd           54       0.381      20.554    35.02
timer:  cellXC           54       0.066       3.567     6.08
timer:  vmat             54       0.327      17.655    30.08
timer:  MolMec           10       0.000       0.000     0.00
timer:  diagon           49       0.006       0.300     0.51
timer:  r-eigvec         49       0.005       0.268     0.46
timer:  r-buildHS        49       0.000       0.005     0.01
timer:  rdiag            49       0.005       0.263     0.45
timer:  rdiag1           49       0.000       0.007     0.01
timer:  rdiag2           49       0.001       0.031     0.05
timer:  rdiag3           49       0.004       0.211     0.36
timer:  rdiag4           49       0.000       0.010     0.02
timer:  r-buildD         49       0.001       0.027     0.05
timer:  DHSCF4            5       1.043       5.213     8.88
timer:  dfscf             5       0.921       4.606     7.85
timer:  overfsm           5       0.013       0.066     0.11
timer:  optical           1       0.000       0.000     0.00
  

elaps: ELAPSED times:
elaps:  Routine       Calls   Time/call    Tot.time        %
elaps:  siesta            1      59.190      59.190   100.00
elaps:  Setup             1       0.341       0.341     0.58
elaps:  bands             1       0.000       0.000     0.00
elaps:  writewave         1       0.001       0.001     0.00
elaps:  KSV_init          1       0.000       0.000     0.00
elaps:  IterMD            5      11.768      58.841    99.41
elaps:  hsparse           5       0.012       0.061     0.10
elaps:  overlap           5       0.099       0.493     0.83
elaps:  IterSCF          49       0.985      48.246    81.51
elaps:  kinefsm          10       0.054       0.545     0.92
elaps:  nlefsm           10       0.164       1.637     2.77
elaps:  DHSCF            54       1.017      54.918    92.78
elaps:  DHSCF1            1       0.040       0.040     0.07
elaps:  DHSCF2            5       0.859       4.297     7.26
elaps:  REORD           442       0.001       0.378     0.64
elaps:  POISON           59       0.043       2.511     4.24
elaps:  DHSCF3           54       0.839      45.283    76.50
elaps:  rhoofd           54       0.381      20.570    34.75
elaps:  cellXC           54       0.066       3.570     6.03
elaps:  vmat             54       0.327      17.663    29.84
elaps:  MolMec           10       0.000       0.000     0.00
elaps:  diagon           49       0.006       0.301     0.51
elaps:  r-eigvec         49       0.005       0.268     0.45
elaps:  r-buildHS        49       0.000       0.005     0.01
elaps:  rdiag            49       0.005       0.263     0.44
elaps:  rdiag1           49       0.000       0.007     0.01
elaps:  rdiag2           49       0.001       0.031     0.05
elaps:  rdiag3           49       0.004       0.211     0.36
elaps:  rdiag4           49       0.000       0.010     0.02
elaps:  r-buildD         49       0.001       0.027     0.05
elaps:  DHSCF4            5       1.043       5.216     8.81
elaps:  dfscf             5       0.922       4.608     7.78
elaps:  overfsm           5       0.013       0.066     0.11
elaps:  optical           1       0.000       0.000     0.00
  
>> End of run:  10-JUN-2011  14:25:47
