Siesta Version  : siesta-4.0--578
Architecture    : x86_64-linux-n-62-25-35
Compiler version: GNU Fortran (GCC) 7.3.0
Compiler flags  : mpif90 -m64 -fPIC -O3 -march=native -ftree-vectorize -fexpensive-optimizationns -funroll-loops -fprefetch-loop-arrays -fno-second-underscore
PP flags        : -I/zdata/groups/common/nicpa/2018-feb/generic/build-tools/1.0/include -I/zdatta/groups/common/nicpa/2018-feb/generic/gcc/7.3.0/include -I/zdata/groups/common/nicpa/2018-feb/generic/gcc/7.3.0/include -I/zdata/groups/common/nicpa/2018-feb/XeonE5-2660v3/zlib/1.2.11/gnu-7.3.0/include -I/zdata/groups/common/nicpa/2018-feb/generic/numactl/2.0.11/include -I/zdata/groups/common/nicpa/2018-feb/XeonE5-2660v3/libxml2/2.9.7/gnu-7.3.0/include -I/zdata/groups/common/nicpa/2018-feb/XeonE5-2660v3/hwloc/1.11.9/gnu-7.3.0/include -I/zdata/groups/common/nicpa/2018-feb/XeonE5-2660v3/openmpi/3.0.0/gnu-7.3.0/include -I/zdata/groups/common/nicpa/2018-feb/XeonE5-2660v3/szip/2.1.1/gnu-7.3.0/include -I/zdata/groups/common/nicpa/2018-feb/XeonE5-2660v3/hdf5-serial/1.8.18/gnu-7.3.0/include -I/zdata/groups/common/nicpa/2018-feb/XeonE5-2660v3/netcdf-serial/4.6.0/gnu-7.3.0/include -I/zdata/groups/common/nicpa/2018-feb/XeonE5-2660v3/scalapack/204/gnu-7.3.0/include -I/zdata/groups/common/nicpa/2018-feb/XeonE5-2660v3/openblas/0.2.20/gnu-7.3.0/include -I/zdata/groups/common/nicpa/2018-feb/XeonE5-2660v3/elpa/2017.05.003/gnu-7.3.0/include -DSIESTA__ELPA -DMPI -D1 -DFC_HAVE_ABORT -DCDF -DSIESTA__MRRR 
PARALLEL version
NetCDF support

* Running on    8 nodes in parallel
>> Start of run:  10-JUN-2018  20:56:53

                           ***********************       
                           *  WELCOME TO SIESTA  *       
                           ***********************       

reinit: Reading from standard input
************************** Dump of input data file ****************************
SystemName benzene
SystemLabel benzene
NumberOfSpecies 2
NumberOfAtoms   12
%block ChemicalSpeciesLabel
1    1 H
2    6 C
%endblock ChemicalSpeciesLabel
%block PS.Lmax
  C 2
%endblock PS.Lmax
AtomicCoordinatesFormat NotScaledCartesianAng
ZM.ForceTolLength 0.04 eV/Ang
ZM.ForceTolAngle 0.0001 eV/deg
ZM.MaxDisplLength 0.1 Ang
ZM.MaxDisplAngle 20.0 deg
%block Zmatrix
molecule
      2 0 0 0 xm1 ym1 zm1 0 0 0
      2 1 0 0 CC 90.0 60.0 0 0 0
      2 2 1 0 CC CCC 90.0 0 0 0
      2 3 2 1 CC CCC 0.0 0 0 0
      2 4 3 2 CC CCC 0.0 0 0 0
      2 5 4 3 CC CCC 0.0 0 0 0
      1 1 2 3 CH CCH 180.0 0 0 0
      1 2 1 7 CH CCH 0.0 0 0 0
      1 3 2 8 CH CCH 0.0 0 0 0
      1 4 3 9 CH CCH 0.0 0 0 0
      1 5 4 10 CH CCH 0.0 0 0 0
      1 6 5 11 CH CCH 0.0 0 0 0
constants
        ym1 3.68
variables
        zm1 6.9032294
        CC 1.417
        CH 1.112
        CCH 120.0
        CCC 120.0
constraints
        xm1 CC -1.0 3.903229
%endblock Zmatrix
ZM.UnitsLength Ang
ZM.UnitsAngle deg
MD.TypeOfRun CG
MD.NumCGsteps 4
MeshCutoff 120 Ry
PAO.EnergyShift 0.01 Ry
DM.NumberPulay 5
DM.MixingWeight 0.3
************************** End of input data file *****************************

reinit: -----------------------------------------------------------------------
reinit: System Name: benzene
reinit: -----------------------------------------------------------------------
reinit: System Label: benzene                                                     
reinit: -----------------------------------------------------------------------

initatom: Reading input for the pseudopotentials and atomic orbitals ----------
 Species number:            1  Label: H Atomic number:           1
 Species number:            2  Label: C Atomic number:           6
Ground state valence configuration:   1s01
Reading pseudopotential information in formatted form from H.psf

Valence configuration for pseudopotential generation:
1s( 1.00) rc: 1.25
2p( 0.00) rc: 1.25
3d( 0.00) rc: 1.25
4f( 0.00) rc: 1.25
Ground state valence configuration:   2s02  2p02
Reading pseudopotential information in formatted form from C.psf

Valence configuration for pseudopotential generation:
2s( 2.00) rc: 1.49
2p( 2.00) rc: 1.52
3d( 0.00) rc: 1.58
relmxkb: Read Max KB Ang. Momentum=    2 for species C
For H, standard SIESTA heuristics set lmxkb to 2
 (one more than the basis l, including polarization orbitals).
Use PS.lmax or PS.KBprojectors blocks to override.

<basis_specs>
===============================================================================
H                    Z=   1    Mass=  1.0100        Charge= 0.17977+309
Lmxo=0 Lmxkb= 2    BasisType=split      Semic=F
L=0  Nsemic=0  Cnfigmx=1
          n=1  nzeta=2  polorb=1
            splnorm:   0.15000    
               vcte:    0.0000    
               rinn:    0.0000    
               qcoe:    0.0000    
               qyuk:    0.0000    
               qwid:   0.10000E-01
                rcs:    0.0000      0.0000    
            lambdas:    1.0000      1.0000    
-------------------------------------------------------------------------------
L=0  Nkbl=1  erefs: 0.17977+309
L=1  Nkbl=1  erefs: 0.17977+309
L=2  Nkbl=1  erefs: 0.17977+309
===============================================================================
</basis_specs>

atom: Called for H                     (Z =   1)

read_vps: Pseudopotential generation method:
read_vps: ATM3      Troullier-Martins                       
Total valence charge:    1.00000

xc_check: Exchange-correlation functional:
xc_check: Ceperley-Alder
V l=0 = -2*Zval/r beyond r=  1.2343
V l=1 = -2*Zval/r beyond r=  1.2189
V l=2 = -2*Zval/r beyond r=  1.2189
All V_l potentials equal beyond r=  1.2343
This should be close to max(r_c) in ps generation
All pots = -2*Zval/r beyond r=  1.2343

VLOCAL1: 99.0% of the norm of Vloc inside     28.493 Ry
VLOCAL1: 99.9% of the norm of Vloc inside     64.935 Ry
atom: Maximum radius for 4*pi*r*r*local-pseudopot. charge    1.45251
atom: Maximum radius for r*vlocal+2*Zval:    1.21892
GHOST: No ghost state for L =  0
GHOST: No ghost state for L =  1
GHOST: No ghost state for L =  2

KBgen: Kleinman-Bylander projectors: 
   l= 0   rc=  1.364359   el= -0.467325   Ekb= -2.005361   kbcos= -0.336422
   l= 1   rc=  1.434438   el=  0.001430   Ekb= -0.501708   kbcos= -0.021697
   l= 2   rc=  1.470814   el=  0.002365   Ekb= -0.190555   kbcos= -0.002281

KBgen: Total number of  Kleinman-Bylander projectors:    9
atom: -------------------------------------------------------------------------

atom: SANKEY-TYPE ORBITALS:
atom: Selected multiple-zeta basis: split     

SPLIT: Orbitals with angular momentum L= 0

SPLIT: Basis orbitals for state 1s

SPLIT: PAO cut-off radius determined from an
SPLIT: energy shift=  0.010000 Ry

   izeta = 1
                 lambda =    1.000000
                     rc =    5.336316
                 energy =   -0.457946
                kinetic =    0.886710
    potential(screened) =   -1.344656
       potential(ionic) =   -1.876618

   izeta = 2
                 rmatch =    4.002347
              splitnorm =    0.150000
                 energy =   -0.355904
                kinetic =    1.439488
    potential(screened) =   -1.795392
       potential(ionic) =   -2.364690

POLgen: Perturbative polarization orbital with L=  1

POLgen: Polarization orbital for state 1s

   izeta = 1
                     rc =    5.336316
                 energy =    0.616245
                kinetic =    1.262150
    potential(screened) =   -0.645906
       potential(ionic) =   -1.116519
atom: Total number of Sankey-type orbitals:  5

atm_pop: Valence configuration (for local Pseudopot. screening):
 1s( 1.00)                                                            
Vna: chval, zval:    1.00000   1.00000

Vna:  Cut-off radius for the neutral-atom potential:   5.336316

atom: _________________________________________________________________________

<basis_specs>
===============================================================================
C                    Z=   6    Mass=  12.010        Charge= 0.17977+309
Lmxo=1 Lmxkb= 2    BasisType=split      Semic=F
L=0  Nsemic=0  Cnfigmx=2
          n=1  nzeta=2  polorb=0
            splnorm:   0.15000    
               vcte:    0.0000    
               rinn:    0.0000    
               qcoe:    0.0000    
               qyuk:    0.0000    
               qwid:   0.10000E-01
                rcs:    0.0000      0.0000    
            lambdas:    1.0000      1.0000    
L=1  Nsemic=0  Cnfigmx=2
          n=1  nzeta=2  polorb=1
            splnorm:   0.15000    
               vcte:    0.0000    
               rinn:    0.0000    
               qcoe:    0.0000    
               qyuk:    0.0000    
               qwid:   0.10000E-01
                rcs:    0.0000      0.0000    
            lambdas:    1.0000      1.0000    
-------------------------------------------------------------------------------
L=0  Nkbl=1  erefs: 0.17977+309
L=1  Nkbl=1  erefs: 0.17977+309
L=2  Nkbl=1  erefs: 0.17977+309
===============================================================================
</basis_specs>

atom: Called for C                     (Z =   6)

read_vps: Pseudopotential generation method:
read_vps: ATM3      Troullier-Martins                       
Total valence charge:    4.00000

xc_check: Exchange-correlation functional:
xc_check: Ceperley-Alder
V l=0 = -2*Zval/r beyond r=  1.4666
V l=1 = -2*Zval/r beyond r=  1.5038
V l=2 = -2*Zval/r beyond r=  1.5612
All V_l potentials equal beyond r=  1.5612
This should be close to max(r_c) in ps generation
All pots = -2*Zval/r beyond r=  1.5612

VLOCAL1: 99.0% of the norm of Vloc inside     17.809 Ry
VLOCAL1: 99.9% of the norm of Vloc inside     40.586 Ry
atom: Maximum radius for 4*pi*r*r*local-pseudopot. charge    1.88329
atom: Maximum radius for r*vlocal+2*Zval:    1.62091
GHOST: No ghost state for L =  0
GHOST: No ghost state for L =  1
GHOST: No ghost state for L =  2

KBgen: Kleinman-Bylander projectors: 
   l= 0   rc=  1.747182   el= -1.001947   Ekb=  5.181700   kbcos=  0.300603
   l= 1   rc=  1.747182   el= -0.398598   Ekb= -4.328763   kbcos= -0.367074
   l= 2   rc=  1.955272   el=  0.002326   Ekb= -1.016175   kbcos= -0.009979

KBgen: Total number of  Kleinman-Bylander projectors:    9
atom: -------------------------------------------------------------------------

atom: SANKEY-TYPE ORBITALS:
atom: Selected multiple-zeta basis: split     

SPLIT: Orbitals with angular momentum L= 0

SPLIT: Basis orbitals for state 2s

SPLIT: PAO cut-off radius determined from an
SPLIT: energy shift=  0.010000 Ry

   izeta = 1
                 lambda =    1.000000
                     rc =    4.518360
                 energy =   -0.992087
                kinetic =    0.856755
    potential(screened) =   -1.848843
       potential(ionic) =   -5.436865

   izeta = 2
                 rmatch =    3.475094
              splitnorm =    0.150000
                 energy =   -0.853594
                kinetic =    1.308346
    potential(screened) =   -2.161940
       potential(ionic) =   -6.002045

SPLIT: Orbitals with angular momentum L= 1

SPLIT: Basis orbitals for state 2p

SPLIT: PAO cut-off radius determined from an
SPLIT: energy shift=  0.010000 Ry

   izeta = 1
                 lambda =    1.000000
                     rc =    5.382558
                 energy =   -0.388318
                kinetic =    2.456485
    potential(screened) =   -2.844804
       potential(ionic) =   -6.312273

   izeta = 2
                 rmatch =    3.607901
              splitnorm =    0.150000
                 energy =   -0.250655
                kinetic =    3.636791
    potential(screened) =   -3.887446
       potential(ionic) =   -7.736789

POLgen: Perturbative polarization orbital with L=  2

POLgen: Polarization orbital for state 2p

   izeta = 1
                     rc =    5.382558
                 energy =    1.148490
                kinetic =    2.389078
    potential(screened) =   -1.240587
       potential(ionic) =   -4.090578
atom: Total number of Sankey-type orbitals: 13

atm_pop: Valence configuration (for local Pseudopot. screening):
 2s( 2.00)                                                            
 2p( 2.00)                                                            
Vna: chval, zval:    4.00000   4.00000

Vna:  Cut-off radius for the neutral-atom potential:   5.382558

atom: _________________________________________________________________________

prinput: Basis input ----------------------------------------------------------

PAO.BasisType split     

%block ChemicalSpeciesLabel
    1    1 H                       # Species index, atomic number, species label
    2    6 C                       # Species index, atomic number, species label
%endblock ChemicalSpeciesLabel

%block PAO.Basis                 # Define Basis set
H                     1                    # Species label, number of l-shells
 n=1   0   2 P   1                   # n, l, Nzeta, Polarization, NzetaPol
   5.336      4.002   
   1.000      1.000   
C                     2                    # Species label, number of l-shells
 n=2   0   2                         # n, l, Nzeta 
   4.518      3.475   
   1.000      1.000   
 n=2   1   2 P   1                   # n, l, Nzeta, Polarization, NzetaPol
   5.383      3.608   
   1.000      1.000   
%endblock PAO.Basis

prinput: ----------------------------------------------------------------------

Dumping basis to NetCDF file H.ion.nc
Dumping basis to NetCDF file C.ion.nc
coor:   Atomic-coordinates input format  =     Cartesian coordinates
coor:                                          (in Angstroms)
read_Zmatrix: Length units: Ang       
read_Zmatrix: Angle  units: deg       
read_Zmatrix: Force tolerances:
read_Zmatrix:    for lengths =     0.001556 Ry/Bohr
read_Zmatrix:    for angles  =     0.000421 Ry/rad

read_Zmatrix: Maximum displacements:
read_Zmatrix:    for lengths =     0.188973 Bohr
read_Zmatrix:    for angles  =     0.349066 rad
%block Zmatrix
molecule
      2 0 0 0 xm1 ym1 zm1 0 0 0
      2 1 0 0 CC 90.0 60.0 0 0 0
      2 2 1 0 CC CCC 90.0 0 0 0
      2 3 2 1 CC CCC 0.0 0 0 0
      2 4 3 2 CC CCC 0.0 0 0 0
      2 5 4 3 CC CCC 0.0 0 0 0
      1 1 2 3 CH CCH 180.0 0 0 0
      1 2 1 7 CH CCH 0.0 0 0 0
      1 3 2 8 CH CCH 0.0 0 0 0
      1 4 3 9 CH CCH 0.0 0 0 0
      1 5 4 10 CH CCH 0.0 0 0 0
      1 6 5 11 CH CCH 0.0 0 0 0
constants
        ym1 3.68
variables
        zm1 6.9032294
        CC 1.417
        CH 1.112
        CCH 120.0
        CCC 120.0
constraints
        xm1 CC -1.0 3.903229
%endblock Zmatrix
 nZmol:            1
 nSpecies:            2           2           2           2           2           2           1           1           1           1           1           1

zmatrix: Z-matrix coordinates: (Ang ; deg )
zmatrix: (Fractional coordinates have been converted to cartesian)
molecule    1 (    12 atoms)
      2.48622900      3.68000000      6.90322940
      1.41700000     90.00000000     60.00000000
      1.41700000    120.00000000     90.00000000
      1.41700000    120.00000000      0.00000000
      1.41700000    120.00000000      0.00000000
      1.41700000    120.00000000      0.00000000
      1.11200000    120.00000000    180.00000000
      1.11200000    120.00000000      0.00000000
      1.11200000    120.00000000      0.00000000
      1.11200000    120.00000000      0.00000000
      1.11200000    120.00000000      0.00000000
      1.11200000    120.00000000      0.00000000


Z-matrix Symbol Section -------
Variables
 xm1          2.4862289999999998     
 zm1          6.9032293999999998     
 CCC          120.00000000000017     
 CH           1.1120000000000001     
 CCH          120.00000000000017     
Constants
 ym1          3.6800000000000002     
 CC           1.4170000000000000     
------------ End of Z-matrix Information


siesta: Atomic coordinates (Bohr) and species
siesta:      4.69829   6.95419  13.04522  2        1
siesta:      6.03717   9.27319  13.04522  2        2
siesta:      8.71491   9.27319  13.04522  2        3
siesta:     10.05378   6.95419  13.04522  2        4
siesta:      8.71491   4.63520  13.04522  2        5
siesta:      6.03717   4.63520  13.04522  2        6
siesta:      2.59692   6.95419  13.04522  1        7
siesta:      4.98648  11.09303  13.04522  1        8
siesta:      9.76560  11.09303  13.04522  1        9
siesta:     12.15516   6.95419  13.04522  1       10
siesta:      9.76560   2.81536  13.04522  1       11
siesta:      4.98648   2.81536  13.04522  1       12

siesta: Automatic unit cell vectors (Ang):
siesta:   11.776283    0.000000    0.000000
siesta:    0.000000   11.030875    0.000000
siesta:    0.000000    0.000000    6.266317

siesta: System type = molecule  

initatomlists: Number of atoms, orbitals, and projectors:     12   108   108

siesta: ******************** Simulation parameters ****************************
siesta:
siesta: The following are some of the parameters of the simulation.
siesta: A complete list of the parameters used, including default values,
siesta: can be found in file out.fdf
siesta:
redata: Non-Collinear-spin run           =     F
redata: SpinPolarized (Up/Down) run      =     F
redata: Number of spin components        =     1
redata: Long output                      =     F
redata: Number of Atomic Species         =        2
redata: Charge density info will appear in .RHO file
redata: Write Mulliken Pop.              =     NO
redata: Matel table size (NRTAB)         =     1024
redata: Mesh Cutoff                      =   120.0000 Ry
redata: Net charge of the system         =     0.0000 |e|
redata: Min. number of SCF Iter          =        0
redata: Max. number of SCF Iter          =       50
redata: Mix DM or H after convergence    =     F
redata: Recompute H after scf cycle      =     F
redata: Performing Pulay mixing using    =     5 iterations
redata: Mix DM in first SCF step ?       =     F
redata: Write Pulay info on disk?        =     F
redata: Discard 1st Pulay DM after  kick =     F
redata: New DM Mixing Weight             =     0.3000
redata: New DM Occupancy tolerance       = 0.000000000001
redata: No kicks to SCF
redata: DM Mixing Weight for Kicks       =     0.5000
redata: DM Tolerance for SCF             =     0.000100
redata: Require (free) Energy convergence in SCF =     F
redata: DM (free)Energy tolerance for SCF =     0.000010 eV
redata: Require Harris convergence for SCF =     F
redata: DM Harris energy tolerance for SCF =     0.000010 eV
redata: Using Saved Data (generic)   =     F
redata: Use continuation files for DM    =     F
redata: Neglect nonoverlap interactions  =     F
redata: Method of Calculation            =     Diagonalization
redata: Divide and Conquer               =     T
redata: Electronic Temperature           =     0.0019  Ry
redata: Fix the spin of the system       =     F
redata: Dynamics option                  =     CG coord. optimization
redata: Variable cell                    =     F
redata: Use continuation files for CG    =     F
redata: Max atomic displ per move        =     0.2000  Bohr
redata: Maximum number of CG moves       =        4
redata: Force tolerance                  =     0.0016  Ry/Bohr
redata: ***********************************************************************
Total number of electrons:    30.000000
Total ionic charge:    30.000000

* ProcessorY, Blocksize:    2  14


* Orbital distribution balance (max,min):    14    10

 Kpoints in:            1 . Kpoints trimmed:            1

siesta: k-grid: Number of k-points =     1
siesta: k-grid: Cutoff (effective) =     3.133 Ang
siesta: k-grid: Supercell and displacements
siesta: k-grid:    1   0   0      0.000
siesta: k-grid:    0   1   0      0.000
siesta: k-grid:    0   0   1      0.000

                     ====================================
                        Begin CG opt. move =      0

zmatrix: Z-matrix coordinates: (Ang ; deg )
zmatrix: (Fractional coordinates have been converted to cartesian)
molecule    1 (    12 atoms)
      2.48622900      3.68000000      6.90322940
      1.41700000     90.00000000     60.00000000
      1.41700000    120.00000000     90.00000000
      1.41700000    120.00000000      0.00000000
      1.41700000    120.00000000      0.00000000
      1.41700000    120.00000000      0.00000000
      1.11200000    120.00000000    180.00000000
      1.11200000    120.00000000      0.00000000
      1.11200000    120.00000000      0.00000000
      1.11200000    120.00000000      0.00000000
      1.11200000    120.00000000      0.00000000
      1.11200000    120.00000000      0.00000000


Z-matrix Symbol Section -------
Variables
 xm1          2.4862289999999998     
 zm1          6.9032293999999998     
 CCC          120.00000000000017     
 CH           1.1120000000000001     
 CCH          120.00000000000017     
Constants
 ym1          3.6800000000000002     
 CC           1.4170000000000000     
------------ End of Z-matrix Information

                     ====================================

outcell: Unit cell vectors (Ang):
       11.776283    0.000000    0.000000
        0.000000   11.030875    0.000000
        0.000000    0.000000    6.266317

outcell: Cell vector modules (Ang)   :   11.776283   11.030875    6.266317
outcell: Cell angles (23,13,12) (deg):     90.0000     90.0000     90.0000
outcell: Cell volume (Ang**3)        :    814.0116
New_DM. Step:     1
Initializing Density Matrix...
New grid distribution:   1
           1       1:   40    1:   20    1:    6
           2       1:   40    1:   20    7:   12
           3       1:   40    1:   20   13:   18
           4       1:   40    1:   20   19:   24
           5       1:   40   21:   40    1:    6
           6       1:   40   21:   40    7:   12
           7       1:   40   21:   40   13:   18
           8       1:   40   21:   40   19:   24

InitMesh: MESH =    80 x    80 x    48 =      307200
InitMesh: (bp) =    40 x    40 x    24 =       38400
InitMesh: Mesh cutoff (required, used) =   120.000   127.546 Ry
ExtMesh (bp) on 0 =    80 x    64 x    50 =      256000
New grid distribution:   2
           1       1:   14   15:   40    1:    6
           2       1:   14   15:   40    7:   24
           3      15:   40    1:   14    7:   24
           4       1:   14    1:   14    7:   24
           5      15:   40   15:   40    1:    6
           6      15:   40   15:   40    7:   24
           7      15:   40    1:   14    1:    6
           8       1:   14    1:   14    1:    6
New grid distribution:   3
           1      15:   40   16:   40    1:    8
           2      16:   40    1:   15    1:    9
           3      16:   40    1:   15   10:   24
           4       1:   15    1:   15    1:   10
           5       1:   15    1:   15   11:   24
           6       1:   14   16:   40    1:    9
           7      15:   40   16:   40    9:   24
           8       1:   14   16:   40   10:   24
Setting up quadratic distribution...
ExtMesh (bp) on 0 =    54 x    70 x    50 =      189000
PhiOnMesh: Number of (b)points on node 0 =                 2184
PhiOnMesh: nlist on node 0 =                45735

stepf: Fermi-Dirac step function

siesta: Program's energy decomposition (eV):
siesta: Ebs     =      -450.456627
siesta: Eions   =      1613.953835
siesta: Ena     =       340.735980
siesta: Ekin    =       613.333482
siesta: Enl     =       -32.517669
siesta: DEna    =         0.000002
siesta: DUscf   =         0.000000
siesta: DUext   =         0.000000
siesta: Exc     =      -317.548211
siesta: eta*DQ  =         0.000000
siesta: Emadel  =         0.000000
siesta: Emeta   =         0.000000
siesta: Emolmec =         0.000000
siesta: Ekinion =         0.000000
siesta: Eharris =     -1027.079262
siesta: Etot    =     -1009.950252
siesta: FreeEng =     -1009.950252

   scf: iscf   Eharris(eV)      E_KS(eV)   FreeEng(eV)    dDmax  Ef(eV)
   scf:    1    -1027.0793    -1009.9503    -1009.9503  1.95541 -7.7201
timer: Routine,Calls,Time,% =    IterSCF     1       0.076   5.65
   scf:    2    -1026.4444    -1021.6331    -1021.6331  0.28409 -1.6359
   scf:    3    -1023.9205    -1021.4603    -1021.4603  0.18916 -4.0453
   scf:    4    -1023.8385    -1023.1377    -1023.1377  0.03662 -4.4984
   scf:    5    -1023.8323    -1023.6426    -1023.6426  0.00786 -4.5116
   scf:    6    -1023.8312    -1023.7603    -1023.7603  0.00245 -4.4583
   scf:    7    -1023.8309    -1023.8216    -1023.8216  0.00026 -4.4570
   scf:    8    -1023.8309    -1023.8243    -1023.8243  0.00015 -4.4601
   scf:    9    -1023.8309    -1023.8301    -1023.8301  0.00007 -4.4602

SCF Convergence by dMax criterion
max |DM_out - DM_in|:     0.00007366
SCF cycle converged after    9 iterations

Using DM_out to compute the final energy and forces

siesta: E_KS(eV) =            -1023.8309

siesta: E_KS - E_eggbox =     -1023.8309

zmatrix: Atomic forces (eV/Ang ; eV/deg )
zmatrix: (No information if symbols are used)
molecule    1 (    12 atoms)
     1    0.000000    0.000000    0.000000
     2    0.000000    0.000000    0.000000
     3    0.000000    0.000000    0.000000
     4    0.000000    0.000000    0.000000
     5    0.000000    0.000000    0.000000
     6    0.000000    0.000000    0.000000
     7    0.000000    0.000000    0.000000
     8    0.000000    0.000000    0.000000
     9    0.000000    0.000000    0.000000
    10    0.000000    0.000000    0.000000
    11    0.000000    0.000000    0.000000
    12    0.000000    0.000000    0.000000


Variable forces (eV/Ang ; eV/deg )
 xm1          5.4386868457516746     
 zm1          3.1230555590797964E-003
 CCC        -0.11666110359774624     
 CH         -0.84302947086347946     
 CCH          5.9030124371019298E-005

siesta: Atomic forces (eV/Ang):
----------------------------------------
   Tot   -0.000718   -0.010425    0.003123
----------------------------------------
   Max    0.767160
   Res    0.317918    sqrt( Sum f_i^2 / 3N )
----------------------------------------
   Max    0.767160    constrained

Stress-tensor-Voigt (kbar):        8.52        8.48       -0.06        0.00        0.00        0.00
(Free)E + p*V (eV/cell)    -1026.7014
Target enthalpy (eV/cell)    -1023.8309

                     ====================================
                        Begin CG opt. move =      1

zmatrix: Z-matrix coordinates: (Ang ; deg )
zmatrix: (Fractional coordinates have been converted to cartesian)
molecule    1 (    12 atoms)
      2.56576333      3.68000000      6.90327507
      1.33746567     90.00000000     60.00000000
      1.33746567    100.00000000     90.00000000
      1.33746567    100.00000000      0.00000000
      1.33746567    100.00000000      0.00000000
      1.33746567    100.00000000      0.00000000
      1.09967170    120.01011993    180.00000000
      1.09967170    120.01011993      0.00000000
      1.09967170    120.01011993      0.00000000
      1.09967170    120.01011993      0.00000000
      1.09967170    120.01011993      0.00000000
      1.09967170    120.01011993      0.00000000


Z-matrix Symbol Section -------
Variables
 xm1          2.5657633293743967     
 zm1          6.9032750709747281     
 CCC          99.999999995433569     
 CH           1.0996716962182966     
 CCH          120.01011993244792     
Constants
 ym1          3.6800000000000002     
 CC           1.3374656706256032     
------------ End of Z-matrix Information

                     ====================================

outcell: Unit cell vectors (Ang):
       11.776283    0.000000    0.000000
        0.000000   11.030875    0.000000
        0.000000    0.000000    6.266317

outcell: Cell vector modules (Ang)   :   11.776283   11.030875    6.266317
outcell: Cell angles (23,13,12) (deg):     90.0000     90.0000     90.0000
outcell: Cell volume (Ang**3)        :    814.0116
New_DM. Step:     2
Re-using DM from previous geometry...
Re-using DM without extrapolation (not allowed)
Density Matrix sparsity pattern changed.
Note: For starting DM, Qtot, Tr[D*S] =         30.00000000         25.42948698
New grid distribution:   1
           1       1:   40    1:   20    1:    6
           2       1:   40    1:   20    7:   12
           3       1:   40    1:   20   13:   18
           4       1:   40    1:   20   19:   24
           5       1:   40   21:   40    1:    6
           6       1:   40   21:   40    7:   12
           7       1:   40   21:   40   13:   18
           8       1:   40   21:   40   19:   24

InitMesh: MESH =    80 x    80 x    48 =      307200
InitMesh: (bp) =    40 x    40 x    24 =       38400
InitMesh: Mesh cutoff (required, used) =   120.000   127.546 Ry
ExtMesh (bp) on 0 =    80 x    64 x    50 =      256000
New grid distribution:   2
           1       1:   11   15:   40    1:    7
           2      12:   40    1:   14    7:   24
           3       1:   11   15:   40    8:   24
           4       1:   11    1:   14    8:   24
           5      12:   40   15:   40    1:    7
           6      12:   40    1:   14    1:    6
           7      12:   40   15:   40    8:   24
           8       1:   11    1:   14    1:    7
New grid distribution:   3
           1      14:   40    1:   15    1:    9
           2       1:   13    1:   15   11:   24
           3      14:   40    1:   15   10:   24
           4       1:   13   16:   40   10:   24
           5      14:   40   16:   40    1:    8
           6       1:   13   16:   40    1:    9
           7      14:   40   16:   40    9:   24
           8       1:   13    1:   15    1:   10
Setting up quadratic distribution...
ExtMesh (bp) on 0 =    51 x    70 x    51 =      182070
PhiOnMesh: Number of (b)points on node 0 =                 2002
PhiOnMesh: nlist on node 0 =                50050

   scf: iscf   Eharris(eV)      E_KS(eV)   FreeEng(eV)    dDmax  Ef(eV)
   scf:    1     -937.7694     -858.4436     -858.4436  5.13097 -6.3204
   scf:    2    -1137.8829     -777.8137     -777.8140  8.71420  1.9900
   scf:    3     -879.4104     -842.7844     -842.7844  1.16267 -5.1938
   scf:    4     -873.1950     -843.6860     -843.6884  0.84295 -4.0550
   scf:    5     -872.8491     -847.4042     -847.4058  0.73041 -3.9345
   scf:    6     -872.1659     -860.2716     -860.2954  0.95983 -3.3280
   scf:    7     -871.9526     -862.4793     -862.4892  0.39965 -3.1651
   scf:    8     -871.8824     -871.0524     -871.0809  0.16921 -2.8768
   scf:    9     -871.8709     -871.6313     -871.6640  0.07010 -2.8891
   scf:   10     -871.8697     -871.7120     -871.7453  0.05271 -2.8944
   scf:   11     -871.8676     -871.8910     -871.9253  0.00380 -2.9280
   scf:   12     -871.8675     -871.9173     -871.9517  0.00643 -2.9267
   scf:   13     -871.8678     -871.8765     -871.9105  0.00320 -2.9241
   scf:   14     -871.8677     -871.8848     -871.9190  0.00037 -2.9242
   scf:   15     -871.8677     -871.8771     -871.9113  0.00022 -2.9241
   scf:   16     -871.8677     -871.8728     -871.9070  0.00014 -2.9242
   scf:   17     -871.8677     -871.8693     -871.9035  0.00018 -2.9244
   scf:   18     -871.8677     -871.8684     -871.9026  0.00009 -2.9245

SCF Convergence by dMax criterion
max |DM_out - DM_in|:     0.00008564
SCF cycle converged after   18 iterations

Using DM_out to compute the final energy and forces

siesta: E_KS(eV) =             -871.8677

zmatrix: Atomic forces (eV/Ang ; eV/deg )
zmatrix: (No information if symbols are used)
molecule    1 (    12 atoms)
     1    0.000000    0.000000    0.000000
     2    0.000000    0.000000    0.000000
     3    0.000000    0.000000    0.000000
     4    0.000000    0.000000    0.000000
     5    0.000000    0.000000    0.000000
     6    0.000000    0.000000    0.000000
     7    0.000000    0.000000    0.000000
     8    0.000000    0.000000    0.000000
     9    0.000000    0.000000    0.000000
    10    0.000000    0.000000    0.000000
    11    0.000000    0.000000    0.000000
    12    0.000000    0.000000    0.000000


Variable forces (eV/Ang ; eV/deg )
 xm1         -435.88488683220044     
 zm1          7.2507207261879991E-003
 CCC          19.668919329332873     
 CH           32.318928046646157     
 CCH          3.6776454595593346E-002

siesta: Atomic forces (eV/Ang):
----------------------------------------
   Tot   -0.008729    0.048877    0.007251
----------------------------------------
   Max  230.269868
   Res   70.801083    sqrt( Sum f_i^2 / 3N )
----------------------------------------
   Max  230.269868    constrained

Stress-tensor-Voigt (kbar):     -386.89     -830.44       -0.04      -73.53       -0.00       -0.00
(Free)E + p*V (eV/cell)     -665.7351
Target enthalpy (eV/cell)     -871.9019

                     ====================================
                        Begin CG opt. move =      2

zmatrix: Z-matrix coordinates: (Ang ; deg )
zmatrix: (Fractional coordinates have been converted to cartesian)
molecule    1 (    12 atoms)
      2.48674104      3.68000000      6.90322969
      1.41648796     90.00000000     60.00000000
      1.41648796    119.87124088     90.00000000
      1.41648796    119.87124088      0.00000000
      1.41648796    119.87124088      0.00000000
      1.41648796    119.87124088      0.00000000
      1.11192063    120.00006515    180.00000000
      1.11192063    120.00006515      0.00000000
      1.11192063    120.00006515      0.00000000
      1.11192063    120.00006515      0.00000000
      1.11192063    120.00006515      0.00000000
      1.11192063    120.00006515      0.00000000


Z-matrix Symbol Section -------
Variables
 xm1          2.4867410385155986     
 zm1          6.9032296940277265     
 CCC          119.87124087931767     
 CH           1.1119206309222962     
 CCH          120.00006515168032     
Constants
 ym1          3.6800000000000002     
 CC           1.4164879614844015     
------------ End of Z-matrix Information

                     ====================================

outcell: Unit cell vectors (Ang):
       11.776283    0.000000    0.000000
        0.000000   11.030875    0.000000
        0.000000    0.000000    6.266317

outcell: Cell vector modules (Ang)   :   11.776283   11.030875    6.266317
outcell: Cell angles (23,13,12) (deg):     90.0000     90.0000     90.0000
outcell: Cell volume (Ang**3)        :    814.0116
New_DM. Step:     3
Re-using DM from previous geometry...
Re-using DM without extrapolation (not allowed)
Density Matrix sparsity pattern changed.
Note: For starting DM, Qtot, Tr[D*S] =         30.00000000         31.64255872
New grid distribution:   1
           1       1:   40    1:   20    1:    6
           2       1:   40    1:   20    7:   12
           3       1:   40    1:   20   13:   18
           4       1:   40    1:   20   19:   24
           5       1:   40   21:   40    1:    6
           6       1:   40   21:   40    7:   12
           7       1:   40   21:   40   13:   18
           8       1:   40   21:   40   19:   24

InitMesh: MESH =    80 x    80 x    48 =      307200
InitMesh: (bp) =    40 x    40 x    24 =       38400
InitMesh: Mesh cutoff (required, used) =   120.000   127.546 Ry
ExtMesh (bp) on 0 =    80 x    64 x    50 =      256000
New grid distribution:   2
           1       1:   14   15:   40    1:    6
           2       1:   14   15:   40    7:   24
           3      15:   40    1:   14    7:   24
           4       1:   14    1:   14    7:   24
           5      15:   40   15:   40    1:    6
           6      15:   40   15:   40    7:   24
           7      15:   40    1:   14    1:    6
           8       1:   14    1:   14    1:    6
New grid distribution:   3
           1      15:   40   16:   40    1:    8
           2      16:   40    1:   15    1:    9
           3      16:   40    1:   15   10:   24
           4       1:   15    1:   15    1:   10
           5       1:   15    1:   15   11:   24
           6       1:   14   16:   40    1:    9
           7      15:   40   16:   40    9:   24
           8       1:   14   16:   40   10:   24
Setting up quadratic distribution...
ExtMesh (bp) on 0 =    54 x    70 x    50 =      189000
PhiOnMesh: Number of (b)points on node 0 =                 2184
PhiOnMesh: nlist on node 0 =                45795

   scf: iscf   Eharris(eV)      E_KS(eV)   FreeEng(eV)    dDmax  Ef(eV)
   scf:    1    -1088.3239     -923.0309     -923.0313  2.55826 -2.6321
   scf:    2    -1608.4786     -835.3293     -835.3293  3.82910 -6.0889
   scf:    3    -1027.3185     -934.9122     -934.9122  1.39310 -6.0760
   scf:    4    -1027.5251     -954.0420     -954.0420  0.71166 -4.3341
   scf:    5    -1024.7760     -972.5506     -972.5506  0.42016 -5.3040
   scf:    6    -1024.3768     -982.0499     -982.0499  0.35290 -5.1299
   scf:    7    -1023.9512    -1003.7789    -1003.7789  0.17156 -4.7781
   scf:    8    -1023.8483    -1023.9529    -1023.9529  0.01652 -4.4593
   scf:    9    -1023.8432    -1024.0480    -1024.0480  0.00867 -4.4555
   scf:   10    -1023.8426    -1023.9510    -1023.9510  0.00394 -4.4542
   scf:   11    -1023.8425    -1023.9301    -1023.9301  0.00226 -4.4551
   scf:   12    -1023.8425    -1023.8619    -1023.8619  0.00060 -4.4570
   scf:   13    -1023.8425    -1023.8462    -1023.8462  0.00011 -4.4569
   scf:   14    -1023.8425    -1023.8451    -1023.8451  0.00006 -4.4567

SCF Convergence by dMax criterion
max |DM_out - DM_in|:     0.00006149
SCF cycle converged after   14 iterations

Using DM_out to compute the final energy and forces

siesta: E_KS(eV) =            -1023.8425

zmatrix: Atomic forces (eV/Ang ; eV/deg )
zmatrix: (No information if symbols are used)
molecule    1 (    12 atoms)
     1    0.000000    0.000000    0.000000
     2    0.000000    0.000000    0.000000
     3    0.000000    0.000000    0.000000
     4    0.000000    0.000000    0.000000
     5    0.000000    0.000000    0.000000
     6    0.000000    0.000000    0.000000
     7    0.000000    0.000000    0.000000
     8    0.000000    0.000000    0.000000
     9    0.000000    0.000000    0.000000
    10    0.000000    0.000000    0.000000
    11    0.000000    0.000000    0.000000
    12    0.000000    0.000000    0.000000


Variable forces (eV/Ang ; eV/deg )
 xm1          4.5194081963565544     
 zm1          2.3628121876251569E-003
 CCC         -2.1149720322464965E-002
 CH         -0.81712200515799061     
 CCH         -7.9827850206759597E-004

siesta: Atomic forces (eV/Ang):
----------------------------------------
   Tot    0.008731   -0.005820    0.002363
----------------------------------------
   Max    0.748961
   Res    0.294678    sqrt( Sum f_i^2 / 3N )
----------------------------------------
   Max    0.748961    constrained

Stress-tensor-Voigt (kbar):        7.74        6.63       -0.05        0.89        0.00        0.00
(Free)E + p*V (eV/cell)    -1026.2683
Target enthalpy (eV/cell)    -1023.8425

cgvc_zmatrix: Finished line minimization    1.  Mean atomic displacement =    0.0007

                     ====================================
                        Begin CG opt. move =      3

zmatrix: Z-matrix coordinates: (Ang ; deg )
zmatrix: (Fractional coordinates have been converted to cartesian)
molecule    1 (    12 atoms)
      2.48800753      3.68000000      6.90323034
      1.41522147     90.00000000     60.00000000
      1.41522147    119.85513971     90.00000000
      1.41522147    119.85513971      0.00000000
      1.41522147    119.85513971      0.00000000
      1.41522147    119.85513971      0.00000000
      1.11168464    119.99684587    180.00000000
      1.11168464    119.99684587      0.00000000
      1.11168464    119.99684587      0.00000000
      1.11168464    119.99684587      0.00000000
      1.11168464    119.99684587      0.00000000
      1.11168464    119.99684587      0.00000000


Z-matrix Symbol Section -------
Variables
 xm1          2.4880075295736148     
 zm1          6.9032303422077055     
 CCC          119.85513970851338     
 CH           1.1116846415110591     
 CCH          119.99684586525021     
Constants
 ym1          3.6800000000000002     
 CC           1.4152214704263850     
------------ End of Z-matrix Information

                     ====================================

outcell: Unit cell vectors (Ang):
       11.776283    0.000000    0.000000
        0.000000   11.030875    0.000000
        0.000000    0.000000    6.266317

outcell: Cell vector modules (Ang)   :   11.776283   11.030875    6.266317
outcell: Cell angles (23,13,12) (deg):     90.0000     90.0000     90.0000
outcell: Cell volume (Ang**3)        :    814.0116
New_DM. Step:     4
Re-using DM from previous geometry...
Re-using DM without extrapolation (not allowed)
Density Matrix sparsity pattern changed.
New grid distribution:   1
           1       1:   40    1:   20    1:    6
           2       1:   40    1:   20    7:   12
           3       1:   40    1:   20   13:   18
           4       1:   40    1:   20   19:   24
           5       1:   40   21:   40    1:    6
           6       1:   40   21:   40    7:   12
           7       1:   40   21:   40   13:   18
           8       1:   40   21:   40   19:   24

InitMesh: MESH =    80 x    80 x    48 =      307200
InitMesh: (bp) =    40 x    40 x    24 =       38400
InitMesh: Mesh cutoff (required, used) =   120.000   127.546 Ry
ExtMesh (bp) on 0 =    80 x    64 x    50 =      256000
New grid distribution:   2
           1      15:   40   15:   40    1:    6
           2      14:   40    1:   14    7:   24
           3       1:   13    1:   14    7:   24
           4       1:   14   15:   40    1:    6
           5      14:   40    1:   14    1:    6
           6      15:   40   15:   40    7:   24
           7       1:   14   15:   40    7:   24
           8       1:   13    1:   14    1:    6
New grid distribution:   3
           1      15:   40   16:   40    1:    8
           2      16:   40    1:   15    1:    9
           3      16:   40    1:   15   10:   24
           4       1:   15    1:   15    1:   10
           5       1:   15    1:   15   11:   24
           6       1:   14   16:   40    1:    9
           7      15:   40   16:   40    9:   24
           8       1:   14   16:   40   10:   24
Setting up quadratic distribution...
ExtMesh (bp) on 0 =    66 x    70 x    50 =      231000
PhiOnMesh: Number of (b)points on node 0 =                 4056
PhiOnMesh: nlist on node 0 =                42304

   scf: iscf   Eharris(eV)      E_KS(eV)   FreeEng(eV)    dDmax  Ef(eV)
   scf:    1    -1023.8483    -1023.8954    -1023.8954  0.00219 -4.4507
   scf:    2    -1023.8485    -1023.8482    -1023.8482  0.00180 -4.4620
   scf:    3    -1023.8483    -1023.8608    -1023.8608  0.00042 -4.4551
   scf:    4    -1023.8483    -1023.8515    -1023.8515  0.00012 -4.4546
   scf:    5    -1023.8483    -1023.8495    -1023.8495  0.00006 -4.4540

SCF Convergence by dMax criterion
max |DM_out - DM_in|:     0.00005579
SCF cycle converged after    5 iterations

Using DM_out to compute the final energy and forces

siesta: E_KS(eV) =            -1023.8483

zmatrix: Atomic forces (eV/Ang ; eV/deg )
zmatrix: (No information if symbols are used)
molecule    1 (    12 atoms)
     1    0.000000    0.000000    0.000000
     2    0.000000    0.000000    0.000000
     3    0.000000    0.000000    0.000000
     4    0.000000    0.000000    0.000000
     5    0.000000    0.000000    0.000000
     6    0.000000    0.000000    0.000000
     7    0.000000    0.000000    0.000000
     8    0.000000    0.000000    0.000000
     9    0.000000    0.000000    0.000000
    10    0.000000    0.000000    0.000000
    11    0.000000    0.000000    0.000000
    12    0.000000    0.000000    0.000000


Variable forces (eV/Ang ; eV/deg )
 xm1          4.0739833523218421     
 zm1          2.2891367083049921E-003
 CCC         -1.5394320319433207E-003
 CH         -0.76703924969875081     
 CCH         -8.4483191508494379E-004

siesta: Atomic forces (eV/Ang):
----------------------------------------
   Tot    0.009529   -0.002731    0.002289
----------------------------------------
   Max    0.699952
   Res    0.281918    sqrt( Sum f_i^2 / 3N )
----------------------------------------
   Max    0.699952    constrained

Stress-tensor-Voigt (kbar):        7.14        5.87       -0.05        1.00        0.00        0.00
(Free)E + p*V (eV/cell)    -1026.0424
Target enthalpy (eV/cell)    -1023.8483

                     ====================================
                        Begin CG opt. move =      4

zmatrix: Z-matrix coordinates: (Ang ; deg )
zmatrix: (Fractional coordinates have been converted to cartesian)
molecule    1 (    12 atoms)
      2.49003392      3.68000000      6.90323138
      1.41319508     90.00000000     60.00000000
      1.41319508    119.82937784     90.00000000
      1.41319508    119.82937784      0.00000000
      1.41319508    119.82937784      0.00000000
      1.41319508    119.82937784      0.00000000
      1.11130706    119.99169501    180.00000000
      1.11130706    119.99169501      0.00000000
      1.11130706    119.99169501      0.00000000
      1.11130706    119.99169501      0.00000000
      1.11130706    119.99169501      0.00000000
      1.11130706    119.99169501      0.00000000


Z-matrix Symbol Section -------
Variables
 xm1          2.4900339152664408     
 zm1          6.9032313792956712     
 CCC          119.82937783522651     
 CH           1.1113070584530795     
 CCH          119.99169500696206     
Constants
 ym1          3.6800000000000002     
 CC           1.4131950847335590     
------------ End of Z-matrix Information

                     ====================================

outcell: Unit cell vectors (Ang):
       11.776283    0.000000    0.000000
        0.000000   11.030875    0.000000
        0.000000    0.000000    6.266317

outcell: Cell vector modules (Ang)   :   11.776283   11.030875    6.266317
outcell: Cell angles (23,13,12) (deg):     90.0000     90.0000     90.0000
outcell: Cell volume (Ang**3)        :    814.0116
New_DM. Step:     5
Re-using DM from previous geometry...
Re-using DM without extrapolation (not allowed)
New grid distribution:   1
           1       1:   40    1:   20    1:    6
           2       1:   40    1:   20    7:   12
           3       1:   40    1:   20   13:   18
           4       1:   40    1:   20   19:   24
           5       1:   40   21:   40    1:    6
           6       1:   40   21:   40    7:   12
           7       1:   40   21:   40   13:   18
           8       1:   40   21:   40   19:   24

InitMesh: MESH =    80 x    80 x    48 =      307200
InitMesh: (bp) =    40 x    40 x    24 =       38400
InitMesh: Mesh cutoff (required, used) =   120.000   127.546 Ry
ExtMesh (bp) on 0 =    80 x    64 x    50 =      256000
New grid distribution:   2
           1      15:   40   15:   40    1:    6
           2      14:   40    1:   14    7:   24
           3       1:   13    1:   14    7:   24
           4       1:   14   15:   40    1:    6
           5      14:   40    1:   14    1:    6
           6      15:   40   15:   40    7:   24
           7       1:   14   15:   40    7:   24
           8       1:   13    1:   14    1:    6
New grid distribution:   3
           1      15:   40   16:   40    1:    8
           2      16:   40    1:   15    1:    9
           3      16:   40    1:   15   10:   24
           4       1:   15    1:   15    1:   10
           5       1:   15    1:   15   11:   24
           6       1:   14   16:   40    1:    9
           7      15:   40   16:   40    9:   24
           8       1:   14   16:   40   10:   24
Setting up quadratic distribution...
ExtMesh (bp) on 0 =    66 x    70 x    50 =      231000
PhiOnMesh: Number of (b)points on node 0 =                 4056
PhiOnMesh: nlist on node 0 =                42237

   scf: iscf   Eharris(eV)      E_KS(eV)   FreeEng(eV)    dDmax  Ef(eV)
   scf:    1    -1023.8558    -1023.9315    -1023.9315  0.00351 -4.4457
   scf:    2    -1023.8561    -1023.8555    -1023.8555  0.00279 -4.4624
   scf:    3    -1023.8557    -1023.8751    -1023.8751  0.00064 -4.4520
   scf:    4    -1023.8557    -1023.8608    -1023.8608  0.00019 -4.4511
   scf:    5    -1023.8557    -1023.8576    -1023.8576  0.00008 -4.4503

SCF Convergence by dMax criterion
max |DM_out - DM_in|:     0.00008305
SCF cycle converged after    5 iterations

Using DM_out to compute the final energy and forces

siesta: E_KS(eV) =            -1023.8557

zmatrix: Atomic forces (eV/Ang ; eV/deg )
zmatrix: (No information if symbols are used)
molecule    1 (    12 atoms)
     1    0.000000    0.000000    0.000000
     2    0.000000    0.000000    0.000000
     3    0.000000    0.000000    0.000000
     4    0.000000    0.000000    0.000000
     5    0.000000    0.000000    0.000000
     6    0.000000    0.000000    0.000000
     7    0.000000    0.000000    0.000000
     8    0.000000    0.000000    0.000000
     9    0.000000    0.000000    0.000000
    10    0.000000    0.000000    0.000000
    11    0.000000    0.000000    0.000000
    12    0.000000    0.000000    0.000000


Variable forces (eV/Ang ; eV/deg )
 xm1          3.3532992562419737     
 zm1          2.1044513565372292E-003
 CCC          3.0468920452642205E-002
 CH         -0.68514997128494115     
 CCH         -9.3561369791224022E-004

siesta: Atomic forces (eV/Ang):
----------------------------------------
   Tot    0.005008   -0.001586    0.002104
----------------------------------------
   Max    0.706149
   Res    0.269787    sqrt( Sum f_i^2 / 3N )
----------------------------------------
   Max    0.706149    constrained

Stress-tensor-Voigt (kbar):        6.15        4.65       -0.05        1.19        0.00       -0.00
(Free)E + p*V (eV/cell)    -1025.6755
Target enthalpy (eV/cell)    -1023.8557

outcoor: Final (unrelaxed) atomic coordinates (Ang):        
    2.49003392    3.68000000    6.90323138   2       1  C
    3.19663146    4.90386284    6.90323138   2       2  C
    4.60982028    4.89965447    6.90323138   2       3  C
    5.30911620    3.67160498    6.90323138   2       4  C
    4.59161331    2.45410346    6.90323138   2       5  C
    3.17851848    2.47093658    6.90323138   2       6  C
    1.37872687    3.68016108    6.90323138   1       7  H
    2.64083843    5.86620244    6.90323138   1       8  H
    5.16819808    5.86049661    6.90323138   1       9  H
    6.42040450    3.66514733    6.90323138   1      10  H
    5.13878696    1.48683702    6.90323138   1      11  H
    2.61157915    1.51512113    6.90323138   1      12  H

zmatrix: Z-matrix coordinates: (Ang ; deg )
zmatrix: (Fractional coordinates have been converted to cartesian)
molecule    1 (    12 atoms)
      2.49327613      3.68000000      6.90323304
      1.40995287     90.00000000     60.00000000
      1.40995287    119.78815884     90.00000000
      1.40995287    119.78815884      0.00000000
      1.40995287    119.78815884      0.00000000
      1.40995287    119.78815884      0.00000000
      1.11070293    119.98345363    180.00000000
      1.11070293    119.98345363      0.00000000
      1.11070293    119.98345363      0.00000000
      1.11070293    119.98345363      0.00000000
      1.11070293    119.98345363      0.00000000
      1.11070293    119.98345363      0.00000000


Z-matrix Symbol Section -------
Variables
 xm1          2.4932761323749628     
 zm1          6.9032330386364169     
 CCC          119.78815883796753     
 CH           1.1107029255603122     
 CCH          119.98345363370102     
Constants
 ym1          3.6800000000000002     
 CC           1.4099528676250370     
------------ End of Z-matrix Information


siesta: Program's energy decomposition (eV):
siesta: Ebs     =      -358.409813
siesta: Eions   =      1613.953835
siesta: Ena     =       340.416263
siesta: Ekin    =       732.397697
siesta: Enl     =      -119.347345
siesta: DEna    =       -33.927089
siesta: DUscf   =         3.792258
siesta: DUext   =         0.000000
siesta: Exc     =      -333.233611
siesta: eta*DQ  =         0.000000
siesta: Emadel  =         0.000000
siesta: Emeta   =         0.000000
siesta: Emolmec =         0.000000
siesta: Ekinion =         0.000000
siesta: Eharris =     -1023.855663
siesta: Etot    =     -1023.855663
siesta: FreeEng =     -1023.855663

siesta: Final energy (eV):
siesta:  Band Struct. =    -358.409813
siesta:       Kinetic =     732.397697
siesta:       Hartree =    1842.567736
siesta:    Ext. field =       0.000000
siesta:   Exch.-corr. =    -333.233611
siesta:  Ion-electron =   -4340.419974
siesta:       Ion-ion =    1074.832489
siesta:       Ekinion =       0.000000
siesta:         Total =   -1023.855663

siesta: Atomic forces (eV/Ang):
siesta:      1    0.126336    0.706149    0.000208
siesta:      2    0.378268   -0.466581    0.000399
siesta:      3   -0.394044   -0.490914    0.000318
siesta:      4   -0.622778   -0.052659    0.000250
siesta:      5   -0.192358    0.566152    0.000218
siesta:      6    0.672982   -0.256784   -0.000039
siesta:      7    0.109737    0.036029   -0.000392
siesta:      8    0.066685   -0.098885   -0.000258
siesta:      9   -0.050858   -0.104996    0.000150
siesta:     10   -0.118680   -0.009227   -0.000318
siesta:     11   -0.058806    0.100766    0.000856
siesta:     12    0.088525    0.069363    0.000712
siesta: ----------------------------------------
siesta:    Tot    0.005008   -0.001586    0.002104

siesta: Stress tensor (static) (eV/Ang**3):
siesta:     0.003838    0.000744   -0.000000
siesta:     0.000744    0.002902    0.000000
siesta:    -0.000000    0.000000   -0.000033

siesta: Cell volume =        814.011582 Ang**3

siesta: Pressure (static):
siesta:                Solid            Molecule  Units
siesta:          -0.00002435          0.00000018  Ry/Bohr**3
siesta:          -0.00223563          0.00001669  eV/Ang**3
siesta:          -3.58191047          0.02673743  kBar
(Free)E+ p_basis*V_orbitals  =       -1019.852470
(Free)Eharris+ p_basis*V_orbitals  =       -1019.852470

siesta: Electric dipole (a.u.)  =   -0.001201   -0.000293   -0.000066
siesta: Electric dipole (Debye) =   -0.003053   -0.000746   -0.000167
>> End of run:  10-JUN-2018  20:56:59
Job completed
