Siesta Version: siesta@uam.es--2006/siesta-devel--reference--2.1--patch-36
Architecture  : intel9 with Siesta libs
Compiler flags: ifort -w -O2 -mp
SERIAL version

* Running in serial mode
>> Start of run:   5-FEB-2007  16:39:36

                           ***********************       
                           *  WELCOME TO SIESTA  *       
                           ***********************       

reinit: Reading from standard input
************************** Dump of input data file ****************************
SystemName benzene
SystemLabel benzene
NumberOfSpecies 2
NumberOfAtoms   12
%block ChemicalSpeciesLabel
1    1 H
2    6 C
%endblock ChemicalSpeciesLabel
%block PS.Lmax
  C 2
%endblock PS.Lmax
AtomicCoordinatesFormat NotScaledCartesianAng
ZM.ForceTolLen 0.04 eV/Ang
ZM.ForceTolAng 0.0001 eV/deg
ZM.MaxDisplLen 0.1 Ang
ZM.MaxDisplAng 20.0 deg
%block Zmatrix
molecule
      2 0 0 0 xm1 ym1 zm1 0 0 0
      2 1 0 0 CC 90.0 60.0 0 0 0
      2 2 1 0 CC CCC 90.0 0 0 0
      2 3 2 1 CC CCC 0.0 0 0 0
      2 4 3 2 CC CCC 0.0 0 0 0
      2 5 4 3 CC CCC 0.0 0 0 0
      1 1 2 3 CH CCH 180.0 0 0 0
      1 2 1 7 CH CCH 0.0 0 0 0
      1 3 2 8 CH CCH 0.0 0 0 0
      1 4 3 9 CH CCH 0.0 0 0 0
      1 5 4 10 CH CCH 0.0 0 0 0
      1 6 5 11 CH CCH 0.0 0 0 0
constants
        ym1 3.68
variables
        zm1 6.9032294
        CC 1.417
        CH 1.112
        CCH 120.0
        CCC 120.0
constraints
        xm1 CC -1.0 3.903229
%endblock Zmatrix
ZM.UnitsLength Ang
ZM.UnitsAngle deg
MD.TypeOfRun CG
MD.NumCGsteps 4
MeshCutoff 120 Ry
PAO.EnergyShift 0.01 Ry
DM.NumberPulay 5
DM.MixingWeight 0.3
************************** End of input data file *****************************

reinit: -----------------------------------------------------------------------
reinit: System Name: benzene                                                    
reinit: -----------------------------------------------------------------------
reinit: System Label: benzene                                                     
reinit: -----------------------------------------------------------------------

initatom: Reading input for the pseudopotentials and atomic orbitals ----------
 Species number:            1  Label: H Atomic number:           1
 Species number:            2  Label: C Atomic number:           6
Ground state valence configuration:   1s01
Reading pseudopotential information in formatted form from H.psf

Valence configuration for pseudopotential generation:
1s( 1.00) rc: 1.25
2p( 0.00) rc: 1.25
3d( 0.00) rc: 1.25
4f( 0.00) rc: 1.25
Dumping pseudopotential information in formatted form in H.psdump
Ground state valence configuration:   2s02  2p02
Reading pseudopotential information in formatted form from C.psf

Valence configuration for pseudopotential generation:
2s( 2.00) rc: 1.49
2p( 2.00) rc: 1.52
3d( 0.00) rc: 1.58
Dumping pseudopotential information in formatted form in C.psdump
relmxkb: Read Max KB Ang. Momentum=    2 for species C
For H, standard SIESTA heuristics set lmxkb to 2
 (one more than the basis l, including polarization orbitals).
Use PS.lmax or PS.KBprojectors blocks to override.

<basis_specs>
===============================================================================
H                    Z=   1    Mass=  1.0100        Charge= 0.17977+309
Lmxo=0 Lmxkb=2     BasisType=split      Semic=F
L=0  Nsemic=0  Cnfigmx=1
          n=1  nzeta=2  polorb=1
            splnorm:   0.15000    
               vcte:    0.0000    
               rinn:    0.0000    
                rcs:    0.0000      0.0000    
            lambdas:    1.0000      1.0000    
-------------------------------------------------------------------------------
L=0  Nkbl=1  erefs: 0.17977+309
L=1  Nkbl=1  erefs: 0.17977+309
L=2  Nkbl=1  erefs: 0.17977+309
===============================================================================
</basis_specs>

atom: Called for H                     (Z =   1)

read_vps: Pseudopotential generation method:
read_vps: ATM3      Troullier-Martins                       
Total valence charge:    1.00000

xc_check: Exchange-correlation functional:
xc_check: Ceperley-Alder
V l=0 = -2*Zval/r beyond r=  1.2343
V l=1 = -2*Zval/r beyond r=  1.2189
V l=2 = -2*Zval/r beyond r=  1.2189
All V_l potentials equal beyond r=  1.2343
This should be close to max(r_c) in ps generation
All pots = -2*Zval/r beyond r=  1.2343

VLOCAL1: 99.0% of the norm of Vloc inside     28.493 Ry
VLOCAL1: 99.9% of the norm of Vloc inside     64.935 Ry
atom: Maximum radius for 4*pi*r*r*local-pseudopot. charge    1.45251
atom: Maximum radius for r*vlocal+2*Zval:    1.21892
GHOST: No ghost state for L =  0
GHOST: No ghost state for L =  1
GHOST: No ghost state for L =  2

KBgen: Kleinman-Bylander projectors: 
   l= 0   rc=  1.364359   el= -0.467325   Ekb= -2.005361   kbcos= -0.336422
   l= 1   rc=  1.434438   el=  0.001430   Ekb= -0.501708   kbcos= -0.021697
   l= 2   rc=  1.470814   el=  0.002365   Ekb= -0.190555   kbcos= -0.002281

KBgen: Total number of  Kleinman-Bylander projectors:    9
atom: -------------------------------------------------------------------------

atom: SANKEY-TYPE ORBITALS:
atom: Selected multiple-zeta basis: split     

SPLIT: Orbitals with angular momentum L= 0

SPLIT: Basis orbitals for state 1s

SPLIT: PAO cut-off radius determined from an
SPLIT: energy shift=  0.010000 Ry

   izeta = 1
                 lambda =    1.000000
                     rc =    5.336316
                 energy =   -0.457946
                kinetic =    0.886710
    potential(screened) =   -1.344656
       potential(ionic) =   -1.876618

   izeta = 2
                 rmatch =    4.002347
              splitnorm =    0.150000
                 energy =   -0.355904
                kinetic =    1.439488
    potential(screened) =   -1.795392
       potential(ionic) =   -2.364690

POLgen: Perturbative polarization orbital with L=  1

POLgen: Polarization orbital for state 1s

   izeta = 1
                     rc =    5.336316
                 energy =    0.616245
                kinetic =    1.262150
    potential(screened) =   -0.645906
       potential(ionic) =   -1.116519
atom: Total number of Sankey-type orbitals:  5

atm_pop: Valence configuration (for local Pseudopot. screening):
 1s( 1.00)                                                            
Vna: chval, zval:    1.00000   1.00000

Vna:  Cut-off radius for the neutral-atom potential:   5.336316

atom: _________________________________________________________________________

<basis_specs>
===============================================================================
C                    Z=   6    Mass=  12.010        Charge= 0.17977+309
Lmxo=1 Lmxkb=2     BasisType=split      Semic=F
L=0  Nsemic=0  Cnfigmx=2
          n=1  nzeta=2  polorb=0
            splnorm:   0.15000    
               vcte:    0.0000    
               rinn:    0.0000    
                rcs:    0.0000      0.0000    
            lambdas:    1.0000      1.0000    
L=1  Nsemic=0  Cnfigmx=2
          n=1  nzeta=2  polorb=1
            splnorm:   0.15000    
               vcte:    0.0000    
               rinn:    0.0000    
                rcs:    0.0000      0.0000    
            lambdas:    1.0000      1.0000    
-------------------------------------------------------------------------------
L=0  Nkbl=1  erefs: 0.17977+309
L=1  Nkbl=1  erefs: 0.17977+309
L=2  Nkbl=1  erefs: 0.17977+309
===============================================================================
</basis_specs>

atom: Called for C                     (Z =   6)

read_vps: Pseudopotential generation method:
read_vps: ATM3      Troullier-Martins                       
Total valence charge:    4.00000

xc_check: Exchange-correlation functional:
xc_check: Ceperley-Alder
V l=0 = -2*Zval/r beyond r=  1.4666
V l=1 = -2*Zval/r beyond r=  1.5038
V l=2 = -2*Zval/r beyond r=  1.5612
All V_l potentials equal beyond r=  1.5612
This should be close to max(r_c) in ps generation
All pots = -2*Zval/r beyond r=  1.5612

VLOCAL1: 99.0% of the norm of Vloc inside     17.809 Ry
VLOCAL1: 99.9% of the norm of Vloc inside     40.586 Ry
atom: Maximum radius for 4*pi*r*r*local-pseudopot. charge    1.88329
atom: Maximum radius for r*vlocal+2*Zval:    1.62091
GHOST: No ghost state for L =  0
GHOST: No ghost state for L =  1
GHOST: No ghost state for L =  2

KBgen: Kleinman-Bylander projectors: 
   l= 0   rc=  1.747182   el= -1.001947   Ekb=  5.181700   kbcos=  0.300603
   l= 1   rc=  1.747182   el= -0.398598   Ekb= -4.328763   kbcos= -0.367074
   l= 2   rc=  1.955272   el=  0.002326   Ekb= -1.016175   kbcos= -0.009979

KBgen: Total number of  Kleinman-Bylander projectors:    9
atom: -------------------------------------------------------------------------

atom: SANKEY-TYPE ORBITALS:
atom: Selected multiple-zeta basis: split     

SPLIT: Orbitals with angular momentum L= 0

SPLIT: Basis orbitals for state 2s

SPLIT: PAO cut-off radius determined from an
SPLIT: energy shift=  0.010000 Ry

   izeta = 1
                 lambda =    1.000000
                     rc =    4.518360
                 energy =   -0.992087
                kinetic =    0.856755
    potential(screened) =   -1.848843
       potential(ionic) =   -5.436865

   izeta = 2
                 rmatch =    3.475094
              splitnorm =    0.150000
                 energy =   -0.853594
                kinetic =    1.308346
    potential(screened) =   -2.161940
       potential(ionic) =   -6.002045

SPLIT: Orbitals with angular momentum L= 1

SPLIT: Basis orbitals for state 2p

SPLIT: PAO cut-off radius determined from an
SPLIT: energy shift=  0.010000 Ry

   izeta = 1
                 lambda =    1.000000
                     rc =    5.382558
                 energy =   -0.388318
                kinetic =    2.456485
    potential(screened) =   -2.844804
       potential(ionic) =   -6.312273

   izeta = 2
                 rmatch =    3.607901
              splitnorm =    0.150000
                 energy =   -0.250655
                kinetic =    3.636791
    potential(screened) =   -3.887446
       potential(ionic) =   -7.736789

POLgen: Perturbative polarization orbital with L=  2

POLgen: Polarization orbital for state 2p

   izeta = 1
                     rc =    5.382558
                 energy =    1.148490
                kinetic =    2.389078
    potential(screened) =   -1.240587
       potential(ionic) =   -4.090578
atom: Total number of Sankey-type orbitals: 13

atm_pop: Valence configuration (for local Pseudopot. screening):
 2s( 2.00)                                                            
 2p( 2.00)                                                            
Vna: chval, zval:    4.00000   4.00000

Vna:  Cut-off radius for the neutral-atom potential:   5.382558

atom: _________________________________________________________________________

prinput: Basis input ----------------------------------------------------------

PAO.BasisType split     

%block ChemicalSpeciesLabel
    1    1 H                       # Species index, atomic number, species label
    2    6 C                       # Species index, atomic number, species label
%endblock ChemicalSpeciesLabel

%block PAO.Basis                 # Define Basis set
H                     1                    # Species label, number of l-shells
 n=1   0   2 P   1                   # n, l, Nzeta, Polarization, NzetaPol
   5.336      4.002   
   1.000      1.000   
C                     2                    # Species label, number of l-shells
 n=2   0   2                         # n, l, Nzeta 
   4.518      3.475   
   1.000      1.000   
 n=2   1   2 P   1                   # n, l, Nzeta, Polarization, NzetaPol
   5.383      3.608   
   1.000      1.000   
%endblock PAO.Basis

prinput: ----------------------------------------------------------------------


siesta: ******************** Simulation parameters ****************************
siesta:
siesta: The following are some of the parameters of the simulation.
siesta: A complete list of the parameters used, including default values,
siesta: can be found in file out.fdf
siesta:
coor:   Atomic-coordinates input format  =     Cartesian coordinates
coor:                                          (in Angstroms)
read_Zmatrix: Length units: Ang       
read_Zmatrix: Angle  units: deg       
read_Zmatrix: Force tolerances:
read_Zmatrix:    for lengths =     0.001556 Ry/Bohr
read_Zmatrix:    for angles  =     0.003565 Ry/rad

read_Zmatrix: Maximum displacements:
read_Zmatrix:    for lengths =     0.200000 Bohr
read_Zmatrix:    for angles  =     0.003000 rad
%block Zmatrix
molecule
      2 0 0 0 xm1 ym1 zm1 0 0 0
      2 1 0 0 CC 90.0 60.0 0 0 0
      2 2 1 0 CC CCC 90.0 0 0 0
      2 3 2 1 CC CCC 0.0 0 0 0
      2 4 3 2 CC CCC 0.0 0 0 0
      2 5 4 3 CC CCC 0.0 0 0 0
      1 1 2 3 CH CCH 180.0 0 0 0
      1 2 1 7 CH CCH 0.0 0 0 0
      1 3 2 8 CH CCH 0.0 0 0 0
      1 4 3 9 CH CCH 0.0 0 0 0
      1 5 4 10 CH CCH 0.0 0 0 0
      1 6 5 11 CH CCH 0.0 0 0 0
constants
        ym1 3.68
variables
        zm1 6.9032294
        CC 1.417
        CH 1.112
        CCH 120.0
        CCC 120.0
constraints
        xm1 CC -1.0 3.903229
%endblock Zmatrix

zmatrix: Z-matrix coordinates: (Ang ; deg )
zmatrix: (Fractional coordinates have been converted to cartesian)
molecule    1 (    12 atoms)
      2.48622900      3.68000000      6.90322940
      1.41700000     90.00000000     60.00000000
      1.41700000    120.00000000     90.00000000
      1.41700000    120.00000000      0.00000000
      1.41700000    120.00000000      0.00000000
      1.41700000    120.00000000      0.00000000
      1.11200000    120.00000000    180.00000000
      1.11200000    120.00000000      0.00000000
      1.11200000    120.00000000      0.00000000
      1.11200000    120.00000000      0.00000000
      1.11200000    120.00000000      0.00000000
      1.11200000    120.00000000      0.00000000


Z-matrix Symbol Section -------
Variables
 xm1          2.48622900000000     
 zm1          6.90322940000000     
 ccc          120.000000000000     
 ch           1.11200000000000     
 cch          120.000000000000     
Constants
 ym1          3.68000000000000     
 cc           1.41700000000000     
------------ End of Z-matrix Information

 atom 1:    4.69829376560206        6.95419491020963     
   13.0452181406221     
 atom 2:    2.67774298580626        1.57079632679490     
   1.04719755119660     
 atom 2: x, y, z   6.03716525850518        9.27318836072345     
   13.0452181406221     
 atom 3:    2.67774298580626        2.09439510239320     
   1.57079632679490     
 atom 3 x, y, z:    8.71490824431145        9.27318836072346     
   13.0452181406221     
 atom            4   x, y, z:    10.0537797372146        6.95419491020965     
   13.0452181406221     
 atom            5   x, y, z:    8.71490824431148        4.63520145969582     
   13.0452181406221     
 atom            6   x, y, z:    6.03716525850522        4.63520145969579     
   13.0452181406221     
 atom            7   x, y, z:    2.59691747751697        6.95419491020962     
   13.0452181406221     
 atom            8   x, y, z:    4.98647711446265        11.0930336091154     
   13.0452181406221     
 atom            9   x, y, z:    9.76559638835398        11.0930336091154     
   13.0452181406221     
 atom           10   x, y, z:    12.1551560252997        6.95419491020966     
   13.0452181406221     
 atom           11   x, y, z:    9.76559638835404        2.81535621130390     
   13.0452181406221     
 atom           12   x, y, z:    4.98647711446270        2.81535621130385     
   13.0452181406221     
redata: Number of spin components        =     1
redata: Long output                      =     F
redata: Number of Atomic Species         =     2
redata: Charge density info will appear in .RHO file
redata: Write Mulliken Pop.              =     NO
redata: Mesh Cutoff                      =   120.0000  Ry
redata: Net charge of the system         =     0.0000 |e|
redata: Max. number of SCF Iter          =    50
redata: Performing Pulay mixing using    =     5 iterations
redata: Mix DM in first SCF step ?       =     F
redata: Write Pulay info on disk?        =     F
redata: New DM Mixing Weight             =     0.3000
redata: New DM Occupancy tolerance       = 0.000000000001
redata: No kicks to SCF
redata: DM Mixing Weight for Kicks       =     0.5000
redata: DM Tolerance for SCF             =     0.000100
redata: Require Energy convergence for SCF =     F
redata: DM Energy tolerance for SCF      =     0.000100 eV
redata: Using Saved Data (generic)   =     F
redata: Use continuation files for DM    =     F
redata: Neglect nonoverlap interactions  =     F
redata: Method of Calculation            =     Diagonalization
redata: Divide and Conquer               =     T
redata: Electronic Temperature           =     0.0019  Ry
redata: Fix the spin of the system       =     F
redata: Dynamics option                  =     CG coord. optimization
redata: Variable cell                    =     F
redata: Use continuation files for CG    =     F
redata: Max atomic displ per move        =     0.2000  Bohr
redata: Maximum number of CG moves       =     4
redata: Force tolerance                  =     0.0016  Ry/Bohr
redata: ***********************************************************************

siesta: Atomic coordinates (Bohr) and species
siesta:      4.69829   6.95419  13.04522  2        1
siesta:      6.03717   9.27319  13.04522  2        2
siesta:      8.71491   9.27319  13.04522  2        3
siesta:     10.05378   6.95419  13.04522  2        4
siesta:      8.71491   4.63520  13.04522  2        5
siesta:      6.03717   4.63520  13.04522  2        6
siesta:      2.59692   6.95419  13.04522  1        7
siesta:      4.98648  11.09303  13.04522  1        8
siesta:      9.76560  11.09303  13.04522  1        9
siesta:     12.15516   6.95419  13.04522  1       10
siesta:      9.76560   2.81536  13.04522  1       11
siesta:      4.98648   2.81536  13.04522  1       12

initatomlists: Number of atoms, orbitals, and projectors:     12   108   108
Total number of electrons:    30.000000
Total ionic charge:    30.000000

siesta: Automatic unit cell vectors (Ang):
siesta:   11.776283    0.000000    0.000000
siesta:    0.000000   11.030875    0.000000
siesta:    0.000000    0.000000    6.266317

siesta: System type = molecule  

siesta: k-grid: Number of k-points =     1
siesta: k-grid: Cutoff (effective) =     3.133 Ang
siesta: k-grid: Supercell and displacements
siesta: k-grid:    0   0   1      0.000
siesta: k-grid:    0   1   0      0.000
siesta: k-grid:    1   0   0      0.000

* Maximum dynamic memory allocated =     1 MB

siesta:                 ==============================
                            Begin CG move =      0
                        ==============================

zmatrix: Z-matrix coordinates: (Ang ; deg )
zmatrix: (Fractional coordinates have been converted to cartesian)
molecule    1 (    12 atoms)
      2.48622900      3.68000000      6.90322940
      1.41700000     90.00000000     60.00000000
      1.41700000    120.00000000     90.00000000
      1.41700000    120.00000000      0.00000000
      1.41700000    120.00000000      0.00000000
      1.41700000    120.00000000      0.00000000
      1.11200000    120.00000000    180.00000000
      1.11200000    120.00000000      0.00000000
      1.11200000    120.00000000      0.00000000
      1.11200000    120.00000000      0.00000000
      1.11200000    120.00000000      0.00000000
      1.11200000    120.00000000      0.00000000


Z-matrix Symbol Section -------
Variables
 xm1          2.48622900000000     
 zm1          6.90322940000000     
 ccc          120.000000000000     
 ch           1.11200000000000     
 cch          120.000000000000     
Constants
 ym1          3.68000000000000     
 cc           1.41700000000000     
------------ End of Z-matrix Information


outcell: Unit cell vectors (Ang):
       11.776283    0.000000    0.000000
        0.000000   11.030875    0.000000
        0.000000    0.000000    6.266317

outcell: Cell vector modules (Ang)   :   11.776283   11.030875    6.266317
outcell: Cell angles (23,13,12) (deg):     90.0000     90.0000     90.0000
outcell: Cell volume (Ang**3)        :    814.0116

InitMesh: MESH =    80 x    80 x    48 =      307200
InitMesh: Mesh cutoff (required, used) =   120.000   127.546 Ry

* Maximum dynamic memory allocated =    31 MB

stepf: Fermi-Dirac step function

siesta: Program's energy decomposition (eV):
siesta: Eions   =      1613.953835
siesta: Ena     =       340.728180
siesta: Ekin    =       613.333480
siesta: Enl     =       -32.517563
siesta: DEna    =         0.000002
siesta: DUscf   =         0.000000
siesta: DUext   =         0.000000
siesta: Exc     =      -317.548210
siesta: eta*DQ  =         0.000000
siesta: Emadel  =         0.000000
siesta: Emeta   =         0.000000
siesta: Emolmec =         0.000000
siesta: Ekinion =         0.000000
siesta: Eharris =     -1027.088397
siesta: Etot    =     -1009.957946
siesta: FreeEng =     -1009.957946

siesta: iscf   Eharris(eV)      E_KS(eV)   FreeEng(eV)   dDmax  Ef(eV)
siesta:    1    -1027.0884    -1009.9579    -1009.9579  1.9554 -7.7325
timer: Routine,Calls,Time,% = IterSCF        1       5.872  80.71
elaps: Routine,Calls,Wall,% = IterSCF        1       5.872  80.70
siesta:    2    -1026.4534    -1021.6424    -1021.6424  0.2841 -1.6491
siesta:    3    -1023.9297    -1021.4694    -1021.4694  0.1891 -4.0581
siesta:    4    -1023.8477    -1023.1469    -1023.1469  0.0366 -4.5113
siesta:    5    -1023.8415    -1023.6519    -1023.6519  0.0079 -4.5244
siesta:    6    -1023.8404    -1023.7696    -1023.7696  0.0025 -4.4711
siesta:    7    -1023.8401    -1023.8307    -1023.8307  0.0003 -4.4698
siesta:    8    -1023.8401    -1023.8335    -1023.8335  0.0002 -4.4729
siesta:    9    -1023.8401    -1023.8392    -1023.8392  0.0001 -4.4730

siesta: E_KS(eV) =            -1023.8397

siesta: E_KS - E_eggbox =     -1023.8397
 atom 1:    4.69829846389581        6.95419491020963     
   13.0452181406221     
 atom 1:    4.69828906730830        6.95419491020963     
   13.0452181406221     
 atom 2:    2.67773828751251        1.57079632679490     
   1.04719755119660     
 atom 2: x, y, z   6.03716760765206        9.27318429188170     
   13.0452181406221     
 atom 2:    2.67774768410001        1.57079632679490     
   1.04719755119660     
 atom 2: x, y, z   6.03716290935831        9.27319242956519     
   13.0452181406221     
 atom 3:    2.67773828751251        2.09439510239320     
   1.57079632679490     
 atom 3 x, y, z:    8.71490589516457        9.27318429188171     
   13.0452181406221     
 atom 3:    2.67774768410001        2.09439510239320     
   1.57079632679490     
 atom 3 x, y, z:    8.71491059345832        9.27319242956520     
   13.0452181406221     
 atom            4   x, y, z:    10.0537750389208        6.95419491020965     
   13.0452181406221     
 atom            4   x, y, z:    10.0537844355083        6.95419491020965     
   13.0452181406221     
 atom            5   x, y, z:    8.71490589516461        4.63520552853757     
   13.0452181406221     
 atom            5   x, y, z:    8.71491059345836        4.63519739085408     
   13.0452181406221     
 atom            6   x, y, z:    6.03716760765210        4.63520552853753     
   13.0452181406221     
 atom            6   x, y, z:    6.03716290935834        4.63519739085405     
   13.0452181406221     
 atom            7   x, y, z:    2.59692217581073        6.95419491020962     
   13.0452181406221     
 atom            7   x, y, z:    2.59691277922322        6.95419491020962     
   13.0452181406221     
 atom            8   x, y, z:    4.98647946360952        11.0930295402736     
   13.0452181406221     
 atom            8   x, y, z:    4.98647476531577        11.0930376779571     
   13.0452181406221     
 atom            9   x, y, z:    9.76559403920711        11.0930295402736     
   13.0452181406221     
 atom            9   x, y, z:    9.76559873750086        11.0930376779571     
   13.0452181406221     
 atom           10   x, y, z:    12.1551513270059        6.95419491020967     
   13.0452181406221     
 atom           10   x, y, z:    12.1551607235934        6.95419491020966     
   13.0452181406221     
 atom           11   x, y, z:    9.76559403920717        2.81536028014565     
   13.0452181406221     
 atom           11   x, y, z:    9.76559873750091        2.81535214246215     
   13.0452181406221     
 atom           12   x, y, z:    4.98647946360958        2.81536028014559     
   13.0452181406221     
 atom           12   x, y, z:    4.98647476531582        2.81535214246211     
   13.0452181406221     
 atom 1:    4.69829376560206        6.95419491020963     
   13.0452311858402     
 atom 1:    4.69829376560206        6.95419491020963     
   13.0452050954040     
 atom 2:    2.67774298580626        1.57079632679490     
   1.04719755119660     
 atom 2: x, y, z   6.03716525850518        9.27318836072345     
   13.0452311858402     
 atom 2:    2.67774298580626        1.57079632679490     
   1.04719755119660     
 atom 2: x, y, z   6.03716525850518        9.27318836072345     
   13.0452050954040     
 atom 3:    2.67774298580626        2.09439510239320     
   1.57079632679490     
 atom 3 x, y, z:    8.71490824431145        9.27318836072346     
   13.0452311858402     
 atom 3:    2.67774298580626        2.09439510239320     
   1.57079632679490     
 atom 3 x, y, z:    8.71490824431145        9.27318836072346     
   13.0452050954040     
 atom            4   x, y, z:    10.0537797372146        6.95419491020965     
   13.0452311858402     
 atom            4   x, y, z:    10.0537797372146        6.95419491020965     
   13.0452050954040     
 atom            5   x, y, z:    8.71490824431148        4.63520145969582     
   13.0452311858402     
 atom            5   x, y, z:    8.71490824431148        4.63520145969582     
   13.0452050954040     
 atom            6   x, y, z:    6.03716525850522        4.63520145969579     
   13.0452311858402     
 atom            6   x, y, z:    6.03716525850522        4.63520145969579     
   13.0452050954040     
 atom            7   x, y, z:    2.59691747751697        6.95419491020962     
   13.0452311858402     
 atom            7   x, y, z:    2.59691747751697        6.95419491020962     
   13.0452050954040     
 atom            8   x, y, z:    4.98647711446265        11.0930336091154     
   13.0452311858402     
 atom            8   x, y, z:    4.98647711446265        11.0930336091154     
   13.0452050954040     
 atom            9   x, y, z:    9.76559638835398        11.0930336091154     
   13.0452311858402     
 atom            9   x, y, z:    9.76559638835398        11.0930336091154     
   13.0452050954040     
 atom           10   x, y, z:    12.1551560252997        6.95419491020966     
   13.0452311858402     
 atom           10   x, y, z:    12.1551560252997        6.95419491020966     
   13.0452050954040     
 atom           11   x, y, z:    9.76559638835404        2.81535621130390     
   13.0452311858402     
 atom           11   x, y, z:    9.76559638835404        2.81535621130390     
   13.0452050954040     
 atom           12   x, y, z:    4.98647711446270        2.81535621130385     
   13.0452311858402     
 atom           12   x, y, z:    4.98647711446270        2.81535621130385     
   13.0452050954040     
 atom 3:    2.67774298580626        2.09439719678830     
   1.57079632679490     
 atom 3 x, y, z:    8.71490824430557        9.27319396897524     
   13.0452181406221     
 atom 3:    2.67774298580626        2.09439300799810     
   1.57079632679490     
 atom 3 x, y, z:    8.71490824430557        9.27318275247168     
   13.0452181406221     
 atom            4   x, y, z:    10.0537894509740        6.95420612673355     
   13.0452181406221     
 atom            4   x, y, z:    10.0537700234200        6.95418369372643     
   13.0452181406221     
 atom            5   x, y, z:    8.71493252876285        4.63520426388783     
   13.0452181406221     
 atom            5   x, y, z:    8.71488395987774        4.63519865563605     
   13.0452181406221     
 atom            6   x, y, z:    6.03718954305056        4.63518183088067     
   13.0452181406221     
 atom            6   x, y, z:    6.03714097416544        4.63522108864313     
   13.0452181406221     
 atom            7   x, y, z:    2.59691747751697        6.95419491020962     
   13.0452181406221     
 atom            7   x, y, z:    2.59691747751697        6.95419491020962     
   13.0452181406221     
 atom            8   x, y, z:    4.98647711446265        11.0930336091154     
   13.0452181406221     
 atom            8   x, y, z:    4.98647711446265        11.0930336091154     
   13.0452181406221     
 atom            9   x, y, z:    9.76559257687084        11.0930414179193     
   13.0452181406221     
 atom            9   x, y, z:    9.76560019982077        11.0930258003035     
   13.0452181406221     
 atom           10   x, y, z:    12.1551657390406        6.95421492895795     
   13.0452181406221     
 atom           10   x, y, z:    12.1551463114866        6.95417489150205     
   13.0452181406221     
 atom           11   x, y, z:    9.76563210720957        2.81536561720012     
   13.0452181406221     
 atom           11   x, y, z:    9.76556066947466        2.81534680561176     
   13.0452181406221     
 atom           12   x, y, z:    4.98651664494477        2.81532778032821     
   13.0452181406221     
 atom           12   x, y, z:    4.98643758425993        2.81538464253944     
   13.0452181406221     
 atom            7   x, y, z:    2.59691537614069        6.95419491020962     
   13.0452181406221     
 atom            7   x, y, z:    2.59691957889326        6.95419491020962     
   13.0452181406221     
 atom            8   x, y, z:    4.98647606377450        11.0930354289606     
   13.0452181406221     
 atom            8   x, y, z:    4.98647816515079        11.0930317892701     
   13.0452181406221     
 atom            9   x, y, z:    9.76559743904213        11.0930354289606     
   13.0452181406221     
 atom            9   x, y, z:    9.76559533766584        11.0930317892701     
   13.0452181406221     
 atom           10   x, y, z:    12.1551581266760        6.95419491020966     
   13.0452181406221     
 atom           10   x, y, z:    12.1551539239234        6.95419491020966     
   13.0452181406221     
 atom           11   x, y, z:    9.76559743904218        2.81535439145866     
   13.0452181406221     
 atom           11   x, y, z:    9.76559533766590        2.81535803114914     
   13.0452181406221     
 atom           12   x, y, z:    4.98647606377456        2.81535439145860     
   13.0452181406221     
 atom           12   x, y, z:    4.98647816515084        2.81535803114909     
   13.0452181406221     
 atom            7   x, y, z:    2.59691747752158        6.95419050909742     
   13.0452181406221     
 atom            7   x, y, z:    2.59691747752158        6.95419931132181     
   13.0452181406221     
 atom            8   x, y, z:    4.98648092593992        11.0930358096675     
   13.0452181406221     
 atom            8   x, y, z:    4.98647330298999        11.0930314085553     
   13.0452181406221     
 atom            9   x, y, z:    9.76560019982665        11.0930314085553     
   13.0452181406221     
 atom            9   x, y, z:    9.76559257687672        11.0930358096675     
   13.0452181406221     
 atom           10   x, y, z:    12.1551560252951        6.95419050909746     
   13.0452181406221     
 atom           10   x, y, z:    12.1551560252951        6.95419931132185     
   13.0452181406221     
 atom           11   x, y, z:    9.76559257687677        2.81535401075179     
   13.0452181406221     
 atom           11   x, y, z:    9.76560019982670        2.81535841186399     
   13.0452181406221     
 atom           12   x, y, z:    4.98647330299004        2.81535841186394     
   13.0452181406221     
 atom           12   x, y, z:    4.98648092593997        2.81535401075174     
   13.0452181406221     

zmatrix: Atomic forces (eV/Ang ; eV/deg )
zmatrix: (No information if symbols are used)
molecule    1 (    12 atoms)
     1    0.000000    0.000000    0.000000
     2    0.000000    0.000000    0.000000
     3    0.000000    0.000000    0.000000
     4    0.000000    0.000000    0.000000
     5    0.000000    0.000000    0.000000
     6    0.000000    0.000000    0.000000
     7    0.000000    0.000000    0.000000
     8    0.000000    0.000000    0.000000
     9    0.000000    0.000000    0.000000
    10    0.000000    0.000000    0.000000
    11    0.000000    0.000000    0.000000
    12    0.000000    0.000000    0.000000


Variable forces (eV/Ang ; eV/deg )
 xm1          5.55852279091541     
 zm1         3.225368776066199E-003
 ccc        -0.119228655221404     
 ch         -0.813522328186689     
 cch         5.905278436128473E-005

siesta: Atomic forces (eV/Ang):
----------------------------------------
   Tot   -0.000730   -0.010387    0.003225
----------------------------------------
   Max    0.792058
   Res    0.327573    sqrt( Sum f_i^2 / 3N )
----------------------------------------
   Max    0.792058    constrained

Stress-tensor-Voigt (kbar):        8.66        8.62       -0.06        0.00        0.00        0.00
Target enthalpy (eV/cell)    -1023.8397
 atom 1:    4.69958551517693        6.95419491020963     
   13.0452188901682     
 atom 2:    2.67645123623139        1.57079632679490     
   1.04719755119660     
 atom 2: x, y, z   6.03781113329262        9.27206967277628     
   13.0452188901682     
 atom 3:    2.67645123623139        2.09139510239320     
   1.57079632679490     
 atom 3 x, y, z:    8.71425032550248        9.26404033111162     
   13.0452188901682     
 atom            4   x, y, z:    10.0385446904973        6.93817798463288     
   13.0452188901682     
 atom            5   x, y, z:    8.67951267891084        4.63244096332975     
   13.0452188901682     
 atom            6   x, y, z:    6.00325414485602        4.66455760735208     
   13.0452188901682     
 atom            7   x, y, z:    2.59839828220127        6.95419178811729     
   13.0452188901682     
 atom            8   x, y, z:    4.98722022061606        11.0917527556869     
   13.0452188901682     
 atom            9   x, y, z:    9.77030094981558        11.0805603191430     
   13.0452188901681     
 atom           10   x, y, z:    12.1396940834838        6.92556781484151     
   13.0452188901681     
 atom           11   x, y, z:    9.71368411628706        2.80337638651873     
   13.0452188901682     
 atom           12   x, y, z:    4.93089783111852        2.85761551519279     
   13.0452188901682     

* Maximum dynamic memory allocated =    31 MB

siesta:                 ==============================
                            Begin CG move =      1
                        ==============================

zmatrix: Z-matrix coordinates: (Ang ; deg )
zmatrix: (Fractional coordinates have been converted to cartesian)
molecule    1 (    12 atoms)
      2.48691256      3.68000000      6.90322980
      1.41631644     90.00000000     60.00000000
      1.41631644    119.82811266     90.00000000
      1.41631644    119.82811266      0.00000000
      1.41631644    119.82811266      0.00000000
      1.41631644    119.82811266      0.00000000
      1.11189996    120.00008513    180.00000000
      1.11189996    120.00008513      0.00000000
      1.11189996    120.00008513      0.00000000
      1.11189996    120.00008513      0.00000000
      1.11189996    120.00008513      0.00000000
      1.11189996    120.00008513      0.00000000


Z-matrix Symbol Section -------
Variables
 xm1          2.48691256416478     
 zm1          6.90322979664252     
 ccc          119.828112661461     
 ch           1.11189995638559     
 cch          120.000085134114     
Constants
 ym1          3.68000000000000     
 cc           1.41631643583522     
------------ End of Z-matrix Information


outcell: Unit cell vectors (Ang):
       11.776283    0.000000    0.000000
        0.000000   11.030875    0.000000
        0.000000    0.000000    6.266317

outcell: Cell vector modules (Ang)   :   11.776283   11.030875    6.266317
outcell: Cell angles (23,13,12) (deg):     90.0000     90.0000     90.0000
outcell: Cell volume (Ang**3)        :    814.0116

siesta: iscf   Eharris(eV)      E_KS(eV)   FreeEng(eV)   dDmax  Ef(eV)
siesta:    1    -1023.8561    -1023.9706    -1023.9706  0.0136 -4.4563
siesta:    2    -1023.8719    -1023.8456    -1023.8456  0.0199 -4.5062
siesta:    3    -1023.8529    -1023.9036    -1023.9036  0.0042 -4.4701
siesta:    4    -1023.8529    -1023.8561    -1023.8561  0.0008 -4.4704
siesta:    5    -1023.8529    -1023.8540    -1023.8540  0.0004 -4.4687
siesta:    6    -1023.8529    -1023.8528    -1023.8528  0.0000 -4.4691

siesta: E_KS(eV) =            -1023.8528
 atom 1:    4.69959021476243        6.95419491020963     
   13.0452188901682     
 atom 1:    4.69958081559143        6.95419491020963     
   13.0452188901682     
 atom 2:    2.67644653664588        1.57079632679490     
   1.04719755119660     
 atom 2: x, y, z   6.03781348308537        9.27206560281584     
   13.0452188901682     
 atom 2:    2.67645593581689        1.57079632679490     
   1.04719755119660     
 atom 2: x, y, z   6.03780878349987        9.27207374273671     
   13.0452188901682     
 atom 3:    2.67644653664588        2.09139510239320     
   1.57079632679490     
 atom 3 x, y, z:    8.71424797573088        9.26403627524992     
   13.0452188901682     
 atom 3:    2.67645593581689        2.09139510239320     
   1.57079632679490     
 atom 3 x, y, z:    8.71425267527408        9.26404438697332     
   13.0452188901682     
 atom            4   x, y, z:    10.0385400153948        6.93817801275703     
   13.0452188901682     
 atom            4   x, y, z:    10.0385493655997        6.93817795650874     
   13.0452188901682     
 atom            5   x, y, z:    8.67951039013513        4.63244504010165     
   13.0452188901682     
 atom            5   x, y, z:    8.67951496768654        4.63243688655785     
   13.0452188901682     
 atom            6   x, y, z:    6.00325655532745        4.66456162773031     
   13.0452188901682     
 atom            6   x, y, z:    6.00325173438458        4.66455358697386     
   13.0452188901682     
 atom            7   x, y, z:    2.59840298178678        6.95419178811729     
   13.0452188901682     
 atom            7   x, y, z:    2.59839358261577        6.95419178811729     
   13.0452188901682     
 atom            8   x, y, z:    4.98722257040881        11.0917486857265     
   13.0452188901682     
 atom            8   x, y, z:    4.98721787082331        11.0917568256473     
   13.0452188901682     
 atom            9   x, y, z:    9.77029860004397        11.0805562632813     
   13.0452188901681     
 atom            9   x, y, z:    9.77030329958718        11.0805643750047     
   13.0452188901681     
 atom           10   x, y, z:    12.1396894083813        6.92556784296566     
   13.0452188901681     
 atom           10   x, y, z:    12.1396987585862        6.92556778671736     
   13.0452188901681     
 atom           11   x, y, z:    9.71368182751135        2.80338046329063     
   13.0452188901682     
 atom           11   x, y, z:    9.71368640506276        2.80337230974683     
   13.0452188901682     
 atom           12   x, y, z:    4.93090024158995        2.85761953557102     
   13.0452188901682     
 atom           12   x, y, z:    4.93089542064709        2.85761149481457     
   13.0452188901682     
 atom 1:    4.69958551517693        6.95419491020963     
   13.0452319353870     
 atom 1:    4.69958551517693        6.95419491020963     
   13.0452058449493     
 atom 2:    2.67645123623139        1.57079632679490     
   1.04719755119660     
 atom 2: x, y, z   6.03781113329262        9.27206967277628     
   13.0452319353870     
 atom 2:    2.67645123623139        1.57079632679490     
   1.04719755119660     
 atom 2: x, y, z   6.03781113329262        9.27206967277628     
   13.0452058449493     
 atom 3:    2.67645123623139        2.09139510239320     
   1.57079632679490     
 atom 3 x, y, z:    8.71425032550248        9.26404033111162     
   13.0452319353870     
 atom 3:    2.67645123623139        2.09139510239320     
   1.57079632679490     
 atom 3 x, y, z:    8.71425032550248        9.26404033111162     
   13.0452058449493     
 atom            4   x, y, z:    10.0385446904973        6.93817798463288     
   13.0452319353870     
 atom            4   x, y, z:    10.0385446904973        6.93817798463288     
   13.0452058449493     
 atom            5   x, y, z:    8.67951267891084        4.63244096332975     
   13.0452319353870     
 atom            5   x, y, z:    8.67951267891084        4.63244096332975     
   13.0452058449493     
 atom            6   x, y, z:    6.00325414485602        4.66455760735208     
   13.0452319353870     
 atom            6   x, y, z:    6.00325414485602        4.66455760735208     
   13.0452058449493     
 atom            7   x, y, z:    2.59839828220127        6.95419178811729     
   13.0452319353870     
 atom            7   x, y, z:    2.59839828220127        6.95419178811729     
   13.0452058449493     
 atom            8   x, y, z:    4.98722022061606        11.0917527556869     
   13.0452319353870     
 atom            8   x, y, z:    4.98722022061606        11.0917527556869     
   13.0452058449493     
 atom            9   x, y, z:    9.77030094981558        11.0805603191430     
   13.0452319353870     
 atom            9   x, y, z:    9.77030094981558        11.0805603191430     
   13.0452058449493     
 atom           10   x, y, z:    12.1396940834838        6.92556781484151     
   13.0452319353870     
 atom           10   x, y, z:    12.1396940834838        6.92556781484151     
   13.0452058449493     
 atom           11   x, y, z:    9.71368411628706        2.80337638651873     
   13.0452319353870     
 atom           11   x, y, z:    9.71368411628706        2.80337638651873     
   13.0452058449493     
 atom           12   x, y, z:    4.93089783111852        2.85761551519279     
   13.0452319353870     
 atom           12   x, y, z:    4.93089783111852        2.85761551519279     
   13.0452058449493     
 atom 3:    2.67645123623139        2.09139719378830     
   1.57079632679490     
 atom 3 x, y, z:    8.71425034228915        9.26404592860344     
   13.0452188901682     
 atom 3:    2.67645123623139        2.09139301099810     
   1.57079632679490     
 atom 3 x, y, z:    8.71425030870410        9.26403473361983     
   13.0452188901682     
 atom            4   x, y, z:    10.0385544358666        6.93818912139054     
   13.0452188901682     
 atom            4   x, y, z:    10.0385349450931        6.93816684791596     
   13.0452188901682     
 atom            5   x, y, z:    8.67953689092820        4.63244357331413     
   13.0452188901682     
 atom            5   x, y, z:    8.67948846691210        4.63243835347686     
   13.0452188901682     
 atom            6   x, y, z:    6.00327808829265        4.66453782887943     
   13.0452188901682     
 atom            6   x, y, z:    6.00323020162529        4.66457738595398     
   13.0452188901682     
 atom            7   x, y, z:    2.59839828220127        6.95419178811729     
   13.0452188901682     
 atom            7   x, y, z:    2.59839828220127        6.95419178811729     
   13.0452188901682     
 atom            8   x, y, z:    4.98722022061606        11.0917527556869     
   13.0452188901682     
 atom            8   x, y, z:    4.98722022061606        11.0917527556869     
   13.0452188901682     
 atom            9   x, y, z:    9.77029716753894        11.0805681252500     
   13.0452188901681     
 atom            9   x, y, z:    9.77030473207589        11.0805525130282     
   13.0452188901681     
 atom           10   x, y, z:    12.1397038815804        6.92558774026635     
   13.0452188901681     
 atom           10   x, y, z:    12.1396842853155        6.92554788945762     
   13.0452188901681     
 atom           11   x, y, z:    9.71371980417412        2.80338548512233     
   13.0452188901682     
 atom           11   x, y, z:    9.71364842837790        2.80336728811863     
   13.0452188901682     
 atom           12   x, y, z:    4.93093689071201        2.85758676590042     
   13.0452188901682     
 atom           12   x, y, z:    4.93085877180600        2.85764426474087     
   13.0452188901682     
 atom            7   x, y, z:    2.59839618101404        6.95419178811417     
   13.0452188901682     
 atom            7   x, y, z:    2.59840038338850        6.95419178812041     
   13.0452188901682     
 atom            8   x, y, z:    4.98721917002515        11.0917545753700     
   13.0452188901682     
 atom            8   x, y, z:    4.98722127120697        11.0917509360038     
   13.0452188901682     
 atom            9   x, y, z:    9.77030200586620        11.0805621356630     
   13.0452188901681     
 atom            9   x, y, z:    9.77029989376496        11.0805585026230     
   13.0452188901681     
 atom           10   x, y, z:    12.1396961846331        6.92556780223134     
   13.0452188901681     
 atom           10   x, y, z:    12.1396919823344        6.92556782745168     
   13.0452188901681     
 atom           11   x, y, z:    9.71368515045849        2.80337455745416     
   13.0452188901682     
 atom           11   x, y, z:    9.71368308211562        2.80337821558330     
   13.0452188901682     
 atom           12   x, y, z:    4.93089675876221        2.85761370825071     
   13.0452188901682     
 atom           12   x, y, z:    4.93089890347483        2.85761732213488     
   13.0452188901682     
 atom            7   x, y, z:    2.59839828221242        6.95418738739793     
   13.0452188901682     
 atom            7   x, y, z:    2.59839828219934        6.95419618883665     
   13.0452188901682     
 atom            8   x, y, z:    4.98722403175640        11.0917549560369     
   13.0452188901682     
 atom            8   x, y, z:    4.98721640948034        11.0917505553289     
   13.0452188901682     
 atom            9   x, y, z:    9.77030475432652        11.0805581073502     
   13.0452188901681     
 atom            9   x, y, z:    9.77029714530001        11.0805625309278     
   13.0452188901681     
 atom           10   x, y, z:    12.1396940570685        6.92556341420143     
   13.0452188901681     
 atom           10   x, y, z:    12.1396941098898        6.92557221548165     
   13.0452188901681     
 atom           11   x, y, z:    9.71368028549819        2.80337422055762     
   13.0452188901682     
 atom           11   x, y, z:    9.71368794707139        2.80337855248787     
   13.0452188901682     
 atom           12   x, y, z:    4.93089404666753        2.85761776113616     
   13.0452188901682     
 atom           12   x, y, z:    4.93090161557422        2.85761326925736     
   13.0452188901682     

zmatrix: Atomic forces (eV/Ang ; eV/deg )
zmatrix: (No information if symbols are used)
molecule    1 (    12 atoms)
     1    0.000000    0.000000    0.000000
     2    0.000000    0.000000    0.000000
     3    0.000000    0.000000    0.000000
     4    0.000000    0.000000    0.000000
     5    0.000000    0.000000    0.000000
     6    0.000000    0.000000    0.000000
     7    0.000000    0.000000    0.000000
     8    0.000000    0.000000    0.000000
     9    0.000000    0.000000    0.000000
    10    0.000000    0.000000    0.000000
    11    0.000000    0.000000    0.000000
    12    0.000000    0.000000    0.000000


Variable forces (eV/Ang ; eV/deg )
 xm1          4.29655479537974     
 zm1         1.609691770169440E-003
 ccc         1.230614973159444E-002
 ch         -0.782566015328217     
 cch        -1.033417600966457E-003

siesta: Atomic forces (eV/Ang):
----------------------------------------
   Tot    0.007462   -0.003856    0.001610
----------------------------------------
   Max    0.766976
   Res    0.314860    sqrt( Sum f_i^2 / 3N )
----------------------------------------
   Max    0.766976    constrained

Stress-tensor-Voigt (kbar):        7.59        6.08       -0.05        1.22        0.00        0.00
Target enthalpy (eV/cell)    -1023.8528
 atom 1:    4.70087726475180        6.95419491020963     
   13.0452196397142     
 atom 2:    2.67515948665651        1.57079632679490     
   1.04719755119660     
 atom 2: x, y, z   6.03845700808006        9.27095098482911     
   13.0452196397142     
 atom 3:    2.67515948665651        2.08839510239320     
   1.57079632679490     
 atom 3 x, y, z:    8.71356834201027        9.25490012421475     
   13.0452196397142     
 atom            4   x, y, z:    10.0232513750782        6.92226028233124     
   13.0452196397142     
 atom            5   x, y, z:    8.64418895632515        4.62995464733591     
   13.0452196397142     
 atom            6   x, y, z:    5.96979987862009        4.69415231162569     
   13.0452196397142     
 atom            7   x, y, z:    2.59987908689021        6.95418866658679     
   13.0452196397142     
 atom            8   x, y, z:    4.98796332628525        11.0904719019735     
   13.0452196397142     
 atom            9   x, y, z:    9.77497095159157        11.0680790574121     
   13.0452196397142     
 atom           10   x, y, z:    12.1240982079646        6.89704266610673     
   13.0452196397142     
 atom           11   x, y, z:    9.66176285477541        2.79182061941263     
   13.0452196397142     
 atom           12   x, y, z:    4.87593375320286        2.90037132079057     
   13.0452196397142     

* Maximum dynamic memory allocated =    31 MB

siesta:                 ==============================
                            Begin CG move =      2
                        ==============================

zmatrix: Z-matrix coordinates: (Ang ; deg )
zmatrix: (Fractional coordinates have been converted to cartesian)
molecule    1 (    12 atoms)
      2.48759613      3.68000000      6.90323019
      1.41563287     90.00000000     60.00000000
      1.41563287    119.65622532     90.00000000
      1.41563287    119.65622532      0.00000000
      1.41563287    119.65622532      0.00000000
      1.41563287    119.65622532      0.00000000
      1.11179991    120.00017027    180.00000000
      1.11179991    120.00017027      0.00000000
      1.11179991    120.00017027      0.00000000
      1.11179991    120.00017027      0.00000000
      1.11179991    120.00017027      0.00000000
      1.11179991    120.00017027      0.00000000


Z-matrix Symbol Section -------
Variables
 xm1          2.48759612832957     
 zm1          6.90323019328505     
 ccc          119.656225322922     
 ch           1.11179991277117     
 cch          120.000170268228     
Constants
 ym1          3.68000000000000     
 cc           1.41563287167043     
------------ End of Z-matrix Information


outcell: Unit cell vectors (Ang):
       11.776283    0.000000    0.000000
        0.000000   11.030875    0.000000
        0.000000    0.000000    6.266317

outcell: Cell vector modules (Ang)   :   11.776283   11.030875    6.266317
outcell: Cell angles (23,13,12) (deg):     90.0000     90.0000     90.0000
outcell: Cell volume (Ang**3)        :    814.0116

siesta: iscf   Eharris(eV)      E_KS(eV)   FreeEng(eV)   dDmax  Ef(eV)
siesta:    1    -1023.8441    -1023.9668    -1023.9668  0.0135 -4.4528
siesta:    2    -1023.8578    -1023.8347    -1023.8347  0.0185 -4.5081
siesta:    3    -1023.8412    -1023.8932    -1023.8932  0.0041 -4.4682
siesta:    4    -1023.8412    -1023.8445    -1023.8445  0.0008 -4.4684
siesta:    5    -1023.8412    -1023.8424    -1023.8424  0.0004 -4.4667
siesta:    6    -1023.8412    -1023.8411    -1023.8411  0.0000 -4.4671

siesta: E_KS(eV) =            -1023.8411
 atom 1:    4.70088196562906        6.95419491020963     
   13.0452196397142     
 atom 1:    4.70087256387455        6.95419491020963     
   13.0452196397142     
 atom 2:    2.67515478577926        1.57079632679490     
   1.04719755119660     
 atom 2: x, y, z   6.03845935851868        9.27094691374999     
   13.0452196397142     
 atom 2:    2.67516418753377        1.57079632679490     
   1.04719755119660     
 atom 2: x, y, z   6.03845465764143        9.27095505590823     
   13.0452196397142     
 atom 3:    2.67515478577926        2.08839510239320     
   1.57079632679490     
 atom 3 x, y, z:    8.71356599165626        9.25489608134072     
   13.0452196397142     
 atom 3:    2.67516418753377        2.08839510239320     
   1.57079632679490     
 atom 3 x, y, z:    8.71357069236428        9.25490416708878     
   13.0452196397142     
 atom            4   x, y, z:    10.0232467233066        6.92226033844780     
   13.0452196397142     
 atom            4   x, y, z:    10.0232560268498        6.92226022621467     
   13.0452196397142     
 atom            5   x, y, z:    8.64418672788685        4.62995873156649     
   13.0452196397142     
 atom            5   x, y, z:    8.64419118476345        4.62995056310533     
   13.0452196397142     
 atom            6   x, y, z:    5.96980234970526        4.69415628304604     
   13.0452196397142     
 atom            6   x, y, z:    5.96979740753493        4.69414834020533     
   13.0452196397142     
 atom            7   x, y, z:    2.59988378776746        6.95418866658679     
   13.0452196397142     
 atom            7   x, y, z:    2.59987438601296        6.95418866658679     
   13.0452196397142     
 atom            8   x, y, z:    4.98796567672388        11.0904678308944     
   13.0452196397142     
 atom            8   x, y, z:    4.98796097584662        11.0904759730526     
   13.0452196397142     
 atom            9   x, y, z:    9.77496860123756        11.0680750145381     
   13.0452196397142     
 atom            9   x, y, z:    9.77497330194558        11.0680831002861     
   13.0452196397142     
 atom           10   x, y, z:    12.1240935561929        6.89704272222329     
   13.0452196397142     
 atom           10   x, y, z:    12.1241028597362        6.89704260999016     
   13.0452196397142     
 atom           11   x, y, z:    9.66176062633711        2.79182470364321     
   13.0452196397142     
 atom           11   x, y, z:    9.66176508321372        2.79181653518206     
   13.0452196397142     
 atom           12   x, y, z:    4.87593622428802        2.90037529221092     
   13.0452196397142     
 atom           12   x, y, z:    4.87593128211770        2.90036734937021     
   13.0452196397142     
 atom 1:    4.70087726475180        6.95419491020963     
   13.0452326849338     
 atom 1:    4.70087726475180        6.95419491020963     
   13.0452065944946     
 atom 2:    2.67515948665651        1.57079632679490     
   1.04719755119660     
 atom 2: x, y, z   6.03845700808006        9.27095098482911     
   13.0452326849338     
 atom 2:    2.67515948665651        1.57079632679490     
   1.04719755119660     
 atom 2: x, y, z   6.03845700808006        9.27095098482911     
   13.0452065944946     
 atom 3:    2.67515948665651        2.08839510239320     
   1.57079632679490     
 atom 3 x, y, z:    8.71356834201027        9.25490012421475     
   13.0452326849338     
 atom 3:    2.67515948665651        2.08839510239320     
   1.57079632679490     
 atom 3 x, y, z:    8.71356834201027        9.25490012421475     
   13.0452065944946     
 atom            4   x, y, z:    10.0232513750782        6.92226028233124     
   13.0452326849338     
 atom            4   x, y, z:    10.0232513750782        6.92226028233124     
   13.0452065944946     
 atom            5   x, y, z:    8.64418895632515        4.62995464733591     
   13.0452326849338     
 atom            5   x, y, z:    8.64418895632515        4.62995464733591     
   13.0452065944946     
 atom            6   x, y, z:    5.96979987862009        4.69415231162569     
   13.0452326849338     
 atom            6   x, y, z:    5.96979987862009        4.69415231162569     
   13.0452065944946     
 atom            7   x, y, z:    2.59987908689021        6.95418866658679     
   13.0452326849338     
 atom            7   x, y, z:    2.59987908689021        6.95418866658679     
   13.0452065944946     
 atom            8   x, y, z:    4.98796332628525        11.0904719019735     
   13.0452326849338     
 atom            8   x, y, z:    4.98796332628525        11.0904719019735     
   13.0452065944946     
 atom            9   x, y, z:    9.77497095159157        11.0680790574121     
   13.0452326849338     
 atom            9   x, y, z:    9.77497095159157        11.0680790574121     
   13.0452065944946     
 atom           10   x, y, z:    12.1240982079646        6.89704266610673     
   13.0452326849338     
 atom           10   x, y, z:    12.1240982079646        6.89704266610673     
   13.0452065944946     
 atom           11   x, y, z:    9.66176285477541        2.79182061941263     
   13.0452326849338     
 atom           11   x, y, z:    9.66176285477541        2.79182061941263     
   13.0452065944946     
 atom           12   x, y, z:    4.87593375320286        2.90037132079057     
   13.0452326849338     
 atom           12   x, y, z:    4.87593375320286        2.90037132079057     
   13.0452065944946     
 atom 3:    2.67515948665651        2.08839719078830     
   1.57079632679490     
 atom 3 x, y, z:    8.71356837552498        9.25490571090418     
   13.0452196397142     
 atom 3:    2.67515948665651        2.08839301399810     
   1.57079632679490     
 atom 3 x, y, z:    8.71356830848390        9.25489453752539     
   13.0452196397142     
 atom            4   x, y, z:    10.0232611515287        6.92227133931226     
   13.0452196397142     
 atom            4   x, y, z:    10.0232415985932        6.92224922539098     
   13.0452196397142     
 atom            5   x, y, z:    8.64421309452226        4.62995706428034     
   13.0452196397142     
 atom            5   x, y, z:    8.64416481814765        4.62995223052222     
   13.0452196397142     
 atom            6   x, y, z:    5.96982348063017        4.69413238784373     
   13.0452196397142     
 atom            6   x, y, z:    5.96977627681626        4.69417223553391     
   13.0452196397142     
 atom            7   x, y, z:    2.59987908689021        6.95418866658679     
   13.0452196397142     
 atom            7   x, y, z:    2.59987908689021        6.95418866658679     
   13.0452196397142     
 atom            8   x, y, z:    4.98796332628525        11.0904719019735     
   13.0452196397142     
 atom            8   x, y, z:    4.98796332628525        11.0904719019735     
   13.0452196397142     
 atom            9   x, y, z:    9.77496719846996        11.0680868607256     
   13.0452196397142     
 atom            9   x, y, z:    9.77497470469688        11.0680712540908     
   13.0452196397142     
 atom           10   x, y, z:    12.1241080897254        6.89706249788443     
   13.0452196397142     
 atom           10   x, y, z:    12.1240883261325        6.89702283437023     
   13.0452196397142     
 atom           11   x, y, z:    9.66179850920283        2.79182941168216     
   13.0452196397142     
 atom           11   x, y, z:    9.66172720032767        2.79181182734600     
   13.0452196397142     
 atom           12   x, y, z:    4.87597233974481        2.90034225937258     
   13.0452196397142     
 atom           12   x, y, z:    4.87589516694348        2.90040038245999     
   13.0452196397142     
 atom            7   x, y, z:    2.59987698589204        6.95418866658054     
   13.0452196397142     
 atom            7   x, y, z:    2.59988118788838        6.95418866659303     
   13.0452196397142     
 atom            8   x, y, z:    4.98796227579157        11.0904737214944     
   13.0452196397142     
 atom            8   x, y, z:    4.98796437677893        11.0904700824526     
   13.0452196397142     
 atom            9   x, y, z:    9.77497201299417        11.0680808705910     
   13.0452196397142     
 atom            9   x, y, z:    9.77496989018896        11.0680772442332     
   13.0452196397142     
 atom           10   x, y, z:    12.1241003088114        6.89704264088911     
   13.0452196397142     
 atom           10   x, y, z:    12.1240961071177        6.89704269132434     
   13.0452196397142     
 atom           11   x, y, z:    9.66176387234930        2.79181878127861     
   13.0452196397142     
 atom           11   x, y, z:    9.66176183720151        2.79182245754666     
   13.0452196397142     
 atom           12   x, y, z:    4.87593265933673        2.90036952700958     
   13.0452196397142     
 atom           12   x, y, z:    4.87593484706898        2.90037311457156     
   13.0452196397142     
 atom            7   x, y, z:    2.59987908690789        6.95418426626026     
   13.0452196397142     
 atom            7   x, y, z:    2.59987908688174        6.95419306691331     
   13.0452196397142     
 atom            8   x, y, z:    4.98796713708865        11.0904741021214     
   13.0452196397142     
 atom            8   x, y, z:    4.98795951548646        11.0904697018176     
   13.0452196397142     
 atom            9   x, y, z:    9.77497474910770        11.0680768344086     
   13.0452196397142     
 atom            9   x, y, z:    9.77496715407078        11.0680812804077     
   13.0452196397142     
 atom           10   x, y, z:    12.1240981551442        6.89703826609723     
   13.0452196397142     
 atom           10   x, y, z:    12.1240982607757        6.89704706611633     
   13.0452196397142     
 atom           11   x, y, z:    9.66175900498882        2.79181848821186     
   13.0452196397142     
 atom           11   x, y, z:    9.66176670455754        2.79182275062147     
   13.0452196397142     
 atom           12   x, y, z:    4.87592999631381        2.90037361178561     
   13.0452196397142     
 atom           12   x, y, z:    4.87593751009670        2.90036902980341     
   13.0452196397142     

zmatrix: Atomic forces (eV/Ang ; eV/deg )
zmatrix: (No information if symbols are used)
molecule    1 (    12 atoms)
     1    0.000000    0.000000    0.000000
     2    0.000000    0.000000    0.000000
     3    0.000000    0.000000    0.000000
     4    0.000000    0.000000    0.000000
     5    0.000000    0.000000    0.000000
     6    0.000000    0.000000    0.000000
     7    0.000000    0.000000    0.000000
     8    0.000000    0.000000    0.000000
     9    0.000000    0.000000    0.000000
    10    0.000000    0.000000    0.000000
    11    0.000000    0.000000    0.000000
    12    0.000000    0.000000    0.000000


Variable forces (eV/Ang ; eV/deg )
 xm1          2.95255118578447     
 zm1         1.161685909060258E-003
 ccc         0.155759501946793     
 ch         -0.752688581722581     
 cch        -1.927841518766039E-003

siesta: Atomic forces (eV/Ang):
----------------------------------------
   Tot   -0.003126    0.003449    0.001162
----------------------------------------
   Max    1.544412
   Res    0.448964    sqrt( Sum f_i^2 / 3N )
----------------------------------------
   Max    1.544412    constrained

Stress-tensor-Voigt (kbar):        6.51        3.32       -0.05        2.52        0.00        0.00
Target enthalpy (eV/cell)    -1023.8411
 atom 1:    4.69963095957719        6.95419491020963     
   13.0452189165376     
 atom 2:    2.67640579183113        1.57079632679490     
   1.04719755119660     
 atom 2: x, y, z   6.03783385549275        9.27203031677119     
   13.0452189165376     
 atom 3:    2.67640579183113        2.09128956088312     
   1.57079632679490     
 atom 3 x, y, z:    8.71422674118621        9.26371864084704     
   13.0452189165376     
 atom            4   x, y, z:    10.0380076493134        6.93761630650637     
   13.0452189165376     
 atom            5   x, y, z:    8.67826874083400        4.63234884625053     
   13.0452189165376     
 atom            6   x, y, z:    6.00206944471621        4.66559474834214     
   13.0452189165376     
 atom            7   x, y, z:    2.59845037765553        6.95419167829074     
   13.0452189165376     
 atom            8   x, y, z:    4.98724636345577        11.0917076946134     
   13.0452189165376     
 atom            9   x, y, z:    9.77046582942269        11.0801213567491     
   13.0452189165376     
 atom           10   x, y, z:    12.1391476820899        6.92456255152510     
   13.0452189165376     
 atom           11   x, y, z:    9.71185763232916        2.80296265377151     
   13.0452189165376     
 atom           12   x, y, z:    4.92895369937007        2.85911130392720     
   13.0452189165376     

* Maximum dynamic memory allocated =    31 MB

siesta:                 ==============================
                            Begin CG move =      3
                        ==============================

zmatrix: Z-matrix coordinates: (Ang ; deg )
zmatrix: (Fractional coordinates have been converted to cartesian)
molecule    1 (    12 atoms)
      2.48693661      3.68000000      6.90322981
      1.41629239     90.00000000     60.00000000
      1.41629239    119.82206558     90.00000000
      1.41629239    119.82206558      0.00000000
      1.41629239    119.82206558      0.00000000
      1.41629239    119.82206558      0.00000000
      1.11189644    120.00008813    180.00000000
      1.11189644    120.00008813      0.00000000
      1.11189644    120.00008813      0.00000000
      1.11189644    120.00008813      0.00000000
      1.11189644    120.00008813      0.00000000
      1.11189644    120.00008813      0.00000000


Z-matrix Symbol Section -------
Variables
 xm1          2.48693661229618     
 zm1          6.90322981059661     
 ccc          119.822065578370     
 ch           1.11189643680087     
 cch          120.000088129175     
Constants
 ym1          3.68000000000000     
 cc           1.41629238770382     
------------ End of Z-matrix Information


outcell: Unit cell vectors (Ang):
       11.776283    0.000000    0.000000
        0.000000   11.030875    0.000000
        0.000000    0.000000    6.266317

outcell: Cell vector modules (Ang)   :   11.776283   11.030875    6.266317
outcell: Cell angles (23,13,12) (deg):     90.0000     90.0000     90.0000
outcell: Cell volume (Ang**3)        :    814.0116

siesta: iscf   Eharris(eV)      E_KS(eV)   FreeEng(eV)   dDmax  Ef(eV)
siesta:    1    -1023.8556    -1023.7255    -1023.7255  0.0132 -4.4840
siesta:    2    -1023.8690    -1023.8467    -1023.8467  0.0181 -4.4471
siesta:    3    -1023.8529    -1023.7961    -1023.7961  0.0041 -4.4683
siesta:    4    -1023.8529    -1023.8468    -1023.8468  0.0008 -4.4681
siesta:    5    -1023.8529    -1023.8503    -1023.8503  0.0004 -4.4698
siesta:    6    -1023.8529    -1023.8526    -1023.8526  0.0000 -4.4694

siesta: E_KS(eV) =            -1023.8528
 atom 1:    4.69963565920814        6.95419491020963     
   13.0452189165376     
 atom 1:    4.69962625994624        6.95419491020963     
   13.0452189165376     
 atom 2:    2.67640109220018        1.57079632679490     
   1.04719755119660     
 atom 2: x, y, z   6.03783620530822        9.27202624677141     
   13.0452189165376     
 atom 2:    2.67641049146208        1.57079632679490     
   1.04719755119660     
 atom 2: x, y, z   6.03783150567728        9.27203438677098     
   13.0452189165376     
 atom 3:    2.67640109220018        2.09128956088312     
   1.57079632679490     
 atom 3 x, y, z:    8.71422439139340        9.26371458544213     
   13.0452189165376     
 atom 3:    2.67641049146208        2.09128956088312     
   1.57079632679490     
 atom 3 x, y, z:    8.71422909097902        9.26372269625196     
   13.0452189165376     
 atom            4   x, y, z:    10.0380029750294        6.93761633561755     
   13.0452189165376     
 atom            4   x, y, z:    10.0380123235974        6.93761627739520     
   13.0452189165376     
 atom            5   x, y, z:    8.67826645418159        4.63235292329283     
   13.0452189165376     
 atom            5   x, y, z:    8.67827102748641        4.63234476920823     
   13.0452189165376     
 atom            6   x, y, z:    6.00207185733216        4.66559876700634     
   13.0452189165376     
 atom            6   x, y, z:    6.00206703210027        4.66559072967794     
   13.0452189165376     
 atom            7   x, y, z:    2.59845507728648        6.95419167829074     
   13.0452189165376     
 atom            7   x, y, z:    2.59844567802458        6.95419167829074     
   13.0452189165376     
 atom            8   x, y, z:    4.98724871327125        11.0917036246136     
   13.0452189165376     
 atom            8   x, y, z:    4.98724401364030        11.0917117646132     
   13.0452189165376     
 atom            9   x, y, z:    9.77046347962988        11.0801173013442     
   13.0452189165376     
 atom            9   x, y, z:    9.77046817921550        11.0801254121540     
   13.0452189165376     
 atom           10   x, y, z:    12.1391430078059        6.92456258063628     
   13.0452189165376     
 atom           10   x, y, z:    12.1391523563739        6.92456252241392     
   13.0452189165376     
 atom           11   x, y, z:    9.71185534567676        2.80296673081380     
   13.0452189165376     
 atom           11   x, y, z:    9.71185991898157        2.80295857672921     
   13.0452189165376     
 atom           12   x, y, z:    4.92895611198601        2.85911532259140     
   13.0452189165376     
 atom           12   x, y, z:    4.92895128675412        2.85910728526300     
   13.0452189165376     
 atom 1:    4.69963095957719        6.95419491020963     
   13.0452319617565     
 atom 1:    4.69963095957719        6.95419491020963     
   13.0452058713187     
 atom 2:    2.67640579183113        1.57079632679490     
   1.04719755119660     
 atom 2: x, y, z   6.03783385549275        9.27203031677119     
   13.0452319617565     
 atom 2:    2.67640579183113        1.57079632679490     
   1.04719755119660     
 atom 2: x, y, z   6.03783385549275        9.27203031677119     
   13.0452058713187     
 atom 3:    2.67640579183113        2.09128956088312     
   1.57079632679490     
 atom 3 x, y, z:    8.71422674118621        9.26371864084704     
   13.0452319617565     
 atom 3:    2.67640579183113        2.09128956088312     
   1.57079632679490     
 atom 3 x, y, z:    8.71422674118621        9.26371864084704     
   13.0452058713187     
 atom            4   x, y, z:    10.0380076493134        6.93761630650637     
   13.0452319617564     
 atom            4   x, y, z:    10.0380076493134        6.93761630650637     
   13.0452058713187     
 atom            5   x, y, z:    8.67826874083400        4.63234884625053     
   13.0452319617565     
 atom            5   x, y, z:    8.67826874083400        4.63234884625053     
   13.0452058713187     
 atom            6   x, y, z:    6.00206944471621        4.66559474834214     
   13.0452319617565     
 atom            6   x, y, z:    6.00206944471621        4.66559474834214     
   13.0452058713187     
 atom            7   x, y, z:    2.59845037765553        6.95419167829074     
   13.0452319617565     
 atom            7   x, y, z:    2.59845037765553        6.95419167829074     
   13.0452058713187     
 atom            8   x, y, z:    4.98724636345577        11.0917076946134     
   13.0452319617565     
 atom            8   x, y, z:    4.98724636345577        11.0917076946134     
   13.0452058713187     
 atom            9   x, y, z:    9.77046582942269        11.0801213567491     
   13.0452319617564     
 atom            9   x, y, z:    9.77046582942269        11.0801213567491     
   13.0452058713187     
 atom           10   x, y, z:    12.1391476820899        6.92456255152510     
   13.0452319617564     
 atom           10   x, y, z:    12.1391476820899        6.92456255152510     
   13.0452058713187     
 atom           11   x, y, z:    9.71185763232916        2.80296265377151     
   13.0452319617565     
 atom           11   x, y, z:    9.71185763232916        2.80296265377151     
   13.0452058713187     
 atom           12   x, y, z:    4.92895369937007        2.85911130392720     
   13.0452319617565     
 atom           12   x, y, z:    4.92895369937007        2.85911130392720     
   13.0452058713187     
 atom 3:    2.67640579183113        2.09129165217267     
   1.57079632679490     
 atom 3 x, y, z:    8.71422675856248        9.26372423795955     
   13.0452189165376     
 atom 3:    2.67640579183113        2.09128746959356     
   1.57079632679490     
 atom 3 x, y, z:    8.71422672379823        9.26371304373457     
   13.0452189165376     
 atom            4   x, y, z:    10.0380173957851        6.93762744045760     
   13.0452189165376     
 atom            4   x, y, z:    10.0379979028068        6.93760517259587     
   13.0452189165376     
 atom            5   x, y, z:    8.67829295027778        4.63235144942379     
   13.0452189165376     
 atom            5   x, y, z:    8.67824453140888        4.63234624320873     
   13.0452189165376     
 atom            6   x, y, z:    6.00209337614639        4.66557496468369     
   13.0452189165376     
 atom            6   x, y, z:    6.00204551349196        4.66561453212973     
   13.0452189165376     
 atom            7   x, y, z:    2.59845037765553        6.95419167829074     
   13.0452189165376     
 atom            7   x, y, z:    2.59845037765553        6.95419167829074     
   13.0452189165376     
 atom            8   x, y, z:    4.98724636345577        11.0917076946134     
   13.0452189165376     
 atom            8   x, y, z:    4.98724636345577        11.0917076946134     
   13.0452189165376     
 atom            9   x, y, z:    9.77046204817262        11.0801291627594     
   13.0452189165376     
 atom            9   x, y, z:    9.77046961065643        11.0801135507309     
   13.0452189165376     
 atom           10   x, y, z:    12.1391574831416        6.92458247366086     
   13.0452189165376     
 atom           10   x, y, z:    12.1391378809666        6.92454262943030     
   13.0452189165376     
 atom           11   x, y, z:    9.71189331908131        2.80297174158174     
   13.0452189165376     
 atom           11   x, y, z:    9.71182194555499        2.80295356616475     
   13.0452189165376     
 atom           12   x, y, z:    4.92899274235763        2.85908254354895     
   13.0452189165376     
 atom           12   x, y, z:    4.92891465666352        2.85914006456099     
   13.0452189165376     
 atom            7   x, y, z:    2.59844827647495        6.95419167828751     
   13.0452189165376     
 atom            7   x, y, z:    2.59845247883610        6.95419167829397     
   13.0452189165376     
 atom            8   x, y, z:    4.98724531286828        11.0917095142907     
   13.0452189165376     
 atom            8   x, y, z:    4.98724741404326        11.0917058749360     
   13.0452189165376     
 atom            9   x, y, z:    9.77046688566177        11.0801231731518     
   13.0452189165376     
 atom            9   x, y, z:    9.77046477318360        11.0801195403464     
   13.0452189165376     
 atom           10   x, y, z:    12.1391497832299        6.92456253847135     
   13.0452189165376     
 atom           10   x, y, z:    12.1391455809499        6.92456256457886     
   13.0452189165376     
 atom           11   x, y, z:    9.71185866591805        2.80296082438532     
   13.0452189165376     
 atom           11   x, y, z:    9.71185659874028        2.80296448315770     
   13.0452189165376     
 atom           12   x, y, z:    4.92895262625432        2.85910949744376     
   13.0452189165376     
 atom           12   x, y, z:    4.92895477248581        2.85911311041064     
   13.0452189165376     
 atom            7   x, y, z:    2.59845037766690        6.95418727758520     
   13.0452189165376     
 atom            7   x, y, z:    2.59845037765337        6.95419607899628     
   13.0452189165376     
 atom            8   x, y, z:    4.98725017458426        11.0917098949563     
   13.0452189165376     
 atom            8   x, y, z:    4.98724255233190        11.0917054942625     
   13.0452189165376     
 atom            9   x, y, z:    9.77046963368811        11.0801191445616     
   13.0452189165376     
 atom            9   x, y, z:    9.77046202515263        11.0801235689287     
   13.0452189165376     
 atom           10   x, y, z:    12.1391476547456        6.92455815090452     
   13.0452189165376     
 atom           10   x, y, z:    12.1391477094250        6.92456695214575     
   13.0452189165376     
 atom           11   x, y, z:    9.71185380086661        2.80296048903042     
   13.0452189165376     
 atom           11   x, y, z:    9.71186146378719        2.80296481852062     
   13.0452189165376     
 atom           12   x, y, z:    4.92894991587957        2.85911355146117     
   13.0452189165376     
 atom           12   x, y, z:    4.92895748286527        2.85910905640115     
   13.0452189165376     

zmatrix: Atomic forces (eV/Ang ; eV/deg )
zmatrix: (No information if symbols are used)
molecule    1 (    12 atoms)
     1    0.000000    0.000000    0.000000
     2    0.000000    0.000000    0.000000
     3    0.000000    0.000000    0.000000
     4    0.000000    0.000000    0.000000
     5    0.000000    0.000000    0.000000
     6    0.000000    0.000000    0.000000
     7    0.000000    0.000000    0.000000
     8    0.000000    0.000000    0.000000
     9    0.000000    0.000000    0.000000
    10    0.000000    0.000000    0.000000
    11    0.000000    0.000000    0.000000
    12    0.000000    0.000000    0.000000


Variable forces (eV/Ang ; eV/deg )
 xm1          4.24804922027764     
 zm1         1.520718334575407E-003
 ccc         1.729235353288905E-002
 ch         -0.779026173367213     
 cch        -1.066309256373316E-003

siesta: Atomic forces (eV/Ang):
----------------------------------------
   Tot    0.007879   -0.003011    0.001521
----------------------------------------
   Max    0.766385
   Res    0.317254    sqrt( Sum f_i^2 / 3N )
----------------------------------------
   Max    0.766385    constrained

Stress-tensor-Voigt (kbar):        7.55        5.97       -0.05        1.26        0.00        0.00
Target enthalpy (eV/cell)    -1023.8528

cgvc_zmatrix: Finished line minimization    1.  Mean atomic displacement =    0.0010
 atom 1:    4.70295140573891        6.95419491020963     
   13.0452201991455     
 atom 2:    2.67308534566941        1.57079632679490     
   1.04719755119660     
 atom 2: x, y, z   6.03949407857361        9.26915472604325     
   13.0452201991455     
 atom 3:    2.67308534566941        2.09158506720179     
   1.57079632679490     
 atom 3 x, y, z:    8.71256887051103        9.26164327203774     
   13.0452201991455     
 atom            4   x, y, z:    10.0360802673134        6.93920859098279     
   13.0452201991455     
 atom            5   x, y, z:    8.68006996152286        4.63559809529946     
   13.0452201991455     
 atom            6   x, y, z:    6.00715347389861        4.66564331819795     
   13.0452201991455     
 atom            7   x, y, z:    2.60236409666593        6.95435608939918     
   13.0452201991455     
 atom            8   x, y, z:    4.98906083876440        11.0882361089729     
   13.0452201991455     
 atom            9   x, y, z:    9.76783092250635        11.0779276855137     
   13.0452201991455     
 atom           10   x, y, z:    12.1366353085815        6.92756438125080     
   13.0452201991455     
 atom           11   x, y, z:    9.71513100967996        2.80772619179937     
   13.0452201991455     
 atom           12   x, y, z:    4.93661763066332        2.85831930813067     
   13.0452201991455     

[...]
   13.0452201991455     
 atom            5   x, y, z:    8.68006766724339        4.63560217457368     
   13.0452201991455     
 atom            5   x, y, z:    8.68007225580231        4.63559401602525     
   13.0452201991455     
 atom            6   x, y, z:    6.00715588227345        4.66564734461144     
   13.0452201991455     
 atom            6   x, y, z:    6.00715106552375        4.66563929178446     
   13.0452201991455     
 atom            7   x, y, z:    2.60236879961733        6.95435608939918     
   13.0452201991455     
 atom            7   x, y, z:    2.60235939371454        6.95435608939918     
   13.0452201991455     
 atom            8   x, y, z:    4.98906319024010        11.0882320360975     
   13.0452201991455     
 atom            8   x, y, z:    4.98905848728871        11.0882401818482     
   13.0452201991455     
 atom            9   x, y, z:    9.76782857104922        11.0779236258538     
   13.0452201991455     
 atom            9   x, y, z:    9.76783327396348        11.0779317451737     
   13.0452201991455     
 atom           10   x, y, z:    12.1366306285756        6.92756440761731     
   13.0452201991455     
 atom           10   x, y, z:    12.1366399885875        6.92756435488428     
   13.0452201991455     
 atom           11   x, y, z:    9.71512871540050        2.80773027107358     
   13.0452201991455     
 atom           11   x, y, z:    9.71513330395941        2.80772211252515     
   13.0452201991455     
 atom           12   x, y, z:    4.93662003903816        2.85832333454417     
   13.0452201991455     
 atom           12   x, y, z:    4.93661522228846        2.85831528171719     
   13.0452201991455     
 atom 1:    4.70295140573891        6.95419491020963     
   13.0452332443657     
 atom 1:    4.70295140573891        6.95419491020963     
   13.0452071539254     
 atom 2:    2.67308534566941        1.57079632679490     
   1.04719755119660     
 atom 2: x, y, z   6.03949407857361        9.26915472604325     
   13.0452332443657     
 atom 2:    2.67308534566941        1.57079632679490     
   1.04719755119660     
 atom 2: x, y, z   6.03949407857361        9.26915472604325     
   13.0452071539254     
 atom 3:    2.67308534566941        2.09158506720179     
   1.57079632679490     
 atom 3 x, y, z:    8.71256887051103        9.26164327203774     
   13.0452332443657     
 atom 3:    2.67308534566941        2.09158506720179     
   1.57079632679490     
 atom 3 x, y, z:    8.71256887051103        9.26164327203774     
   13.0452071539254     
 atom            4   x, y, z:    10.0360802673134        6.93920859098279     
   13.0452332443657     
 atom            4   x, y, z:    10.0360802673134        6.93920859098279     
   13.0452071539254     
 atom            5   x, y, z:    8.68006996152286        4.63559809529946     
   13.0452332443657     
 atom            5   x, y, z:    8.68006996152286        4.63559809529946     
   13.0452071539254     
 atom            6   x, y, z:    6.00715347389861        4.66564331819795     
   13.0452332443657     
 atom            6   x, y, z:    6.00715347389861        4.66564331819795     
   13.0452071539254     
 atom            7   x, y, z:    2.60236409666593        6.95435608939918     
   13.0452332443657     
 atom            7   x, y, z:    2.60236409666593        6.95435608939918     
   13.0452071539254     
 atom            8   x, y, z:    4.98906083876440        11.0882361089729     
   13.0452332443657     
 atom            8   x, y, z:    4.98906083876440        11.0882361089729     
   13.0452071539254     
 atom            9   x, y, z:    9.76783092250635        11.0779276855137     
   13.0452332443657     
 atom            9   x, y, z:    9.76783092250635        11.0779276855137     
   13.0452071539253     
 atom           10   x, y, z:    12.1366353085815        6.92756438125080     
   13.0452332443657     
 atom           10   x, y, z:    12.1366353085815        6.92756438125080     
   13.0452071539253     
 atom           11   x, y, z:    9.71513100967996        2.80772619179937     
   13.0452332443657     
 atom           11   x, y, z:    9.71513100967996        2.80772619179937     
   13.0452071539254     
 atom           12   x, y, z:    4.93661763066332        2.85831930813067     
   13.0452332443657     
 atom           12   x, y, z:    4.93661763066332        2.85831930813067     
   13.0452071539254     
 atom 3:    2.67308534566941        2.09158715878685     
   1.57079632679490     
 atom 3 x, y, z:    8.71256888621603        9.26164886300106     
   13.0452201991455     
 atom 3:    2.67308534566941        2.09158297561672     
   1.57079632679490     
 atom 3 x, y, z:    8.71256885479434        9.26163768107445     
   13.0452201991455     
 atom            4   x, y, z:    10.0360899981462        6.93921971843977     
   13.0452201991455     
 atom            4   x, y, z:    10.0360705364458        6.93919746356649     
   13.0452201991455     
 atom            5   x, y, z:    8.68009414697425        4.63560071416909     
   13.0452201991455     
 atom            5   x, y, z:    8.68004577609000        4.63559547656121     
   13.0452201991455     
 atom            6   x, y, z:    6.00717740807499        4.66562357453773     
   13.0452201991455     
 atom            6   x, y, z:    6.00712953992785        4.66566306198743     
   13.0452201991455     
 atom            7   x, y, z:    2.60236409666593        6.95435608939918     
   13.0452201991455     
 atom            7   x, y, z:    2.60236409666593        6.95435608939918     
   13.0452201991455     
 atom            8   x, y, z:    4.98906083876440        11.0882361089729     
   13.0452201991455     
 atom            8   x, y, z:    4.98906083876440        11.0882361089729     
   13.0452201991455     
 atom            9   x, y, z:    9.76782713929569        11.0779354836434     
   13.0452201991455     
 atom            9   x, y, z:    9.76783470570069        11.0779198873761     
   13.0452201991455     
 atom           10   x, y, z:    12.1366450881056        6.92758429568697     
   13.0452201991455     
 atom           10   x, y, z:    12.1366255289858        6.92754446685550     
   13.0452201991455     
 atom           11   x, y, z:    9.71516666455968        2.80773530545966     
   13.0452201991455     
 atom           11   x, y, z:    9.71509535477802        2.80771707834241     
   13.0452201991455     
 atom           12   x, y, z:    4.93665668556477        2.85829060806660     
   13.0452201991455     
 atom           12   x, y, z:    4.93657857604242        2.85834800845052     
   13.0452201991455     
 atom            7   x, y, z:    2.60236199607863        6.95435608956036     
   13.0452201991455     
 atom            7   x, y, z:    2.60236619725324        6.95435608923800     
   13.0452201991455     
 atom            8   x, y, z:    4.98905978833117        11.0882379280542     
   13.0452201991455     
 atom            8   x, y, z:    4.98906188919764        11.0882342898915     
   13.0452201991455     
 atom            9   x, y, z:    9.76783197776840        11.0779295017981     
   13.0452201991455     
 atom            9   x, y, z:    9.76782986724430        11.0779258692293     
   13.0452201991455     
 atom           10   x, y, z:    12.1366374091366        6.92756436960659     
   13.0452201991455     
 atom           10   x, y, z:    12.1366332080265        6.92756439289501     
   13.0452201991455     
 atom           11   x, y, z:    9.71513204474101        2.80772436392747     
   13.0452201991455     
 atom           11   x, y, z:    9.71512997461892        2.80772801967126     
   13.0452201991455     
 atom           12   x, y, z:    4.93661656012748        2.85831750080667     
   13.0452201991455     
 atom           12   x, y, z:    4.93661870119916        2.85832111545468     
   13.0452201991455     
 atom            7   x, y, z:    2.60236409633298        6.95435169010060     
   13.0452201991455     
 atom            7   x, y, z:    2.60236409700810        6.95436048869776     
   13.0452201991455     
 atom            8   x, y, z:    4.98906464850226        11.0882383089105     
   13.0452201991455     
 atom            8   x, y, z:    4.98905702903116        11.0882339090272     
   13.0452201991455     
 atom            9   x, y, z:    9.76783472638184        11.0779254754550     
   13.0452201991455     
 atom            9   x, y, z:    9.76782711862623        11.0779298955644     
   13.0452201991455     
 atom           10   x, y, z:    12.1366352841902        6.92755998201982     
   13.0452201991455     
 atom           10   x, y, z:    12.1366353329636        6.92756878048183     
   13.0452201991455     
 atom           11   x, y, z:    9.71512718153199        2.80772402405601     
   13.0452201991455     
 atom           11   x, y, z:    9.71513483782339        2.80772835955074     
   13.0452201991455     
 atom           12   x, y, z:    4.93661384555380        2.85832155017751     
   13.0452201991455     
 atom           12   x, y, z:    4.93662141577753        2.85831706609176     
   13.0452201991455     

zmatrix: Atomic forces (eV/Ang ; eV/deg )
zmatrix: (No information if symbols are used)
molecule    1 (    12 atoms)
     1    0.000000    0.000000    0.000000
     2    0.000000    0.000000    0.000000
     3    0.000000    0.000000    0.000000
     4    0.000000    0.000000    0.000000
     5    0.000000    0.000000    0.000000
     6    0.000000    0.000000    0.000000
     7    0.000000    0.000000    0.000000
     8    0.000000    0.000000    0.000000
     9    0.000000    0.000000    0.000000
    10    0.000000    0.000000    0.000000
    11    0.000000    0.000000    0.000000
    12    0.000000    0.000000    0.000000


Variable forces (eV/Ang ; eV/deg )
 xm1          3.86707327086424     
 zm1         1.810020385259822E-003
 ccc         1.550745106451319E-002
 ch         -0.715612053842694     
 cch        -9.205698890239654E-004

siesta: Atomic forces (eV/Ang):
----------------------------------------
   Tot    0.006785   -0.000687    0.001810
----------------------------------------
   Max    0.697502
   Res    0.288316    sqrt( Sum f_i^2 / 3N )
----------------------------------------
   Max    0.697502    constrained

Stress-tensor-Voigt (kbar):        6.88        5.43       -0.05        1.14        0.00        0.00
Target enthalpy (eV/cell)    -1023.8606
 atom 1:    4.70826411959765        6.95419491020963     
   13.0452222513183     
 atom 2:    2.66777263181067        1.57079632679490     
   1.04719755119660     
 atom 2: x, y, z   6.04215043550298        9.26455378087854     
   13.0452222513183     
 atom 3:    2.66777263181067        2.09205787731165     
   1.57079632679490     
 atom 3 x, y, z:    8.70991578080146        9.25831860144836     
   13.0452222513182     
 atom            4   x, y, z:    10.0329879056321        6.94174980956366     
   13.0452222513182     
 atom            5   x, y, z:    8.68293502554972        4.64080043245445     
   13.0452222513182     
 atom            6   x, y, z:    6.01527897713807        4.66574080957221     
   13.0452222513183     
 atom            7   x, y, z:    2.60862607382902        6.95461895400394     
   13.0452222513183     
 atom            8   x, y, z:    4.99196417992047        11.0826816453693     
   13.0452222513182     
 atom            9   x, y, z:    9.76361506587258        11.0744127398930     
   13.0452222513182     
 atom           10   x, y, z:    12.1326049945528        6.93235923106220     
   13.0452222513182     
 atom           11   x, y, z:    9.72034744809286        2.81535375599266     
   13.0452222513182     
 atom           12   x, y, z:    4.94887183580820        2.85707945045246     
   13.0452222513183     

* Maximum dynamic memory allocated =    31 MB

outcoor: Final (unrelaxed) atomic coordinates (Ang):        
    2.49150508    3.68000000    6.90323158   2       1  C
    3.19736704    4.90258878    6.90323158   2       2  C
    4.60908710    4.89928926    6.90323158   2       3  C
    5.30922644    3.67341434    6.90323158   2       4  C
    4.59480951    2.45580485    6.90323158   2       5  C
    3.18314728    2.46900272    6.90323158   2       6  C
    1.38042492    3.68022439    6.90323158   1       7  H
    2.64163263    5.86470023    6.90323158   1       8  H
    5.16668053    5.86032451    6.90323158   1       9  H
    6.42029551    3.66844506    6.90323158   1      10  H
    5.14378430    1.48982045    6.90323158   1      11  H
    2.61882915    1.51190073    6.90323158   1      12  H

zmatrix: Z-matrix coordinates: (Ang ; deg )
zmatrix: (Fractional coordinates have been converted to cartesian)
molecule    1 (    12 atoms)
      2.49150508      3.68000000      6.90323158
      1.41172392     90.00000000     60.00000000
      1.41172392    119.86608687     90.00000000
      1.41172392    119.86608687      0.00000000
      1.41172392    119.86608687      0.00000000
      1.41172392    119.86608687      0.00000000
      1.11108018    119.98842852    180.00000000
      1.11108018    119.98842852      0.00000000
      1.11108018    119.98842852      0.00000000
      1.11108018    119.98842852      0.00000000
      1.11108018    119.98842852      0.00000000
      1.11108018    119.98842852      0.00000000


Z-matrix Symbol Section -------
Variables
 xm1          2.49150508201633     
 zm1          6.90323157528584     
 ccc          119.866086867056     
 ch           1.11108018480508     
 cch          119.988428520115     
Constants
 ym1          3.68000000000000     
 cc           1.41172391798367     
------------ End of Z-matrix Information


siesta: Program's energy decomposition (eV):
siesta: Eions   =      1613.953835
siesta: Ena     =       340.472687
siesta: Ekin    =       731.905814
siesta: Enl     =      -119.221232
siesta: DEna    =       -33.746079
siesta: DUscf   =         3.778059
siesta: DUext   =         0.000000
siesta: Exc     =      -333.096005
siesta: eta*DQ  =         0.000000
siesta: Emadel  =         0.000000
siesta: Emeta   =         0.000000
siesta: Emolmec =         0.000000
siesta: Ekinion =         0.000000
siesta: Eharris =     -1023.860525
siesta: Etot    =     -1023.860591
siesta: FreeEng =     -1023.860591

siesta: Final energy (eV):
siesta:       Kinetic =     731.905814
siesta:       Hartree =    1840.153132
siesta:    Ext. field =       0.000000
siesta:   Exch.-corr. =    -333.096005
siesta:  Ion-electron =   -4335.093145
siesta:       Ion-ion =    1072.269613
siesta:       Ekinion =       0.000000
siesta:         Total =   -1023.860591

siesta: Atomic forces (eV/Ang):
siesta:      1    0.220753    0.678814    0.000243
siesta:      2    0.411389   -0.534009    0.000347
siesta:      3   -0.426082   -0.556827    0.000301
siesta:      4   -0.696035   -0.049099    0.000124
siesta:      5   -0.235284    0.627562    0.000106
siesta:      6    0.697502   -0.161478   -0.000085
siesta:      7    0.114897    0.033961   -0.000459
siesta:      8    0.068186   -0.103394   -0.000266
siesta:      9   -0.053978   -0.108845    0.000101
siesta:     10   -0.123406   -0.008354   -0.000350
siesta:     11   -0.060901    0.105633    0.000986
siesta:     12    0.089745    0.075350    0.000763
siesta: ----------------------------------------
siesta:    Tot    0.006785   -0.000687    0.001810

siesta: Stress tensor (static) (eV/Ang**3):
siesta:     0.004292    0.000713    0.000001
siesta:     0.000714    0.003389    0.000001
siesta:     0.000001    0.000001   -0.000033

siesta: Cell volume =        814.011582 Ang**3

siesta: Pressure (static):
siesta:                Solid            Molecule  Units
siesta:          -0.00002776          0.00000013  Ry/Bohr**3
siesta:          -0.00254925          0.00001168  eV/Ang**3
siesta:          -4.08438941          0.01870790  kBar

siesta: Electric dipole (a.u.)  =   -0.001089   -0.000298   -0.000066
siesta: Electric dipole (Debye) =   -0.002767   -0.000758   -0.000169

* Maximum dynamic memory allocated : Node    0 =    31 MB

* Maximum memory occured during poison                        

timer: CPU execution times:
timer:  Routine       Calls   Time/call    Tot.time        %
timer:  siesta            1      89.567      89.567   100.00
timer:  Setup             1       0.581       0.581     0.65
timer:  bands             1       0.000       0.000     0.00
timer:  writewave         1       0.001       0.001     0.00
timer:  KSV_init          1       0.000       0.000     0.00
timer:  IterMD            5      17.796      88.978    99.34
timer:  hsparse           6       0.047       0.282     0.31
timer:  overfsm          10       0.099       0.986     1.10
timer:  IterSCF          37       2.373      87.805    98.03
timer:  kinefsm          10       0.094       0.937     1.05
timer:  nlefsm           10       0.266       2.663     2.97
timer:  DHSCF            37       2.239      82.861    92.51
timer:  DHSCF1            1       0.186       0.186     0.21
timer:  DHSCF2            5       2.184      10.918    12.19
timer:  REORD           306       0.002       0.701     0.78
timer:  POISON           42       0.187       7.865     8.78
timer:  DHSCF3           37       1.622      60.006    67.00
timer:  rhoofd           37       0.569      21.050    23.50
timer:  cellXC           37       0.120       4.439     4.96
timer:  vmat             37       0.670      24.799    27.69
timer:  diagon           32       0.027       0.850     0.95
timer:  rdiag            32       0.025       0.791     0.88
timer:  rdiag1           32       0.002       0.058     0.06
timer:  rdiag2           32       0.004       0.132     0.15
timer:  rdiag3           32       0.017       0.542     0.61
timer:  rdiag4           32       0.002       0.057     0.06
timer:  MolMec           10       0.000       0.000     0.00
timer:  DHSCF4            5       2.331      11.657    13.02
timer:  dfscf             5       2.113      10.567    11.80
timer:  optical           1       0.001       0.001     0.00
  

elaps: ELAPSED times:
elaps:  Routine       Calls   Time/call    Tot.time        %
elaps:  siesta            1      89.571      89.571   100.00
elaps:  Setup             1       0.581       0.581     0.65
elaps:  bands             1       0.000       0.000     0.00
elaps:  writewave         1       0.001       0.001     0.00
elaps:  KSV_init          1       0.000       0.000     0.00
elaps:  IterMD            5      17.796      88.982    99.34
elaps:  hsparse           6       0.047       0.279     0.31
elaps:  overfsm          10       0.099       0.987     1.10
elaps:  IterSCF          37       2.373      87.807    98.03
elaps:  kinefsm          10       0.094       0.939     1.05
elaps:  nlefsm           10       0.266       2.663     2.97
elaps:  DHSCF            37       2.240      82.868    92.52
elaps:  DHSCF1            1       0.186       0.186     0.21
elaps:  DHSCF2            5       2.183      10.917    12.19
elaps:  REORD           306       0.002       0.706     0.79
elaps:  POISON           42       0.187       7.860     8.78
elaps:  DHSCF3           37       1.622      60.009    67.00
elaps:  rhoofd           37       0.569      21.046    23.50
elaps:  cellXC           37       0.120       4.443     4.96
elaps:  vmat             37       0.670      24.804    27.69
elaps:  diagon           32       0.027       0.850     0.95
elaps:  rdiag            32       0.025       0.795     0.89
elaps:  rdiag1           32       0.002       0.057     0.06
elaps:  rdiag2           32       0.004       0.132     0.15
elaps:  rdiag3           32       0.017       0.542     0.61
elaps:  rdiag4           32       0.002       0.059     0.07
elaps:  MolMec           10       0.000       0.000     0.00
elaps:  DHSCF4            5       2.332      11.660    13.02
elaps:  dfscf             5       2.114      10.570    11.80
elaps:  optical           1       0.000       0.000     0.00
  
>> End of run:   5-FEB-2007  16:41:06
