Siesta Version: siesta-4.0--527
Architecture  : x86_64-linux-n-62-18-14
Compiler flags: mpifort -m64 -fPIC -O3 -march=native -ftree-vectorize -fexpensive-optimizatioons -funroll-loops -fprefetch-loop-arrays -fno-second-underscore 
PP flags      : -I/zdata/groups/common/nicpa/2016-oct/generic/build-tools/1.0/include -I/zdatta/groups/common/nicpa/2016-oct/generic/gmp/6.1.0/include -I/zdata/groups/common/nicpa/2016-oct/generic/mpfr/3.1.4/include -I/zdata/groups/common/nicpa/2016-oct/generic/mpc/1.0.3/include -I/zdata/groups/common/nicpa/2016-oct/generic/isl/0.16.1/include -I/zdata/groups/common/nicpa/2016-oct/generic/gcc/6.2.0/include -I/zdata/groups/common/nicpa/2016-oct/generic/numactl/2.0.11/include -I/zdata/groups/common/nicpa/2016-oct/XeonE5-2665/zlib/1.2.8/gnu-6.2.0/include -I/zdata/groups/common/nicpa/2016-oct/XeonE5-2665/libxml2/2.9.4/gnu-6.2.0/include -I/zdata/groups/common/nicpa/2016-oct/XeonE5-2665/hwloc/1.11.4/gnu-6.2.0/include -I/zdata/groups/common/nicpa/2016-oct/XeonE5-2665/openmpi/2.0.1/gnu-6.2.0/include -I/zdata/groups/common/nicpa/2016-oct/XeonE5-2665/hdf5/1.8.17/gnu-6.2.0/include -I/zdata/groups/common/nicpa/2016-oct/XeonE5-2665/pnetcdf/1.7.0/gnu-6.2.0/include -I/zdata/groups/common/nicpa/2016-oct/XeonE5-2665/netcdf/4.4.1/gnu-6.2.0/include -I/zdata/groups/common/nicpa/2016-oct/XeonE5-2665/flook/0.7.0/gnu-6.2.0/include -I/zdata/groups/common/nicpa/2016-oct/XeonE5-2665/parmetis/4.0.3/gnu-6.2.0/include -I/zdata/groups/common/nicpa/2016-oct/XeonE5-2665/scalapack/204/gnu-6.2.0/include -I/zdata/groups/common/nicpa/2016-oct/XeonE5-2665/openblas/0.2.19/gnu-6.2.0/include -I/zdata/groups/common/nicpa/2016-oct/XeonE5-2665/mumps/5.0.2/gnu-6.2.0/include -I/zdata/groups/common/nicpa/2016-oct/XeonE5-2665/fftw/3.3.5/gnu-6.2.0/include -DMPI -DFC_HAVE_FLUSH -DFC_HAVE_ABORT -DCDF  -DSIESTA__METIS -DSIESTA__MUMPS -DTS_NOCHECKS -DSIESTA__FLOOK  
PARALLEL version
NetCDF support

* Running on    8 nodes in parallel
>> Start of run:   2-JUL-2017  11:46:35

                           ***********************       
                           *  WELCOME TO SIESTA  *       
                           ***********************       

reinit: Reading from standard input
************************** Dump of input data file ****************************
SystemName benzene
SystemLabel benzene
NumberOfSpecies 2
NumberOfAtoms   12
%block ChemicalSpeciesLabel
1    1 H
2    6 C
%endblock ChemicalSpeciesLabel
%block PS.Lmax
  C 2
%endblock PS.Lmax
AtomicCoordinatesFormat NotScaledCartesianAng
ZM.ForceTolLength 0.04 eV/Ang
ZM.ForceTolAngle 0.0001 eV/deg
ZM.MaxDisplLength 0.1 Ang
ZM.MaxDisplAngle 20.0 deg
%block Zmatrix
molecule
      2 0 0 0 xm1 ym1 zm1 0 0 0
      2 1 0 0 CC 90.0 60.0 0 0 0
      2 2 1 0 CC CCC 90.0 0 0 0
      2 3 2 1 CC CCC 0.0 0 0 0
      2 4 3 2 CC CCC 0.0 0 0 0
      2 5 4 3 CC CCC 0.0 0 0 0
      1 1 2 3 CH CCH 180.0 0 0 0
      1 2 1 7 CH CCH 0.0 0 0 0
      1 3 2 8 CH CCH 0.0 0 0 0
      1 4 3 9 CH CCH 0.0 0 0 0
      1 5 4 10 CH CCH 0.0 0 0 0
      1 6 5 11 CH CCH 0.0 0 0 0
constants
        ym1 3.68
variables
        zm1 6.9032294
        CC 1.417
        CH 1.112
        CCH 120.0
        CCC 120.0
constraints
        xm1 CC -1.0 3.903229
%endblock Zmatrix
ZM.UnitsLength Ang
ZM.UnitsAngle deg
MD.TypeOfRun CG
MD.NumCGsteps 4
MeshCutoff 120 Ry
PAO.EnergyShift 0.01 Ry
DM.NumberPulay 5
DM.MixingWeight 0.3
************************** End of input data file *****************************

reinit: -----------------------------------------------------------------------
reinit: System Name: benzene
reinit: -----------------------------------------------------------------------
reinit: System Label: benzene                                                     
reinit: -----------------------------------------------------------------------

initatom: Reading input for the pseudopotentials and atomic orbitals ----------
 Species number:            1  Label: H Atomic number:           1
 Species number:            2  Label: C Atomic number:           6
Ground state valence configuration:   1s01
Reading pseudopotential information in formatted form from H.psf

Valence configuration for pseudopotential generation:
1s( 1.00) rc: 1.25
2p( 0.00) rc: 1.25
3d( 0.00) rc: 1.25
4f( 0.00) rc: 1.25
Ground state valence configuration:   2s02  2p02
Reading pseudopotential information in formatted form from C.psf

Valence configuration for pseudopotential generation:
2s( 2.00) rc: 1.49
2p( 2.00) rc: 1.52
3d( 0.00) rc: 1.58
relmxkb: Read Max KB Ang. Momentum=    2 for species C
For H, standard SIESTA heuristics set lmxkb to 2
 (one more than the basis l, including polarization orbitals).
Use PS.lmax or PS.KBprojectors blocks to override.

<basis_specs>
===============================================================================
H                    Z=   1    Mass=  1.0100        Charge= 0.17977+309
Lmxo=0 Lmxkb= 2    BasisType=split      Semic=F
L=0  Nsemic=0  Cnfigmx=1
          n=1  nzeta=2  polorb=1
            splnorm:   0.15000    
               vcte:    0.0000    
               rinn:    0.0000    
               qcoe:    0.0000    
               qyuk:    0.0000    
               qwid:   0.10000E-01
                rcs:    0.0000      0.0000    
            lambdas:    1.0000      1.0000    
-------------------------------------------------------------------------------
L=0  Nkbl=1  erefs: 0.17977+309
L=1  Nkbl=1  erefs: 0.17977+309
L=2  Nkbl=1  erefs: 0.17977+309
===============================================================================
</basis_specs>

atom: Called for H                     (Z =   1)

read_vps: Pseudopotential generation method:
read_vps: ATM3      Troullier-Martins                       
Total valence charge:    1.00000

xc_check: Exchange-correlation functional:
xc_check: Ceperley-Alder
V l=0 = -2*Zval/r beyond r=  1.2343
V l=1 = -2*Zval/r beyond r=  1.2189
V l=2 = -2*Zval/r beyond r=  1.2189
All V_l potentials equal beyond r=  1.2343
This should be close to max(r_c) in ps generation
All pots = -2*Zval/r beyond r=  1.2343

VLOCAL1: 99.0% of the norm of Vloc inside     28.493 Ry
VLOCAL1: 99.9% of the norm of Vloc inside     64.935 Ry
atom: Maximum radius for 4*pi*r*r*local-pseudopot. charge    1.45251
atom: Maximum radius for r*vlocal+2*Zval:    1.21892
GHOST: No ghost state for L =  0
GHOST: No ghost state for L =  1
GHOST: No ghost state for L =  2

KBgen: Kleinman-Bylander projectors: 
   l= 0   rc=  1.364359   el= -0.467325   Ekb= -2.005361   kbcos= -0.336422
   l= 1   rc=  1.434438   el=  0.001430   Ekb= -0.501708   kbcos= -0.021697
   l= 2   rc=  1.470814   el=  0.002365   Ekb= -0.190555   kbcos= -0.002281

KBgen: Total number of  Kleinman-Bylander projectors:    9
atom: -------------------------------------------------------------------------

atom: SANKEY-TYPE ORBITALS:
atom: Selected multiple-zeta basis: split     

SPLIT: Orbitals with angular momentum L= 0

SPLIT: Basis orbitals for state 1s

SPLIT: PAO cut-off radius determined from an
SPLIT: energy shift=  0.010000 Ry

   izeta = 1
                 lambda =    1.000000
                     rc =    5.336316
                 energy =   -0.457946
                kinetic =    0.886710
    potential(screened) =   -1.344656
       potential(ionic) =   -1.876618

   izeta = 2
                 rmatch =    4.002347
              splitnorm =    0.150000
                 energy =   -0.355904
                kinetic =    1.439488
    potential(screened) =   -1.795392
       potential(ionic) =   -2.364690

POLgen: Perturbative polarization orbital with L=  1

POLgen: Polarization orbital for state 1s

   izeta = 1
                     rc =    5.336316
                 energy =    0.616245
                kinetic =    1.262150
    potential(screened) =   -0.645906
       potential(ionic) =   -1.116519
atom: Total number of Sankey-type orbitals:  5

atm_pop: Valence configuration (for local Pseudopot. screening):
 1s( 1.00)                                                            
Vna: chval, zval:    1.00000   1.00000

Vna:  Cut-off radius for the neutral-atom potential:   5.336316

atom: _________________________________________________________________________

<basis_specs>
===============================================================================
C                    Z=   6    Mass=  12.010        Charge= 0.17977+309
Lmxo=1 Lmxkb= 2    BasisType=split      Semic=F
L=0  Nsemic=0  Cnfigmx=2
          n=1  nzeta=2  polorb=0
            splnorm:   0.15000    
               vcte:    0.0000    
               rinn:    0.0000    
               qcoe:    0.0000    
               qyuk:    0.0000    
               qwid:   0.10000E-01
                rcs:    0.0000      0.0000    
            lambdas:    1.0000      1.0000    
L=1  Nsemic=0  Cnfigmx=2
          n=1  nzeta=2  polorb=1
            splnorm:   0.15000    
               vcte:    0.0000    
               rinn:    0.0000    
               qcoe:    0.0000    
               qyuk:    0.0000    
               qwid:   0.10000E-01
                rcs:    0.0000      0.0000    
            lambdas:    1.0000      1.0000    
-------------------------------------------------------------------------------
L=0  Nkbl=1  erefs: 0.17977+309
L=1  Nkbl=1  erefs: 0.17977+309
L=2  Nkbl=1  erefs: 0.17977+309
===============================================================================
</basis_specs>

atom: Called for C                     (Z =   6)

read_vps: Pseudopotential generation method:
read_vps: ATM3      Troullier-Martins                       
Total valence charge:    4.00000

xc_check: Exchange-correlation functional:
xc_check: Ceperley-Alder
V l=0 = -2*Zval/r beyond r=  1.4666
V l=1 = -2*Zval/r beyond r=  1.5038
V l=2 = -2*Zval/r beyond r=  1.5612
All V_l potentials equal beyond r=  1.5612
This should be close to max(r_c) in ps generation
All pots = -2*Zval/r beyond r=  1.5612

VLOCAL1: 99.0% of the norm of Vloc inside     17.809 Ry
VLOCAL1: 99.9% of the norm of Vloc inside     40.586 Ry
atom: Maximum radius for 4*pi*r*r*local-pseudopot. charge    1.88329
atom: Maximum radius for r*vlocal+2*Zval:    1.62091
GHOST: No ghost state for L =  0
GHOST: No ghost state for L =  1
GHOST: No ghost state for L =  2

KBgen: Kleinman-Bylander projectors: 
   l= 0   rc=  1.747182   el= -1.001947   Ekb=  5.181700   kbcos=  0.300603
   l= 1   rc=  1.747182   el= -0.398598   Ekb= -4.328763   kbcos= -0.367074
   l= 2   rc=  1.955272   el=  0.002326   Ekb= -1.016175   kbcos= -0.009979

KBgen: Total number of  Kleinman-Bylander projectors:    9
atom: -------------------------------------------------------------------------

atom: SANKEY-TYPE ORBITALS:
atom: Selected multiple-zeta basis: split     

SPLIT: Orbitals with angular momentum L= 0

SPLIT: Basis orbitals for state 2s

SPLIT: PAO cut-off radius determined from an
SPLIT: energy shift=  0.010000 Ry

   izeta = 1
                 lambda =    1.000000
                     rc =    4.518360
                 energy =   -0.992087
                kinetic =    0.856755
    potential(screened) =   -1.848843
       potential(ionic) =   -5.436865

   izeta = 2
                 rmatch =    3.475094
              splitnorm =    0.150000
                 energy =   -0.853594
                kinetic =    1.308346
    potential(screened) =   -2.161940
       potential(ionic) =   -6.002045

SPLIT: Orbitals with angular momentum L= 1

SPLIT: Basis orbitals for state 2p

SPLIT: PAO cut-off radius determined from an
SPLIT: energy shift=  0.010000 Ry

   izeta = 1
                 lambda =    1.000000
                     rc =    5.382558
                 energy =   -0.388318
                kinetic =    2.456485
    potential(screened) =   -2.844804
       potential(ionic) =   -6.312273

   izeta = 2
                 rmatch =    3.607901
              splitnorm =    0.150000
                 energy =   -0.250655
                kinetic =    3.636791
    potential(screened) =   -3.887446
       potential(ionic) =   -7.736789

POLgen: Perturbative polarization orbital with L=  2

POLgen: Polarization orbital for state 2p

   izeta = 1
                     rc =    5.382558
                 energy =    1.148490
                kinetic =    2.389078
    potential(screened) =   -1.240587
       potential(ionic) =   -4.090578
atom: Total number of Sankey-type orbitals: 13

atm_pop: Valence configuration (for local Pseudopot. screening):
 2s( 2.00)                                                            
 2p( 2.00)                                                            
Vna: chval, zval:    4.00000   4.00000

Vna:  Cut-off radius for the neutral-atom potential:   5.382558

atom: _________________________________________________________________________

prinput: Basis input ----------------------------------------------------------

PAO.BasisType split     

%block ChemicalSpeciesLabel
    1    1 H                       # Species index, atomic number, species label
    2    6 C                       # Species index, atomic number, species label
%endblock ChemicalSpeciesLabel

%block PAO.Basis                 # Define Basis set
H                     1                    # Species label, number of l-shells
 n=1   0   2 P   1                   # n, l, Nzeta, Polarization, NzetaPol
   5.336      4.002   
   1.000      1.000   
C                     2                    # Species label, number of l-shells
 n=2   0   2                         # n, l, Nzeta 
   4.518      3.475   
   1.000      1.000   
 n=2   1   2 P   1                   # n, l, Nzeta, Polarization, NzetaPol
   5.383      3.608   
   1.000      1.000   
%endblock PAO.Basis

prinput: ----------------------------------------------------------------------

Dumping basis to NetCDF file H.ion.nc
Dumping basis to NetCDF file C.ion.nc
coor:   Atomic-coordinates input format  =     Cartesian coordinates
coor:                                          (in Angstroms)
read_Zmatrix: Length units: Ang       
read_Zmatrix: Angle  units: deg       
read_Zmatrix: Force tolerances:
read_Zmatrix:    for lengths =     0.001556 Ry/Bohr
read_Zmatrix:    for angles  =     0.000421 Ry/rad

read_Zmatrix: Maximum displacements:
read_Zmatrix:    for lengths =     0.188973 Bohr
read_Zmatrix:    for angles  =     0.349066 rad
%block Zmatrix
molecule
      2 0 0 0 xm1 ym1 zm1 0 0 0
      2 1 0 0 CC 90.0 60.0 0 0 0
      2 2 1 0 CC CCC 90.0 0 0 0
      2 3 2 1 CC CCC 0.0 0 0 0
      2 4 3 2 CC CCC 0.0 0 0 0
      2 5 4 3 CC CCC 0.0 0 0 0
      1 1 2 3 CH CCH 180.0 0 0 0
      1 2 1 7 CH CCH 0.0 0 0 0
      1 3 2 8 CH CCH 0.0 0 0 0
      1 4 3 9 CH CCH 0.0 0 0 0
      1 5 4 10 CH CCH 0.0 0 0 0
      1 6 5 11 CH CCH 0.0 0 0 0
constants
        ym1 3.68
variables
        zm1 6.9032294
        CC 1.417
        CH 1.112
        CCH 120.0
        CCC 120.0
constraints
        xm1 CC -1.0 3.903229
%endblock Zmatrix
 nZmol:            1
 nSpecies:            2           2           2           2           2           2           1           1           1           1           1           1

zmatrix: Z-matrix coordinates: (Ang ; deg )
zmatrix: (Fractional coordinates have been converted to cartesian)
molecule    1 (    12 atoms)
      2.48622900      3.68000000      6.90322940
      1.41700000     90.00000000     60.00000000
      1.41700000    120.00000000     90.00000000
      1.41700000    120.00000000      0.00000000
      1.41700000    120.00000000      0.00000000
      1.41700000    120.00000000      0.00000000
      1.11200000    120.00000000    180.00000000
      1.11200000    120.00000000      0.00000000
      1.11200000    120.00000000      0.00000000
      1.11200000    120.00000000      0.00000000
      1.11200000    120.00000000      0.00000000
      1.11200000    120.00000000      0.00000000


Z-matrix Symbol Section -------
Variables
 xm1          2.4862289999999998     
 zm1          6.9032293999999998     
 CCC          120.00000000000017     
 CH           1.1120000000000001     
 CCH          120.00000000000017     
Constants
 ym1          3.6800000000000002     
 CC           1.4170000000000000     
------------ End of Z-matrix Information


siesta: Atomic coordinates (Bohr) and species
siesta:      4.69829   6.95419  13.04522  2        1
siesta:      6.03717   9.27319  13.04522  2        2
siesta:      8.71491   9.27319  13.04522  2        3
siesta:     10.05378   6.95419  13.04522  2        4
siesta:      8.71491   4.63520  13.04522  2        5
siesta:      6.03717   4.63520  13.04522  2        6
siesta:      2.59692   6.95419  13.04522  1        7
siesta:      4.98648  11.09303  13.04522  1        8
siesta:      9.76560  11.09303  13.04522  1        9
siesta:     12.15516   6.95419  13.04522  1       10
siesta:      9.76560   2.81536  13.04522  1       11
siesta:      4.98648   2.81536  13.04522  1       12

siesta: Automatic unit cell vectors (Ang):
siesta:   11.776283    0.000000    0.000000
siesta:    0.000000   11.030875    0.000000
siesta:    0.000000    0.000000    6.266317

siesta: System type = molecule  

initatomlists: Number of atoms, orbitals, and projectors:     12   108   108

siesta: ******************** Simulation parameters ****************************
siesta:
siesta: The following are some of the parameters of the simulation.
siesta: A complete list of the parameters used, including default values,
siesta: can be found in file out.fdf
siesta:
redata: Non-Collinear-spin run           =     F
redata: SpinPolarized (Up/Down) run      =     F
redata: Number of spin components        =     1
redata: Long output                      =     F
redata: Number of Atomic Species         =        2
redata: Charge density info will appear in .RHO file
redata: Write Mulliken Pop.              =     NO
redata: Mesh Cutoff                      =   120.0000  Ry
redata: Net charge of the system         =     0.0000 |e|
redata: Min. number of SCF Iter          =        0
redata: Max. number of SCF Iter          =       50
redata: Mix DM or H after convergence    =     F
redata: Recompute H after scf cycle      =     F
redata: Performing Pulay mixing using    =     5 iterations
redata: Mix DM in first SCF step ?       =     F
redata: Write Pulay info on disk?        =     F
redata: Discard 1st Pulay DM after  kick =     F
redata: New DM Mixing Weight             =     0.3000
redata: New DM Occupancy tolerance       = 0.000000000001
redata: No kicks to SCF
redata: DM Mixing Weight for Kicks       =     0.5000
redata: DM Tolerance for SCF             =     0.000100
redata: Require (free) Energy convergence in SCF =     F
redata: DM (free)Energy tolerance for SCF =     0.000010 eV
redata: Require Harris convergence for SCF =     F
redata: DM Harris energy tolerance for SCF =     0.000010 eV
redata: Using Saved Data (generic)   =     F
redata: Use continuation files for DM    =     F
redata: Neglect nonoverlap interactions  =     F
redata: Method of Calculation            =     Diagonalization
redata: Divide and Conquer               =     T
redata: Electronic Temperature           =     0.0019  Ry
redata: Fix the spin of the system       =     F
redata: Dynamics option                  =     CG coord. optimization
redata: Variable cell                    =     F
redata: Use continuation files for CG    =     F
redata: Max atomic displ per move        =     0.2000  Bohr
redata: Maximum number of CG moves       =        4
redata: Force tolerance                  =     0.0016  Ry/Bohr
redata: ***********************************************************************
Total number of electrons:    30.000000
Total ionic charge:    30.000000

* ProcessorY, Blocksize:    2  14


* Orbital distribution balance (max,min):    14    10

 Kpoints in:            1 . Kpoints trimmed:            1

siesta: k-grid: Number of k-points =     1
siesta: k-grid: Cutoff (effective) =     3.133 Ang
siesta: k-grid: Supercell and displacements
siesta: k-grid:    1   0   0      0.000
siesta: k-grid:    0   1   0      0.000
siesta: k-grid:    0   0   1      0.000

                     ====================================
                        Begin CG opt. move =      0

zmatrix: Z-matrix coordinates: (Ang ; deg )
zmatrix: (Fractional coordinates have been converted to cartesian)
molecule    1 (    12 atoms)
      2.48622900      3.68000000      6.90322940
      1.41700000     90.00000000     60.00000000
      1.41700000    120.00000000     90.00000000
      1.41700000    120.00000000      0.00000000
      1.41700000    120.00000000      0.00000000
      1.41700000    120.00000000      0.00000000
      1.11200000    120.00000000    180.00000000
      1.11200000    120.00000000      0.00000000
      1.11200000    120.00000000      0.00000000
      1.11200000    120.00000000      0.00000000
      1.11200000    120.00000000      0.00000000
      1.11200000    120.00000000      0.00000000


Z-matrix Symbol Section -------
Variables
 xm1          2.4862289999999998     
 zm1          6.9032293999999998     
 CCC          120.00000000000017     
 CH           1.1120000000000001     
 CCH          120.00000000000017     
Constants
 ym1          3.6800000000000002     
 CC           1.4170000000000000     
------------ End of Z-matrix Information

                     ====================================

outcell: Unit cell vectors (Ang):
       11.776283    0.000000    0.000000
        0.000000   11.030875    0.000000
        0.000000    0.000000    6.266317

outcell: Cell vector modules (Ang)   :   11.776283   11.030875    6.266317
outcell: Cell angles (23,13,12) (deg):     90.0000     90.0000     90.0000
outcell: Cell volume (Ang**3)        :    814.0116
New_DM. Step:     1
Initializing Density Matrix...
New grid distribution:   1
           1       1:   40    1:   20    1:    6
           2       1:   40    1:   20    7:   12
           3       1:   40    1:   20   13:   18
           4       1:   40    1:   20   19:   24
           5       1:   40   21:   40    1:    6
           6       1:   40   21:   40    7:   12
           7       1:   40   21:   40   13:   18
           8       1:   40   21:   40   19:   24

InitMesh: MESH =    80 x    80 x    48 =      307200
InitMesh: (bp) =    40 x    40 x    24 =       38400
InitMesh: Mesh cutoff (required, used) =   120.000   127.546 Ry
ExtMesh (bp) on 0 =    80 x    64 x    50 =      256000
New grid distribution:   2
           1       1:   14   15:   40    1:    6
           2       1:   14   15:   40    7:   24
           3      15:   40    1:   14    7:   24
           4       1:   14    1:   14    7:   24
           5      15:   40   15:   40    1:    6
           6      15:   40   15:   40    7:   24
           7      15:   40    1:   14    1:    6
           8       1:   14    1:   14    1:    6
New grid distribution:   3
           1      15:   40   16:   40    1:    8
           2      16:   40    1:   15    1:    9
           3      16:   40    1:   15   10:   24
           4       1:   15    1:   15    1:   10
           5       1:   15    1:   15   11:   24
           6       1:   14   16:   40    1:    9
           7      15:   40   16:   40    9:   24
           8       1:   14   16:   40   10:   24
Setting up quadratic distribution...
ExtMesh (bp) on 0 =    54 x    70 x    50 =      189000
PhiOnMesh: Number of (b)points on node 0 =                 2184
PhiOnMesh: nlist on node 0 =                45735

stepf: Fermi-Dirac step function

siesta: Program's energy decomposition (eV):
siesta: Ebs     =      -450.457966
siesta: Eions   =      1613.953835
siesta: Ena     =       340.728180
siesta: Ekin    =       613.333480
siesta: Enl     =       -32.517563
siesta: DEna    =         0.000002
siesta: DUscf   =         0.000000
siesta: DUext   =         0.000000
siesta: Exc     =      -317.548211
siesta: eta*DQ  =         0.000000
siesta: Emadel  =         0.000000
siesta: Emeta   =         0.000000
siesta: Emolmec =         0.000000
siesta: Ekinion =         0.000000
siesta: Eharris =     -1027.088399
siesta: Etot    =     -1009.957947
siesta: FreeEng =     -1009.957947

   scf: iscf   Eharris(eV)      E_KS(eV)   FreeEng(eV)    dDmax  Ef(eV)
   scf:    1    -1027.0884    -1009.9579    -1009.9579  1.95539 -7.7325
timer: Routine,Calls,Time,% =    IterSCF     1       0.110   9.27
   scf:    2    -1026.4534    -1021.6424    -1021.6424  0.28407 -1.6491
   scf:    3    -1023.9298    -1021.4695    -1021.4695  0.18913 -4.0581
   scf:    4    -1023.8477    -1023.1469    -1023.1469  0.03661 -4.5113
   scf:    5    -1023.8416    -1023.6519    -1023.6519  0.00786 -4.5244
   scf:    6    -1023.8404    -1023.7696    -1023.7696  0.00245 -4.4711
   scf:    7    -1023.8402    -1023.8308    -1023.8308  0.00026 -4.4698
   scf:    8    -1023.8402    -1023.8335    -1023.8335  0.00015 -4.4729
   scf:    9    -1023.8402    -1023.8393    -1023.8393  0.00007 -4.4730

SCF Convergence by dMax criterion
max |DM_out - DM_in|:     0.00007366
SCF cycle converged after    9 iterations

Using DM_out to compute the final energy and forces

siesta: E_KS(eV) =            -1023.8402

siesta: E_KS - E_eggbox =     -1023.8402

zmatrix: Atomic forces (eV/Ang ; eV/deg )
zmatrix: (No information if symbols are used)
molecule    1 (    12 atoms)
     1    0.000000    0.000000    0.000000
     2    0.000000    0.000000    0.000000
     3    0.000000    0.000000    0.000000
     4    0.000000    0.000000    0.000000
     5    0.000000    0.000000    0.000000
     6    0.000000    0.000000    0.000000
     7    0.000000    0.000000    0.000000
     8    0.000000    0.000000    0.000000
     9    0.000000    0.000000    0.000000
    10    0.000000    0.000000    0.000000
    11    0.000000    0.000000    0.000000
    12    0.000000    0.000000    0.000000


Variable forces (eV/Ang ; eV/deg )
 xm1          5.5609557191478745     
 zm1          3.1225820241967553E-003
 CCC        -0.11927937820646006     
 CH         -0.81539507647640375     
 CCH          5.9025725265249223E-005

siesta: Atomic forces (eV/Ang):
----------------------------------------
   Tot   -0.000715   -0.010410    0.003123
----------------------------------------
   Max    0.792151
   Res    0.327632    sqrt( Sum f_i^2 / 3N )
----------------------------------------
   Max    0.792151    constrained

Stress-tensor-Voigt (kbar):        8.66        8.62       -0.06        0.00        0.00        0.00
(Free)E + p*V (eV/cell)    -1026.7582
Target enthalpy (eV/cell)    -1023.8402

                     ====================================
                        Begin CG opt. move =      1

zmatrix: Z-matrix coordinates: (Ang ; deg )
zmatrix: (Fractional coordinates have been converted to cartesian)
molecule    1 (    12 atoms)
      2.56576628      3.68000000      6.90327406
      1.33746272     90.00000000     60.00000000
      1.33746272    100.00000000     90.00000000
      1.33746272    100.00000000      0.00000000
      1.33746272    100.00000000      0.00000000
      1.33746272    100.00000000      0.00000000
      1.10033756    120.00989705    180.00000000
      1.10033756    120.00989705      0.00000000
      1.10033756    120.00989705      0.00000000
      1.10033756    120.00989705      0.00000000
      1.10033756    120.00989705      0.00000000
      1.10033756    120.00989705      0.00000000


Z-matrix Symbol Section -------
Variables
 xm1          2.5657662774501842     
 zm1          6.9032740616886308     
 CCC          99.999999995433569     
 CH           1.1003375614364439     
 CCH          120.00989705448961     
Constants
 ym1          3.6800000000000002     
 CC           1.3374627225498159     
------------ End of Z-matrix Information

                     ====================================

outcell: Unit cell vectors (Ang):
       11.776283    0.000000    0.000000
        0.000000   11.030875    0.000000
        0.000000    0.000000    6.266317

outcell: Cell vector modules (Ang)   :   11.776283   11.030875    6.266317
outcell: Cell angles (23,13,12) (deg):     90.0000     90.0000     90.0000
outcell: Cell volume (Ang**3)        :    814.0116
New_DM. Step:     2
Re-using DM from previous geometry...
Re-using DM without extrapolation (not allowed)
Density Matrix sparsity pattern changed.
Note: For starting DM, Qtot, Tr[D*S] =         30.00000000         25.42668141
New grid distribution:   1
           1       1:   40    1:   20    1:    6
           2       1:   40    1:   20    7:   12
           3       1:   40    1:   20   13:   18
           4       1:   40    1:   20   19:   24
           5       1:   40   21:   40    1:    6
           6       1:   40   21:   40    7:   12
           7       1:   40   21:   40   13:   18
           8       1:   40   21:   40   19:   24

InitMesh: MESH =    80 x    80 x    48 =      307200
InitMesh: (bp) =    40 x    40 x    24 =       38400
InitMesh: Mesh cutoff (required, used) =   120.000   127.546 Ry
ExtMesh (bp) on 0 =    80 x    64 x    50 =      256000
New grid distribution:   2
           1       1:   11   15:   40    1:    7
           2      12:   40    1:   14    7:   24
           3       1:   11   15:   40    8:   24
           4       1:   11    1:   14    8:   24
           5      12:   40   15:   40    1:    7
           6      12:   40    1:   14    1:    6
           7      12:   40   15:   40    8:   24
           8       1:   11    1:   14    1:    7
New grid distribution:   3
           1      14:   40    1:   15    1:    9
           2       1:   13    1:   15   11:   24
           3      14:   40    1:   15   10:   24
           4       1:   13   16:   40   10:   24
           5      14:   40   16:   40    1:    8
           6       1:   13   16:   40    1:    9
           7      14:   40   16:   40    9:   24
           8       1:   13    1:   15    1:   10
Setting up quadratic distribution...
ExtMesh (bp) on 0 =    51 x    70 x    51 =      182070
PhiOnMesh: Number of (b)points on node 0 =                 2002
PhiOnMesh: nlist on node 0 =                50050

   scf: iscf   Eharris(eV)      E_KS(eV)   FreeEng(eV)    dDmax  Ef(eV)
   scf:    1     -937.7927     -858.3997     -858.3997  5.16242 -6.3192
   scf:    2    -1138.4158     -777.6010     -777.6014  8.68086  1.9941
   scf:    3     -879.3612     -842.7059     -842.7059  1.17014 -5.2020
   scf:    4     -873.1540     -843.5857     -843.5876  0.84789 -4.0644
   scf:    5     -872.8044     -847.3948     -847.3961  0.73237 -3.9403
   scf:    6     -872.1130     -860.4300     -860.4531  0.91028 -3.3293
   scf:    7     -871.9067     -863.2225     -863.2321  0.39754 -3.1542
   scf:    8     -871.8449     -871.0804     -871.1083  0.12162 -2.8929
   scf:    9     -871.8366     -871.5527     -871.5835  0.05193 -2.9057
   scf:   10     -871.8347     -871.7281     -871.7603  0.02622 -2.9135
   scf:   11     -871.8347     -871.7582     -871.7895  0.02006 -2.9452
   scf:   12     -871.8342     -871.8231     -871.8548  0.00267 -2.9445
   scf:   13     -871.8345     -871.8200     -871.8514  0.00256 -2.9404
   scf:   14     -871.8343     -871.8412     -871.8727  0.00081 -2.9393
   scf:   15     -871.8343     -871.8387     -871.8702  0.00021 -2.9392
   scf:   16     -871.8343     -871.8352     -871.8667  0.00009 -2.9395

SCF Convergence by dMax criterion
max |DM_out - DM_in|:     0.00009075
SCF cycle converged after   16 iterations

Using DM_out to compute the final energy and forces

siesta: E_KS(eV) =             -871.8343

zmatrix: Atomic forces (eV/Ang ; eV/deg )
zmatrix: (No information if symbols are used)
molecule    1 (    12 atoms)
     1    0.000000    0.000000    0.000000
     2    0.000000    0.000000    0.000000
     3    0.000000    0.000000    0.000000
     4    0.000000    0.000000    0.000000
     5    0.000000    0.000000    0.000000
     6    0.000000    0.000000    0.000000
     7    0.000000    0.000000    0.000000
     8    0.000000    0.000000    0.000000
     9    0.000000    0.000000    0.000000
    10    0.000000    0.000000    0.000000
    11    0.000000    0.000000    0.000000
    12    0.000000    0.000000    0.000000


Variable forces (eV/Ang ; eV/deg )
 xm1         -435.40014959883320     
 zm1          7.1313907437114245E-003
 CCC          19.614991896167513     
 CH           32.667122642068193     
 CCH          3.1720579025870603E-002

siesta: Atomic forces (eV/Ang):
----------------------------------------
   Tot   -0.009591    0.049768    0.007131
----------------------------------------
   Max  229.871864
   Res   70.669708    sqrt( Sum f_i^2 / 3N )
----------------------------------------
   Max  229.871864    constrained

Stress-tensor-Voigt (kbar):     -387.24     -829.61       -0.04      -73.27       -0.00       -0.00
(Free)E + p*V (eV/cell)     -665.7816
Target enthalpy (eV/cell)     -871.8658

                     ====================================
                        Begin CG opt. move =      2

zmatrix: Z-matrix coordinates: (Ang ; deg )
zmatrix: (Fractional coordinates have been converted to cartesian)
molecule    1 (    12 atoms)
      2.48675365      3.68000000      6.90322969
      1.41647535     90.00000000     60.00000000
      1.41647535    119.86807340     90.00000000
      1.41647535    119.86807340      0.00000000
      1.41647535    119.86807340      0.00000000
      1.41647535    119.86807340      0.00000000
      1.11192307    120.00006528    180.00000000
      1.11192307    120.00006528      0.00000000
      1.11192307    120.00006528      0.00000000
      1.11192307    120.00006528      0.00000000
      1.11192307    120.00006528      0.00000000
      1.11192307    120.00006528      0.00000000


Z-matrix Symbol Section -------
Variables
 xm1          2.4867536541228690     
 zm1          6.9032296946032323     
 CCC          119.86807340160296     
 CH           1.1119230707075825     
 CCH          120.00006528423680     
Constants
 ym1          3.6800000000000002     
 CC           1.4164753458771309     
------------ End of Z-matrix Information

                     ====================================

outcell: Unit cell vectors (Ang):
       11.776283    0.000000    0.000000
        0.000000   11.030875    0.000000
        0.000000    0.000000    6.266317

outcell: Cell vector modules (Ang)   :   11.776283   11.030875    6.266317
outcell: Cell angles (23,13,12) (deg):     90.0000     90.0000     90.0000
outcell: Cell volume (Ang**3)        :    814.0116
New_DM. Step:     3
Re-using DM from previous geometry...
Re-using DM without extrapolation (not allowed)
Density Matrix sparsity pattern changed.
Note: For starting DM, Qtot, Tr[D*S] =         30.00000000         31.54647001
New grid distribution:   1
           1       1:   40    1:   20    1:    6
           2       1:   40    1:   20    7:   12
           3       1:   40    1:   20   13:   18
           4       1:   40    1:   20   19:   24
           5       1:   40   21:   40    1:    6
           6       1:   40   21:   40    7:   12
           7       1:   40   21:   40   13:   18
           8       1:   40   21:   40   19:   24

InitMesh: MESH =    80 x    80 x    48 =      307200
InitMesh: (bp) =    40 x    40 x    24 =       38400
InitMesh: Mesh cutoff (required, used) =   120.000   127.546 Ry
ExtMesh (bp) on 0 =    80 x    64 x    50 =      256000
New grid distribution:   2
           1       1:   14   15:   40    1:    6
           2       1:   14   15:   40    7:   24
           3      15:   40    1:   14    7:   24
           4       1:   14    1:   14    7:   24
           5      15:   40   15:   40    1:    6
           6      15:   40   15:   40    7:   24
           7      15:   40    1:   14    1:    6
           8       1:   14    1:   14    1:    6
New grid distribution:   3
           1      15:   40   16:   40    1:    8
           2      16:   40    1:   15    1:    9
           3      16:   40    1:   15   10:   24
           4       1:   15    1:   15    1:   10
           5       1:   15    1:   15   11:   24
           6       1:   14   16:   40    1:    9
           7      15:   40   16:   40    9:   24
           8       1:   14   16:   40   10:   24
Setting up quadratic distribution...
ExtMesh (bp) on 0 =    54 x    70 x    50 =      189000
PhiOnMesh: Number of (b)points on node 0 =                 2184
PhiOnMesh: nlist on node 0 =                45795

   scf: iscf   Eharris(eV)      E_KS(eV)   FreeEng(eV)    dDmax  Ef(eV)
   scf:    1    -1088.3434     -923.6271     -923.6272  2.59863 -2.6979
   scf:    2    -1603.2074     -836.4589     -836.4589  3.84909 -6.0302
   scf:    3    -1027.2887     -935.1467     -935.1467  1.40764 -6.0861
   scf:    4    -1027.6724     -954.0626     -954.0626  0.69466 -4.3962
   scf:    5    -1024.8197     -972.1647     -972.1647  0.40650 -5.3338
   scf:    6    -1024.3998     -981.7092     -981.7092  0.34085 -5.1501
   scf:    7    -1023.9609    -1003.6674    -1003.6674  0.16479 -4.7903
   scf:    8    -1023.8577    -1023.9634    -1023.9634  0.01646 -4.4762
   scf:    9    -1023.8528    -1024.0530    -1024.0530  0.00838 -4.4707
   scf:   10    -1023.8522    -1023.9608    -1023.9608  0.00376 -4.4672
   scf:   11    -1023.8521    -1023.9379    -1023.9379  0.00226 -4.4681
   scf:   12    -1023.8521    -1023.8696    -1023.8696  0.00056 -4.4705
   scf:   13    -1023.8521    -1023.8550    -1023.8550  0.00012 -4.4704
   scf:   14    -1023.8521    -1023.8545    -1023.8545  0.00006 -4.4701

SCF Convergence by dMax criterion
max |DM_out - DM_in|:     0.00006494
SCF cycle converged after   14 iterations

Using DM_out to compute the final energy and forces

siesta: E_KS(eV) =            -1023.8521

zmatrix: Atomic forces (eV/Ang ; eV/deg )
zmatrix: (No information if symbols are used)
molecule    1 (    12 atoms)
     1    0.000000    0.000000    0.000000
     2    0.000000    0.000000    0.000000
     3    0.000000    0.000000    0.000000
     4    0.000000    0.000000    0.000000
     5    0.000000    0.000000    0.000000
     6    0.000000    0.000000    0.000000
     7    0.000000    0.000000    0.000000
     8    0.000000    0.000000    0.000000
     9    0.000000    0.000000    0.000000
    10    0.000000    0.000000    0.000000
    11    0.000000    0.000000    0.000000
    12    0.000000    0.000000    0.000000


Variable forces (eV/Ang ; eV/deg )
 xm1          4.5984661626362886     
 zm1          2.2063309406629992E-003
 CCC         -1.8987408715826177E-002
 CH         -0.78964640301663813     
 CCH         -8.1752379523414146E-004

siesta: Atomic forces (eV/Ang):
----------------------------------------
   Tot    0.008314   -0.006012    0.002206
----------------------------------------
   Max    0.773221
   Res    0.304309    sqrt( Sum f_i^2 / 3N )
----------------------------------------
   Max    0.773221    constrained

Stress-tensor-Voigt (kbar):        7.85        6.69       -0.05        0.93        0.00       -0.00
(Free)E + p*V (eV/cell)    -1026.3055
Target enthalpy (eV/cell)    -1023.8521

cgvc_zmatrix: Finished line minimization    1.  Mean atomic displacement =    0.0007

                     ====================================
                        Begin CG opt. move =      3

zmatrix: Z-matrix coordinates: (Ang ; deg )
zmatrix: (Fractional coordinates have been converted to cartesian)
molecule    1 (    12 atoms)
      2.48805771      3.68000000      6.90323030
      1.41517129     90.00000000     60.00000000
      1.41517129    119.85656754     90.00000000
      1.41517129    119.85656754      0.00000000
      1.41517129    119.85656754      0.00000000
      1.41517129    119.85656754      0.00000000
      1.11169276    119.99678596    180.00000000
      1.11169276    119.99678596      0.00000000
      1.11169276    119.99678596      0.00000000
      1.11169276    119.99678596      0.00000000
      1.11169276    119.99678596      0.00000000
      1.11169276    119.99678596      0.00000000


Z-matrix Symbol Section -------
Variables
 xm1          2.4880577123829117     
 zm1          6.9032302995118009     
 CCC          119.85656754462005     
 CH           1.1116927599712176     
 CCH          119.99678596424036     
Constants
 ym1          3.6800000000000002     
 CC           1.4151712876170883     
------------ End of Z-matrix Information

                     ====================================

outcell: Unit cell vectors (Ang):
       11.776283    0.000000    0.000000
        0.000000   11.030875    0.000000
        0.000000    0.000000    6.266317

outcell: Cell vector modules (Ang)   :   11.776283   11.030875    6.266317
outcell: Cell angles (23,13,12) (deg):     90.0000     90.0000     90.0000
outcell: Cell volume (Ang**3)        :    814.0116
New_DM. Step:     4
Re-using DM from previous geometry...
Re-using DM without extrapolation (not allowed)
Density Matrix sparsity pattern changed.
New grid distribution:   1
           1       1:   40    1:   20    1:    6
           2       1:   40    1:   20    7:   12
           3       1:   40    1:   20   13:   18
           4       1:   40    1:   20   19:   24
           5       1:   40   21:   40    1:    6
           6       1:   40   21:   40    7:   12
           7       1:   40   21:   40   13:   18
           8       1:   40   21:   40   19:   24

InitMesh: MESH =    80 x    80 x    48 =      307200
InitMesh: (bp) =    40 x    40 x    24 =       38400
InitMesh: Mesh cutoff (required, used) =   120.000   127.546 Ry
ExtMesh (bp) on 0 =    80 x    64 x    50 =      256000
New grid distribution:   2
           1      15:   40   15:   40    1:    6
           2      14:   40    1:   14    7:   24
           3       1:   13    1:   14    7:   24
           4       1:   14   15:   40    1:    6
           5      14:   40    1:   14    1:    6
           6      15:   40   15:   40    7:   24
           7       1:   14   15:   40    7:   24
           8       1:   13    1:   14    1:    6
New grid distribution:   3
           1      15:   40   16:   40    1:    8
           2      16:   40    1:   15    1:    9
           3      16:   40    1:   15   10:   24
           4       1:   15    1:   15    1:   10
           5       1:   15    1:   15   11:   24
           6       1:   14   16:   40    1:    9
           7      15:   40   16:   40    9:   24
           8       1:   14   16:   40   10:   24
Setting up quadratic distribution...
ExtMesh (bp) on 0 =    66 x    70 x    50 =      231000
PhiOnMesh: Number of (b)points on node 0 =                 4056
PhiOnMesh: nlist on node 0 =                42304

   scf: iscf   Eharris(eV)      E_KS(eV)   FreeEng(eV)    dDmax  Ef(eV)
   scf:    1    -1023.8581    -1023.9034    -1023.9034  0.00186 -4.4646
   scf:    2    -1023.8582    -1023.8580    -1023.8580  0.00129 -4.4753
   scf:    3    -1023.8581    -1023.8680    -1023.8680  0.00028 -4.4689
   scf:    4    -1023.8581    -1023.8613    -1023.8613  0.00010 -4.4682
   scf:    5    -1023.8581    -1023.8593    -1023.8593  0.00005 -4.4677

SCF Convergence by dMax criterion
max |DM_out - DM_in|:     0.00005086
SCF cycle converged after    5 iterations

Using DM_out to compute the final energy and forces

siesta: E_KS(eV) =            -1023.8581

zmatrix: Atomic forces (eV/Ang ; eV/deg )
zmatrix: (No information if symbols are used)
molecule    1 (    12 atoms)
     1    0.000000    0.000000    0.000000
     2    0.000000    0.000000    0.000000
     3    0.000000    0.000000    0.000000
     4    0.000000    0.000000    0.000000
     5    0.000000    0.000000    0.000000
     6    0.000000    0.000000    0.000000
     7    0.000000    0.000000    0.000000
     8    0.000000    0.000000    0.000000
     9    0.000000    0.000000    0.000000
    10    0.000000    0.000000    0.000000
    11    0.000000    0.000000    0.000000
    12    0.000000    0.000000    0.000000


Variable forces (eV/Ang ; eV/deg )
 xm1          4.1612642313038561     
 zm1          2.3757059820488759E-003
 CCC         -2.0437576075210328E-003
 CH         -0.74039830191764355     
 CCH         -8.3697449870101710E-004

siesta: Atomic forces (eV/Ang):
----------------------------------------
   Tot    0.008911   -0.001986    0.002376
----------------------------------------
   Max    0.720956
   Res    0.289541    sqrt( Sum f_i^2 / 3N )
----------------------------------------
   Max    0.720956    constrained

Stress-tensor-Voigt (kbar):        7.24        5.96       -0.05        1.02        0.00        0.00
(Free)E + p*V (eV/cell)    -1026.0833
Target enthalpy (eV/cell)    -1023.8581

                     ====================================
                        Begin CG opt. move =      4

zmatrix: Z-matrix coordinates: (Ang ; deg )
zmatrix: (Fractional coordinates have been converted to cartesian)
molecule    1 (    12 atoms)
      2.49014421      3.68000000      6.90323127
      1.41308479     90.00000000     60.00000000
      1.41308479    119.83815817     90.00000000
      1.41308479    119.83815817      0.00000000
      1.41308479    119.83815817      0.00000000
      1.41308479    119.83815817      0.00000000
      1.11132426    119.99153905    180.00000000
      1.11132426    119.99153905      0.00000000
      1.11132426    119.99153905      0.00000000
      1.11132426    119.99153905      0.00000000
      1.11132426    119.99153905      0.00000000
      1.11132426    119.99153905      0.00000000


Z-matrix Symbol Section -------
Variables
 xm1          2.4901442055989795     
 zm1          6.9032312673655110     
 CCC          119.83815817344740     
 CH           1.1113242627930342     
 CCH          119.99153905224607     
Constants
 ym1          3.6800000000000002     
 CC           1.4130847944010203     
------------ End of Z-matrix Information

                     ====================================

outcell: Unit cell vectors (Ang):
       11.776283    0.000000    0.000000
        0.000000   11.030875    0.000000
        0.000000    0.000000    6.266317

outcell: Cell vector modules (Ang)   :   11.776283   11.030875    6.266317
outcell: Cell angles (23,13,12) (deg):     90.0000     90.0000     90.0000
outcell: Cell volume (Ang**3)        :    814.0116
New_DM. Step:     5
Re-using DM from previous geometry...
Re-using DM without extrapolation (not allowed)
New grid distribution:   1
           1       1:   40    1:   20    1:    6
           2       1:   40    1:   20    7:   12
           3       1:   40    1:   20   13:   18
           4       1:   40    1:   20   19:   24
           5       1:   40   21:   40    1:    6
           6       1:   40   21:   40    7:   12
           7       1:   40   21:   40   13:   18
           8       1:   40   21:   40   19:   24

InitMesh: MESH =    80 x    80 x    48 =      307200
InitMesh: (bp) =    40 x    40 x    24 =       38400
InitMesh: Mesh cutoff (required, used) =   120.000   127.546 Ry
ExtMesh (bp) on 0 =    80 x    64 x    50 =      256000
New grid distribution:   2
           1      15:   40   15:   40    1:    6
           2      14:   40    1:   14    7:   24
           3       1:   13    1:   14    7:   24
           4       1:   14   15:   40    1:    6
           5      14:   40    1:   14    1:    6
           6      15:   40   15:   40    7:   24
           7       1:   14   15:   40    7:   24
           8       1:   13    1:   14    1:    6
New grid distribution:   3
           1      15:   40   16:   40    1:    8
           2      16:   40    1:   15    1:    9
           3      16:   40    1:   15   10:   24
           4       1:   15    1:   15    1:   10
           5       1:   15    1:   15   11:   24
           6       1:   14   16:   40    1:    9
           7      15:   40   16:   40    9:   24
           8       1:   14   16:   40   10:   24
Setting up quadratic distribution...
ExtMesh (bp) on 0 =    66 x    70 x    50 =      231000
PhiOnMesh: Number of (b)points on node 0 =                 4056
PhiOnMesh: nlist on node 0 =                42240

   scf: iscf   Eharris(eV)      E_KS(eV)   FreeEng(eV)    dDmax  Ef(eV)
   scf:    1    -1023.8661    -1023.9389    -1023.9389  0.00299 -4.4601
   scf:    2    -1023.8663    -1023.8659    -1023.8659  0.00198 -4.4758
   scf:    3    -1023.8660    -1023.8813    -1023.8813  0.00041 -4.4663
   scf:    4    -1023.8660    -1023.8712    -1023.8712  0.00016 -4.4653
   scf:    5    -1023.8660    -1023.8679    -1023.8679  0.00007 -4.4644

SCF Convergence by dMax criterion
max |DM_out - DM_in|:     0.00007498
SCF cycle converged after    5 iterations

Using DM_out to compute the final energy and forces

siesta: E_KS(eV) =            -1023.8660

zmatrix: Atomic forces (eV/Ang ; eV/deg )
zmatrix: (No information if symbols are used)
molecule    1 (    12 atoms)
     1    0.000000    0.000000    0.000000
     2    0.000000    0.000000    0.000000
     3    0.000000    0.000000    0.000000
     4    0.000000    0.000000    0.000000
     5    0.000000    0.000000    0.000000
     6    0.000000    0.000000    0.000000
     7    0.000000    0.000000    0.000000
     8    0.000000    0.000000    0.000000
     9    0.000000    0.000000    0.000000
    10    0.000000    0.000000    0.000000
    11    0.000000    0.000000    0.000000
    12    0.000000    0.000000    0.000000


Variable forces (eV/Ang ; eV/deg )
 xm1          3.4567552233285674     
 zm1          2.1566862820709683E-003
 CCC          2.5395104304762463E-002
 CH         -0.65991981999563831     
 CCH         -8.8754537587994523E-004

siesta: Atomic forces (eV/Ang):
----------------------------------------
   Tot    0.006189   -0.001152    0.002157
----------------------------------------
   Max    0.688584
   Res    0.271855    sqrt( Sum f_i^2 / 3N )
----------------------------------------
   Max    0.688584    constrained

Stress-tensor-Voigt (kbar):        6.24        4.79       -0.05        1.16        0.00       -0.00
(Free)E + p*V (eV/cell)    -1025.7251
Target enthalpy (eV/cell)    -1023.8660

outcoor: Final (unrelaxed) atomic coordinates (Ang):        
    2.49014421    3.68000000    6.90323127   2       1  C
    3.19668660    4.90376733    6.90323127   2       2  C
    4.60976576    4.89977583    6.90323127   2       3  C
    5.30938343    3.67203655    6.90323127   2       4  C
    4.59249630    2.45430034    6.90323127   2       5  C
    3.17950171    2.47026601    6.90323127   2       6  C
    1.37881995    3.68016411    6.90323127   1       7  H
    2.64088235    5.86612031    6.90323127   1       8  H
    5.16800234    5.86071992    6.90323127   1       9  H
    6.42069088    3.66592244    6.90323127   1      10  H
    5.14012570    1.48727208    6.90323127   1      11  H
    2.61314221    1.51408687    6.90323127   1      12  H

zmatrix: Z-matrix coordinates: (Ang ; deg )
zmatrix: (Fractional coordinates have been converted to cartesian)
molecule    1 (    12 atoms)
      2.49348259      3.68000000      6.90323282
      1.40974641     90.00000000     60.00000000
      1.40974641    119.80870318     90.00000000
      1.40974641    119.80870318      0.00000000
      1.40974641    119.80870318      0.00000000
      1.40974641    119.80870318      0.00000000
      1.11073467    119.98314399    180.00000000
      1.11073467    119.98314399      0.00000000
      1.11073467    119.98314399      0.00000000
      1.11073467    119.98314399      0.00000000
      1.11073467    119.98314399      0.00000000
      1.11073467    119.98314399      0.00000000


Z-matrix Symbol Section -------
Variables
 xm1          2.4934825947446884     
 zm1          6.9032328159314460     
 CCC          119.80870317957115     
 CH           1.1107346673079406     
 CCH          119.98314399305522     
Constants
 ym1          3.6800000000000002     
 CC           1.4097464052553117     
------------ End of Z-matrix Information


siesta: Program's energy decomposition (eV):
siesta: Ebs     =      -358.404041
siesta: Eions   =      1613.953835
siesta: Ena     =       340.411095
siesta: Ekin    =       732.365310
siesta: Enl     =      -119.338456
siesta: DEna    =       -33.915628
siesta: DUscf   =         3.791393
siesta: DUext   =         0.000000
siesta: Exc     =      -333.225901
siesta: eta*DQ  =         0.000000
siesta: Emadel  =         0.000000
siesta: Emeta   =         0.000000
siesta: Emolmec =         0.000000
siesta: Ekinion =         0.000000
siesta: Eharris =     -1023.866023
siesta: Etot    =     -1023.866023
siesta: FreeEng =     -1023.866023

siesta: Final energy (eV):
siesta:  Band Struct. =    -358.404041
siesta:       Kinetic =     732.365310
siesta:       Hartree =    1842.441149
siesta:    Ext. field =       0.000000
siesta:   Exch.-corr. =    -333.225901
siesta:  Ion-electron =   -4340.138075
siesta:       Ion-ion =    1074.691495
siesta:       Ekinion =       0.000000
siesta:         Total =   -1023.866023

siesta: Atomic forces (eV/Ang):
siesta:      1    0.157255    0.688584    0.000186
siesta:      2    0.382915   -0.484405    0.000456
siesta:      3   -0.398122   -0.507010    0.000320
siesta:      4   -0.638111   -0.049408    0.000218
siesta:      5   -0.206278    0.578586    0.000260
siesta:      6    0.673563   -0.220542   -0.000157
siesta:      7    0.105901    0.034050   -0.000392
siesta:      8    0.064024   -0.095319   -0.000255
siesta:      9   -0.048937   -0.101075    0.000138
siesta:     10   -0.114309   -0.008828   -0.000306
siesta:     11   -0.056435    0.097041    0.000940
siesta:     12    0.084725    0.067173    0.000748
siesta: ----------------------------------------
siesta:    Tot    0.006189   -0.001152    0.002157

siesta: Stress tensor (static) (eV/Ang**3):
siesta:     0.003896    0.000721   -0.000000
siesta:     0.000721    0.002989    0.000000
siesta:    -0.000000    0.000000   -0.000033

siesta: Cell volume =        814.011582 Ang**3

siesta: Pressure (static):
siesta:                Solid            Molecule  Units
siesta:          -0.00002487          0.00000018  Ry/Bohr**3
siesta:          -0.00228388          0.00001667  eV/Ang**3
siesta:          -3.65922061          0.02670638  kBar
(Free)E+ p_basis*V_orbitals  =       -1019.862829
(Free)Eharris+ p_basis*V_orbitals  =       -1019.862829

siesta: Electric dipole (a.u.)  =   -0.001155   -0.000295   -0.000067
siesta: Electric dipole (Debye) =   -0.002935   -0.000749   -0.000171
>> End of run:   2-JUL-2017  11:46:43
Job completed
