
                           ***********************       
                           *  WELCOME TO SIESTA  *       
                           ***********************       

reinit: Reading from ../benzene.fdf

reinit: -----------------------------------------------------------------------
reinit: System Name: benzene
reinit: -----------------------------------------------------------------------
reinit: System Label: benzene
reinit: -----------------------------------------------------------------------
Siesta Version: siesta-4.1--731
Architecture  : x86_64-linux-n-62-18-14
Compiler flags: mpifort -m64 -fPIC -O3 -march=native -ftree-vectorize -fexpensive-optimizatioons -funroll-loops -fprefetch-loop-arrays -fno-second-underscore  -flto -fuse-linker-plugin
PP flags      : -I/zdata/groups/common/nicpa/2016-oct/generic/build-tools/1.0/include -I/zdatta/groups/common/nicpa/2016-oct/generic/gmp/6.1.0/include -I/zdata/groups/common/nicpa/2016-oct/generic/mpfr/3.1.4/include -I/zdata/groups/common/nicpa/2016-oct/generic/mpc/1.0.3/include -I/zdata/groups/common/nicpa/2016-oct/generic/isl/0.16.1/include -I/zdata/groups/common/nicpa/2016-oct/generic/gcc/6.2.0/include -I/zdata/groups/common/nicpa/2016-oct/generic/numactl/2.0.11/include -I/zdata/groups/common/nicpa/2016-oct/XeonE5-2665/zlib/1.2.8/gnu-6.2.0/include -I/zdata/groups/common/nicpa/2016-oct/XeonE5-2665/libxml2/2.9.4/gnu-6.2.0/include -I/zdata/groups/common/nicpa/2016-oct/XeonE5-2665/hwloc/1.11.4/gnu-6.2.0/include -I/zdata/groups/common/nicpa/2016-oct/XeonE5-2665/openmpi/2.0.1/gnu-6.2.0/include -I/zdata/groups/common/nicpa/2016-oct/XeonE5-2665/hdf5/1.8.17/gnu-6.2.0/include -I/zdata/groups/common/nicpa/2016-oct/XeonE5-2665/pnetcdf/1.7.0/gnu-6.2.0/include -I/zdata/groups/common/nicpa/2016-oct/XeonE5-2665/netcdf/4.4.1/gnu-6.2.0/include -I/zdata/groups/common/nicpa/2016-oct/XeonE5-2665/flook/0.7.0/gnu-6.2.0/include -I/zdata/groups/common/nicpa/2016-oct/XeonE5-2665/parmetis/4.0.3/gnu-6.2.0/include -I/zdata/groups/common/nicpa/2016-oct/XeonE5-2665/scalapack/204/gnu-6.2.0/include -I/zdata/groups/common/nicpa/2016-oct/XeonE5-2665/openblas/0.2.19/gnu-6.2.0/include -I/zdata/groups/common/nicpa/2016-oct/XeonE5-2665/mumps/5.0.2/gnu-6.2.0/include -I/zdata/groups/common/nicpa/2016-oct/XeonE5-2665/fftw/3.3.5/gnu-6.2.0/include -DMPI -DFC_HAVE_FLUSH -DFC_HAVE_ABORT -DCDF -DCDF4 -DSIESTA__METIS -DSIESTA__MUMPS -DTS_NOCHECKS -DNCDF -DNCDF_4 -DNCDF_PARALLEL -DSIESTA__FLOOK
Libraries     : -lnetcdff -lnetcdf -lpnetcdf -lhdf5_hl -lhdf5 -lz  -lzmumps -lmumps_common -llpord -lparmetis -lmetis -lscalapack -lopenblas  -lmetis -flto -fuse-linker-plugin  -L/zdata/groups/common/nicpa/2016-oct/XeonE5-2665/flook/0.7.0/gnu-6.2.0/lib -Wl,-rpath=/zdata/groups/common/nicpa/2016-oct/XeonE5-2665/flook/0.7.0/gnu-6.2.0/lib -lflookall -ldl
PARALLEL version
NetCDF support
NetCDF-4 support
NetCDF-4 MPI-IO support
METIS ordering support

* Running on 8 nodes in parallel
>> Start of run:   2-JUL-2017  11:10:30

initatom: Reading input for the pseudopotentials and atomic orbitals ----------
Species number:   1 Atomic number:    1 Label: H
Species number:   2 Atomic number:    6 Label: C

Ground state valence configuration:   1s01
Reading pseudopotential information in formatted form from H.psf

Valence configuration for pseudopotential generation:
1s( 1.00) rc: 1.25
2p( 0.00) rc: 1.25
3d( 0.00) rc: 1.25
4f( 0.00) rc: 1.25
Ground state valence configuration:   2s02  2p02
Reading pseudopotential information in formatted form from C.psf

Valence configuration for pseudopotential generation:
2s( 2.00) rc: 1.49
2p( 2.00) rc: 1.52
3d( 0.00) rc: 1.58
relmxkb: Read Max KB Ang. Momentum=    2 for species C
For H, standard SIESTA heuristics set lmxkb to 2
 (one more than the basis l, including polarization orbitals).
Use PS.lmax or PS.KBprojectors blocks to override.

<basis_specs>
===============================================================================
H                    Z=   1    Mass=  1.0100        Charge= 0.17977+309
Lmxo=0 Lmxkb= 2    BasisType=split      Semic=F
L=0  Nsemic=0  Cnfigmx=1
          n=1  nzeta=2  polorb=1
            splnorm:   0.15000    
               vcte:    0.0000    
               rinn:    0.0000    
               qcoe:    0.0000    
               qyuk:    0.0000    
               qwid:   0.10000E-01
                rcs:    0.0000      0.0000    
            lambdas:    1.0000      1.0000    
-------------------------------------------------------------------------------
L=0  Nkbl=1  erefs: 0.17977+309
L=1  Nkbl=1  erefs: 0.17977+309
L=2  Nkbl=1  erefs: 0.17977+309
===============================================================================
</basis_specs>

atom: Called for H                     (Z =   1)

read_vps: Pseudopotential generation method:
read_vps: ATM3      Troullier-Martins                       
Total valence charge:    1.00000

xc_check: Exchange-correlation functional:
xc_check: Ceperley-Alder
V l=0 = -2*Zval/r beyond r=  1.2343
V l=1 = -2*Zval/r beyond r=  1.2189
V l=2 = -2*Zval/r beyond r=  1.2189
All V_l potentials equal beyond r=  1.2343
This should be close to max(r_c) in ps generation
All pots = -2*Zval/r beyond r=  1.2343

VLOCAL1: 99.0% of the norm of Vloc inside     28.493 Ry
VLOCAL1: 99.9% of the norm of Vloc inside     64.935 Ry
atom: Maximum radius for 4*pi*r*r*local-pseudopot. charge    1.45251
atom: Maximum radius for r*vlocal+2*Zval:    1.21892
GHOST: No ghost state for L =  0
GHOST: No ghost state for L =  1
GHOST: No ghost state for L =  2

KBgen: Kleinman-Bylander projectors: 
   l= 0   rc=  1.364359   el= -0.467325   Ekb= -2.005361   kbcos= -0.336422
   l= 1   rc=  1.434438   el=  0.001430   Ekb= -0.501708   kbcos= -0.021697
   l= 2   rc=  1.470814   el=  0.002365   Ekb= -0.190555   kbcos= -0.002281

KBgen: Total number of  Kleinman-Bylander projectors:    9
atom: -------------------------------------------------------------------------

atom: SANKEY-TYPE ORBITALS:
atom: Selected multiple-zeta basis: split     

SPLIT: Orbitals with angular momentum L= 0

SPLIT: Basis orbitals for state 1s

SPLIT: PAO cut-off radius determined from an
SPLIT: energy shift=  0.010000 Ry

   izeta = 1
                 lambda =    1.000000
                     rc =    5.336316
                 energy =   -0.457946
                kinetic =    0.886710
    potential(screened) =   -1.344656
       potential(ionic) =   -1.876618

   izeta = 2
                 rmatch =    4.002347
              splitnorm =    0.150000
                 energy =   -0.355904
                kinetic =    1.439488
    potential(screened) =   -1.795392
       potential(ionic) =   -2.364690

POLgen: Perturbative polarization orbital with L=  1

POLgen: Polarization orbital for state 1s

   izeta = 1
                     rc =    5.336316
                 energy =    0.616245
                kinetic =    1.262150
    potential(screened) =   -0.645906
       potential(ionic) =   -1.116519
atom: Total number of Sankey-type orbitals:  5

atm_pop: Valence configuration (for local Pseudopot. screening):
 1s( 1.00)                                                            
Vna: chval, zval:    1.00000   1.00000

Vna:  Cut-off radius for the neutral-atom potential:   5.336316

atom: _________________________________________________________________________

<basis_specs>
===============================================================================
C                    Z=   6    Mass=  12.010        Charge= 0.17977+309
Lmxo=1 Lmxkb= 2    BasisType=split      Semic=F
L=0  Nsemic=0  Cnfigmx=2
          n=1  nzeta=2  polorb=0
            splnorm:   0.15000    
               vcte:    0.0000    
               rinn:    0.0000    
               qcoe:    0.0000    
               qyuk:    0.0000    
               qwid:   0.10000E-01
                rcs:    0.0000      0.0000    
            lambdas:    1.0000      1.0000    
L=1  Nsemic=0  Cnfigmx=2
          n=1  nzeta=2  polorb=1
            splnorm:   0.15000    
               vcte:    0.0000    
               rinn:    0.0000    
               qcoe:    0.0000    
               qyuk:    0.0000    
               qwid:   0.10000E-01
                rcs:    0.0000      0.0000    
            lambdas:    1.0000      1.0000    
-------------------------------------------------------------------------------
L=0  Nkbl=1  erefs: 0.17977+309
L=1  Nkbl=1  erefs: 0.17977+309
L=2  Nkbl=1  erefs: 0.17977+309
===============================================================================
</basis_specs>

atom: Called for C                     (Z =   6)

read_vps: Pseudopotential generation method:
read_vps: ATM3      Troullier-Martins                       
Total valence charge:    4.00000

xc_check: Exchange-correlation functional:
xc_check: Ceperley-Alder
V l=0 = -2*Zval/r beyond r=  1.4666
V l=1 = -2*Zval/r beyond r=  1.5038
V l=2 = -2*Zval/r beyond r=  1.5612
All V_l potentials equal beyond r=  1.5612
This should be close to max(r_c) in ps generation
All pots = -2*Zval/r beyond r=  1.5612

VLOCAL1: 99.0% of the norm of Vloc inside     17.809 Ry
VLOCAL1: 99.9% of the norm of Vloc inside     40.586 Ry
atom: Maximum radius for 4*pi*r*r*local-pseudopot. charge    1.88329
atom: Maximum radius for r*vlocal+2*Zval:    1.62091
GHOST: No ghost state for L =  0
GHOST: No ghost state for L =  1
GHOST: No ghost state for L =  2

KBgen: Kleinman-Bylander projectors: 
   l= 0   rc=  1.747182   el= -1.001947   Ekb=  5.181700   kbcos=  0.300603
   l= 1   rc=  1.747182   el= -0.398598   Ekb= -4.328763   kbcos= -0.367074
   l= 2   rc=  1.955272   el=  0.002326   Ekb= -1.016175   kbcos= -0.009979

KBgen: Total number of  Kleinman-Bylander projectors:    9
atom: -------------------------------------------------------------------------

atom: SANKEY-TYPE ORBITALS:
atom: Selected multiple-zeta basis: split     

SPLIT: Orbitals with angular momentum L= 0

SPLIT: Basis orbitals for state 2s

SPLIT: PAO cut-off radius determined from an
SPLIT: energy shift=  0.010000 Ry

   izeta = 1
                 lambda =    1.000000
                     rc =    4.518360
                 energy =   -0.992087
                kinetic =    0.856755
    potential(screened) =   -1.848843
       potential(ionic) =   -5.436865

   izeta = 2
                 rmatch =    3.475094
              splitnorm =    0.150000
                 energy =   -0.853594
                kinetic =    1.308346
    potential(screened) =   -2.161940
       potential(ionic) =   -6.002045

SPLIT: Orbitals with angular momentum L= 1

SPLIT: Basis orbitals for state 2p

SPLIT: PAO cut-off radius determined from an
SPLIT: energy shift=  0.010000 Ry

   izeta = 1
                 lambda =    1.000000
                     rc =    5.382558
                 energy =   -0.388318
                kinetic =    2.456485
    potential(screened) =   -2.844804
       potential(ionic) =   -6.312273

   izeta = 2
                 rmatch =    3.607901
              splitnorm =    0.150000
                 energy =   -0.250655
                kinetic =    3.636791
    potential(screened) =   -3.887446
       potential(ionic) =   -7.736789

POLgen: Perturbative polarization orbital with L=  2

POLgen: Polarization orbital for state 2p

   izeta = 1
                     rc =    5.382558
                 energy =    1.148490
                kinetic =    2.389078
    potential(screened) =   -1.240587
       potential(ionic) =   -4.090578
atom: Total number of Sankey-type orbitals: 13

atm_pop: Valence configuration (for local Pseudopot. screening):
 2s( 2.00)                                                            
 2p( 2.00)                                                            
Vna: chval, zval:    4.00000   4.00000

Vna:  Cut-off radius for the neutral-atom potential:   5.382558

atom: _________________________________________________________________________

prinput: Basis input ----------------------------------------------------------

PAO.BasisType split     

%block ChemicalSpeciesLabel
    1    1 H                       # Species index, atomic number, species label
    2    6 C                       # Species index, atomic number, species label
%endblock ChemicalSpeciesLabel

%block PAO.Basis                 # Define Basis set
H                     1                    # Species label, number of l-shells
 n=1   0   2 P   1                   # n, l, Nzeta, Polarization, NzetaPol
   5.336      4.002   
   1.000      1.000   
C                     2                    # Species label, number of l-shells
 n=2   0   2                         # n, l, Nzeta 
   4.518      3.475   
   1.000      1.000   
 n=2   1   2 P   1                   # n, l, Nzeta, Polarization, NzetaPol
   5.383      3.608   
   1.000      1.000   
%endblock PAO.Basis

prinput: ----------------------------------------------------------------------

Dumping basis to NetCDF file H.ion.nc
Dumping basis to NetCDF file C.ion.nc
coor:   Atomic-coordinates input format  =     Cartesian coordinates
coor:                                          (in Angstroms)
read_Zmatrix: Length units: Ang       
read_Zmatrix: Angle  units: deg       
read_Zmatrix: Force tolerances:
read_Zmatrix:    for lengths =     0.001556 Ry/Bohr
read_Zmatrix:    for angles  =     0.000421 Ry/rad

read_Zmatrix: Maximum displacements:
read_Zmatrix:    for lengths =     0.188973 Bohr
read_Zmatrix:    for angles  =     0.349066 rad
%block Zmatrix
molecule
      2 0 0 0 xm1 ym1 zm1 0 0 0
      2 1 0 0 CC 90.0 60.0 0 0 0
      2 2 1 0 CC CCC 90.0 0 0 0
      2 3 2 1 CC CCC 0.0 0 0 0
      2 4 3 2 CC CCC 0.0 0 0 0
      2 5 4 3 CC CCC 0.0 0 0 0
      1 1 2 3 CH CCH 180.0 0 0 0
      1 2 1 7 CH CCH 0.0 0 0 0
      1 3 2 8 CH CCH 0.0 0 0 0
      1 4 3 9 CH CCH 0.0 0 0 0
      1 5 4 10 CH CCH 0.0 0 0 0
      1 6 5 11 CH CCH 0.0 0 0 0
constants
        ym1 3.68
variables
        zm1 6.9032294
        CC 1.417
        CH 1.112
        CCH 120.0
        CCC 120.0
constraints
        xm1 CC -1.0 3.903229
%endblock Zmatrix
 nZmol:            1
 nSpecies:            2           2           2           2           2           2           1           1           1           1           1           1

zmatrix: Z-matrix coordinates: (Ang ; deg )
zmatrix: (Fractional coordinates have been converted to cartesian)
molecule    1 (    12 atoms)
      2.48622900      3.68000000      6.90322940
      1.41700000     90.00000000     60.00000000
      1.41700000    120.00000000     90.00000000
      1.41700000    120.00000000      0.00000000
      1.41700000    120.00000000      0.00000000
      1.41700000    120.00000000      0.00000000
      1.11200000    120.00000000    180.00000000
      1.11200000    120.00000000      0.00000000
      1.11200000    120.00000000      0.00000000
      1.11200000    120.00000000      0.00000000
      1.11200000    120.00000000      0.00000000
      1.11200000    120.00000000      0.00000000


Z-matrix Symbol Section -------
Variables
 xm1          2.4862289999999998     
 zm1          6.9032293999999998     
 CCC          120.00000000000017     
 CH           1.1120000000000001     
 CCH          120.00000000000017     
Constants
 ym1          3.6800000000000002     
 CC           1.4170000000000000     
------------ End of Z-matrix Information


siesta: Atomic coordinates (Bohr) and species
siesta:      4.69829   6.95419  13.04522  2        1
siesta:      6.03717   9.27319  13.04522  2        2
siesta:      8.71491   9.27319  13.04522  2        3
siesta:     10.05378   6.95419  13.04522  2        4
siesta:      8.71491   4.63520  13.04522  2        5
siesta:      6.03717   4.63520  13.04522  2        6
siesta:      2.59692   6.95419  13.04522  1        7
siesta:      4.98648  11.09303  13.04522  1        8
siesta:      9.76560  11.09303  13.04522  1        9
siesta:     12.15516   6.95419  13.04522  1       10
siesta:      9.76560   2.81536  13.04522  1       11
siesta:      4.98648   2.81536  13.04522  1       12

siesta: Automatic unit cell vectors (Ang):
siesta:   11.776283    0.000000    0.000000
siesta:    0.000000   11.030875    0.000000
siesta:    0.000000    0.000000    6.266317

siesta: System type = molecule  

initatomlists: Number of atoms, orbitals, and projectors:     12   108   108

siesta: ******************** Simulation parameters ****************************
siesta:
siesta: The following are some of the parameters of the simulation.
siesta: A complete list of the parameters used, including default values,
siesta: can be found in file out.fdf
siesta:
redata: Spin configuration                          = none
redata: Number of spin components                   = 1
redata: Time-Reversal Symmetry                      = T
redata: Spin-spiral                                 = F
redata: Long output                                 =   F
redata: Number of Atomic Species                    =        2
redata: Charge density info will appear in .RHO file
redata: Write Mulliken Pop.                         = NO
redata: Mesh Cutoff                                 =   120.0000 Ry
redata: Net charge of the system                    =     0.0000 |e|
redata: Min. number of SCF Iter                     =        0
redata: Max. number of SCF Iter                     =       50
redata: SCF mix quantity                            = Hamiltonian
redata: Mix DM or H after convergence               =   F
redata: Recompute H after scf cycle                 =   F
redata: Mix DM in first SCF step                    =   T
redata: Write Pulay info on disk                    =   F
redata: New DM Mixing Weight                        =     0.3000
redata: New DM Occupancy tolerance                  = 0.000000000001
redata: No kicks to SCF
redata: DM Mixing Weight for Kicks                  =     0.5000
redata: Require Harris convergence for SCF          =   F
redata: Harris energy tolerance for SCF             =     0.000100 eV
redata: Require DM convergence for SCF              =   T
redata: DM tolerance for SCF                        =     0.0001
redata: Require EDM convergence for SCF             =   F
redata: EDM tolerance for SCF                       =     0.001000 eV
redata: Require H convergence for SCF               =   T
redata: Hamiltonian tolerance for SCF               =     0.001000 eV
redata: Require (free) Energy convergence for SCF   =   F
redata: (free) Energy tolerance for SCF             =     0.000100 eV
redata: Using Saved Data (generic)                  =   F
redata: Use continuation files for DM               =   F
redata: Neglect nonoverlap interactions             =   F
redata: Method of Calculation                       = Diagonalization
redata: Divide and Conquer                          =   T
redata: Electronic Temperature                      =   299.9869 K
redata: Fix the spin of the system                  =   F
redata: Dynamics option                             = CG coord. optimization
redata: Variable cell                               =   F
redata: Use continuation files for CG               =   F
redata: Max atomic displ per move                   =     0.1058 Ang
redata: Maximum number of CG moves                  =        4
redata: Force tolerance                             =     0.0400 eV/Ang
mix.SCF: Pulay mixing                            = Pulay
mix.SCF:    Variant                              = stable
mix.SCF:    History steps                        = 5
mix.SCF:    Linear mixing weight                 =     0.300000
mix.SCF:    Mixing weight                        =     0.300000
mix.SCF:    SVD condition                        = 0.1000E-07
redata: Save all siesta data in one NC              =   F
redata: ***********************************************************************

%block SCF.Mixers
  Pulay
%endblock SCF.Mixers

%block SCF.Mixer.Pulay
  # Mixing method
  method pulay
  variant stable

  # Mixing options
  weight 0.3000
  weight.linear 0.3000
  history 5
%endblock SCF.Mixer.Pulay

DM_history_depth set to one: no extrapolation allowed by default for geometry relaxation
Size of DM history Fstack: 1
Total number of electrons:    30.000000
Total ionic charge:    30.000000

* ProcessorY, Blocksize:    2  14


* Orbital distribution balance (max,min):    14    10

 Kpoints in:            1 . Kpoints trimmed:            1

siesta: k-grid: Number of k-points =     1
siesta: k-grid: Cutoff (effective) =     3.133 Ang
siesta: k-grid: Supercell and displacements
siesta: k-grid:    1   0   0      0.000
siesta: k-grid:    0   1   0      0.000
siesta: k-grid:    0   0   1      0.000


                     ====================================
                        Begin CG opt. move =      0

zmatrix: Z-matrix coordinates: (Ang ; deg )
zmatrix: (Fractional coordinates have been converted to cartesian)
molecule    1 (    12 atoms)
      2.48622900      3.68000000      6.90322940
      1.41700000     90.00000000     60.00000000
      1.41700000    120.00000000     90.00000000
      1.41700000    120.00000000      0.00000000
      1.41700000    120.00000000      0.00000000
      1.41700000    120.00000000      0.00000000
      1.11200000    120.00000000    180.00000000
      1.11200000    120.00000000      0.00000000
      1.11200000    120.00000000      0.00000000
      1.11200000    120.00000000      0.00000000
      1.11200000    120.00000000      0.00000000
      1.11200000    120.00000000      0.00000000


Z-matrix Symbol Section -------
Variables
 xm1          2.4862289999999998     
 zm1          6.9032293999999998     
 CCC          120.00000000000017     
 CH           1.1120000000000001     
 CCH          120.00000000000017     
Constants
 ym1          3.6800000000000002     
 CC           1.4170000000000000     
------------ End of Z-matrix Information

                     ====================================

outcell: Unit cell vectors (Ang):
       11.776283    0.000000    0.000000
        0.000000   11.030875    0.000000
        0.000000    0.000000    6.266317

outcell: Cell vector modules (Ang)   :   11.776283   11.030875    6.266317
outcell: Cell angles (23,13,12) (deg):     90.0000     90.0000     90.0000
outcell: Cell volume (Ang**3)        :    814.0116
<dSpData1D:S at geom step 0
  <sparsity:sparsity for geom step 0
    nrows_g=108 nrows=14 sparsity=.1296 nnzs=1512, refcount: 7>
  <dData1D:(new from dSpData1D) n=1512, refcount: 1>
refcount: 1>
new_DM -- step:     1
Initializing Density Matrix...
DM filled with atomic data:
<dSpData2D:DM initialized from atoms
  <sparsity:sparsity for geom step 0
    nrows_g=108 nrows=14 sparsity=.1296 nnzs=1512, refcount: 8>
  <dData2D:DM n=1512 m=1, refcount: 1>
refcount: 1>

No. of atoms with KB's overlaping orbs in proc 0. Max # of overlaps:      11     101
New grid distribution:   1
           1       1:   40    1:   20    1:    6
           2       1:   40    1:   20    7:   12
           3       1:   40    1:   20   13:   18
           4       1:   40    1:   20   19:   24
           5       1:   40   21:   40    1:    6
           6       1:   40   21:   40    7:   12
           7       1:   40   21:   40   13:   18
           8       1:   40   21:   40   19:   24

InitMesh: MESH =    80 x    80 x    48 =      307200
InitMesh: (bp) =    40 x    40 x    24 =       38400
InitMesh: Mesh cutoff (required, used) =   120.000   127.546 Ry
ExtMesh (bp) on 0 =    80 x    64 x    50 =      256000
New grid distribution:   2
           1       1:   14   15:   40    1:    6
           2       1:   14   15:   40    7:   24
           3      15:   40    1:   14    7:   24
           4       1:   14    1:   14    7:   24
           5      15:   40   15:   40    1:    6
           6      15:   40   15:   40    7:   24
           7      15:   40    1:   14    1:    6
           8       1:   14    1:   14    1:    6
New grid distribution:   3
           1      15:   40   16:   40    1:    8
           2      16:   40    1:   15    1:    9
           3      16:   40    1:   15   10:   24
           4       1:   15    1:   15    1:   10
           5       1:   15    1:   15   11:   24
           6       1:   14   16:   40    1:    9
           7      15:   40   16:   40    9:   24
           8       1:   14   16:   40   10:   24
Setting up quadratic distribution...
ExtMesh (bp) on 0 =    54 x    70 x    50 =      189000
PhiOnMesh: Number of (b)points on node 0 =                 2184
PhiOnMesh: nlist on node 0 =                45735

stepf: Fermi-Dirac step function

siesta: Program's energy decomposition (eV):
siesta: Ebs     =      -283.761600
siesta: Eions   =      1613.953835
siesta: Ena     =       340.728180
siesta: Ekin    =       771.601480
siesta: Enl     =      -127.546308
siesta: Eso     =         0.000000
siesta: Eldau   =         0.000000
siesta: DEna    =       -59.242162
siesta: DUscf   =         7.993202
siesta: DUext   =         0.000000
siesta: Exc     =      -341.222956
siesta: eta*DQ  =         0.000000
siesta: Emadel  =         0.000000
siesta: Emeta   =         0.000000
siesta: Emolmec =         0.000000
siesta: Ekinion =         0.000000
siesta: Eharris =     -1027.973153
siesta: Etot    =     -1021.642399
siesta: FreeEng =     -1021.642399

        iscf     Eharris(eV)        E_KS(eV)     FreeEng(eV)     dDmax    Ef(eV) dHmax(eV)
   scf:    1    -1027.973153    -1021.642399    -1021.642399  1.955389 -7.732539  6.828485
timer: Routine,Calls,Time,% = IterSCF        1       0.152  14.07
   scf:    2    -1024.822508    -1023.469696    -1023.469696  0.092860 -5.880371  2.815915
   scf:    3    -1023.988688    -1023.812218    -1023.812218  0.070389 -4.671184  0.588220
   scf:    4    -1023.855106    -1023.838936    -1023.838936  0.017418 -4.557758  0.127398
   scf:    5    -1023.835702    -1023.838433    -1023.838433  0.006754 -4.403407  0.165496
   scf:    6    -1023.840616    -1023.840146    -1023.840146  0.003284 -4.483587  0.022328
   scf:    7    -1023.840175    -1023.840177    -1023.840177  0.000588 -4.469496  0.007875
   scf:    8    -1023.840178    -1023.840177    -1023.840177  0.000167 -4.473047  0.000155
   scf:    9    -1023.840177    -1023.840177    -1023.840177  0.000004 -4.473072  0.000105

SCF Convergence by DM+H criterion
max |DM_out - DM_in|         :     0.0000040881
max |H_out - H_in|      (eV) :     0.0001052866
SCF cycle converged after 9 iterations

Using DM_out to compute the final energy and forces
No. of atoms with KB's overlaping orbs in proc 0. Max # of overlaps:      11     101

siesta: E_KS(eV) =            -1023.8402

siesta: E_KS - E_eggbox =     -1023.8402

zmatrix: Atomic forces (eV/Ang ; eV/deg )
zmatrix: (No information if symbols are used)
molecule    1 (    12 atoms)
     1    0.000000    0.000000    0.000000
     2    0.000000    0.000000    0.000000
     3    0.000000    0.000000    0.000000
     4    0.000000    0.000000    0.000000
     5    0.000000    0.000000    0.000000
     6    0.000000    0.000000    0.000000
     7    0.000000    0.000000    0.000000
     8    0.000000    0.000000    0.000000
     9    0.000000    0.000000    0.000000
    10    0.000000    0.000000    0.000000
    11    0.000000    0.000000    0.000000
    12    0.000000    0.000000    0.000000


Variable forces (eV/Ang ; eV/deg )
 xm1          5.5591209549975513     
 zm1          3.1227269712999803E-003
 CCC        -0.11923973084736988     
 CH         -0.81520573171509725     
 CCH          5.9028120157768993E-005

siesta: Atomic forces (eV/Ang):
----------------------------------------
   Tot   -0.000715   -0.010409    0.003123
----------------------------------------
   Max    0.791880
   Res    0.327519    sqrt( Sum f_i^2 / 3N )
----------------------------------------
   Max    0.791880    constrained

Stress-tensor-Voigt (kbar):        8.66        8.62       -0.06        0.00        0.00        0.00
(Free)E + p*V (eV/cell)    -1026.7572
Target enthalpy (eV/cell)    -1023.8402

                     ====================================
                        Begin CG opt. move =      1

zmatrix: Z-matrix coordinates: (Ang ; deg )
zmatrix: (Fractional coordinates have been converted to cartesian)
molecule    1 (    12 atoms)
      2.56576647      3.68000000      6.90327408
      1.33746253     90.00000000     60.00000000
      1.33746253    100.00000000     90.00000000
      1.33746253    100.00000000      0.00000000
      1.33746253    100.00000000      0.00000000
      1.33746253    100.00000000      0.00000000
      1.10033639    120.00990075    180.00000000
      1.10033639    120.00990075      0.00000000
      1.10033639    120.00990075      0.00000000
      1.10033639    120.00990075      0.00000000
      1.10033639    120.00990075      0.00000000
      1.10033639    120.00990075      0.00000000


Z-matrix Symbol Section -------
Variables
 xm1          2.5657664726905733     
 zm1          6.9032740786125375     
 CCC          99.999999995433569     
 CH           1.1003363927231700     
 CCH          120.00990074696627     
Constants
 ym1          3.6800000000000002     
 CC           1.3374625273094267     
------------ End of Z-matrix Information

                     ====================================

outcell: Unit cell vectors (Ang):
       11.776283    0.000000    0.000000
        0.000000   11.030875    0.000000
        0.000000    0.000000    6.266317

outcell: Cell vector modules (Ang)   :   11.776283   11.030875    6.266317
outcell: Cell angles (23,13,12) (deg):     90.0000     90.0000     90.0000
outcell: Cell volume (Ang**3)        :    814.0116
<dSpData1D:S at geom step 1
  <sparsity:sparsity for geom step 1
    nrows_g=108 nrows=14 sparsity=.1296 nnzs=1512, refcount: 7>
  <dData1D:(new from dSpData1D) n=1512, refcount: 1>
refcount: 1>
new_DM -- step:     2
Re-using DM from previous geometries...
Number of DMs in history: 1
 DM extrapolation coefficients: 
1   1.00000
New DM after history re-use:
<dSpData2D:SpM extrapolated using coords
  <sparsity:sparsity for geom step 1
    nrows_g=108 nrows=14 sparsity=.1296 nnzs=1512, refcount: 8>
  <dData2D:(temp array for extrapolation) n=1512 m=1, refcount: 1>
refcount: 1>
Note: For starting DM, Qtot, Tr[D*S] =         30.00000000         25.42668402
No. of atoms with KB's overlaping orbs in proc 0. Max # of overlaps:      12     108
New grid distribution:   1
           1       1:   40    1:   20    1:    6
           2       1:   40    1:   20    7:   12
           3       1:   40    1:   20   13:   18
           4       1:   40    1:   20   19:   24
           5       1:   40   21:   40    1:    6
           6       1:   40   21:   40    7:   12
           7       1:   40   21:   40   13:   18
           8       1:   40   21:   40   19:   24

InitMesh: MESH =    80 x    80 x    48 =      307200
InitMesh: (bp) =    40 x    40 x    24 =       38400
InitMesh: Mesh cutoff (required, used) =   120.000   127.546 Ry
ExtMesh (bp) on 0 =    80 x    64 x    50 =      256000
New grid distribution:   2
           1       1:   11   15:   40    1:    7
           2      12:   40    1:   14    7:   24
           3       1:   11   15:   40    8:   24
           4       1:   11    1:   14    8:   24
           5      12:   40   15:   40    1:    7
           6      12:   40    1:   14    1:    6
           7      12:   40   15:   40    8:   24
           8       1:   11    1:   14    1:    7
New grid distribution:   3
           1      14:   40    1:   15    1:    9
           2       1:   13    1:   15   11:   24
           3      14:   40    1:   15   10:   24
           4       1:   13   16:   40   10:   24
           5      14:   40   16:   40    1:    8
           6       1:   13   16:   40    1:    9
           7      14:   40   16:   40    9:   24
           8       1:   13    1:   15    1:   10
Setting up quadratic distribution...
ExtMesh (bp) on 0 =    51 x    70 x    51 =      182070
PhiOnMesh: Number of (b)points on node 0 =                 2002
PhiOnMesh: nlist on node 0 =                50050

        iscf     Eharris(eV)        E_KS(eV)     FreeEng(eV)     dDmax    Ef(eV) dHmax(eV)
   scf:    1     -535.387334     -777.603322     -777.603325  5.162384 -6.319054 55.124850
   scf:    2     2101.350071       71.772873       71.772557  8.680662  1.993853149.700283
   scf:    3     -926.201337     -863.010167     -863.010167  8.574100 -4.680921 16.176724
   scf:    4     -873.982538     -871.153436     -871.154689  0.763621 -3.507840  3.225557
   scf:    5     -870.584553     -871.303696     -871.304306  0.646951 -3.393469  2.618552
   scf:    6     -871.348215     -871.639282     -871.652469  0.567832 -3.118099  1.398796
   scf:    7     -871.833157     -871.825434     -871.842689  0.267797 -3.026837  0.654440
   scf:    8     -871.789866     -871.819258     -871.859502  0.123787 -2.964615  0.278435
   scf:    9     -871.835700     -871.831205     -871.863021  0.058518 -2.949893  0.152551
   scf:   10     -871.823701     -871.830778     -871.863949  0.062313 -2.940989  0.079911
   scf:   11     -871.829968     -871.833310     -871.863992  0.056778 -2.937843  0.105421
   scf:   12     -871.833681     -871.834310     -871.865692  0.031442 -2.934070  0.013961
   scf:   13     -871.834028     -871.834170     -871.865699  0.000984 -2.936754  0.007717
   scf:   14     -871.834238     -871.834205     -871.865705  0.001215 -2.938683  0.002046
   scf:   15     -871.834179     -871.834192     -871.865705  0.000211 -2.939240  0.001073
   scf:   16     -871.834202     -871.834197     -871.865705  0.000214 -2.939368  0.000514
   scf:   17     -871.834196     -871.834197     -871.865705  0.000014 -2.939425  0.000200

SCF Convergence by DM+H criterion
max |DM_out - DM_in|         :     0.0000143933
max |H_out - H_in|      (eV) :     0.0002004565
SCF cycle converged after 17 iterations

Using DM_out to compute the final energy and forces
No. of atoms with KB's overlaping orbs in proc 0. Max # of overlaps:      12     108

siesta: E_KS(eV) =             -871.8342

zmatrix: Atomic forces (eV/Ang ; eV/deg )
zmatrix: (No information if symbols are used)
molecule    1 (    12 atoms)
     1    0.000000    0.000000    0.000000
     2    0.000000    0.000000    0.000000
     3    0.000000    0.000000    0.000000
     4    0.000000    0.000000    0.000000
     5    0.000000    0.000000    0.000000
     6    0.000000    0.000000    0.000000
     7    0.000000    0.000000    0.000000
     8    0.000000    0.000000    0.000000
     9    0.000000    0.000000    0.000000
    10    0.000000    0.000000    0.000000
    11    0.000000    0.000000    0.000000
    12    0.000000    0.000000    0.000000


Variable forces (eV/Ang ; eV/deg )
 xm1         -435.40187806546078     
 zm1          7.1308384370162032E-003
 CCC          19.615028536386681     
 CH           32.667349872989519     
 CCH          3.1725916752421916E-002

siesta: Atomic forces (eV/Ang):
----------------------------------------
   Tot   -0.009587    0.049767    0.007131
----------------------------------------
   Max  229.872116
   Res   70.669928    sqrt( Sum f_i^2 / 3N )
----------------------------------------
   Max  229.872116    constrained

Stress-tensor-Voigt (kbar):     -387.24     -829.61       -0.04      -73.28       -0.00       -0.00
(Free)E + p*V (eV/cell)     -665.7806
Target enthalpy (eV/cell)     -871.8657

                     ====================================
                        Begin CG opt. move =      2

zmatrix: Z-matrix coordinates: (Ang ; deg )
zmatrix: (Fractional coordinates have been converted to cartesian)
molecule    1 (    12 atoms)
      2.48675348      3.68000000      6.90322969
      1.41647552     90.00000000     60.00000000
      1.41647552    119.86811708     90.00000000
      1.41647552    119.86811708      0.00000000
      1.41647552    119.86811708      0.00000000
      1.41647552    119.86811708      0.00000000
      1.11192309    120.00006529    180.00000000
      1.11192309    120.00006529      0.00000000
      1.11192309    120.00006529      0.00000000
      1.11192309    120.00006529      0.00000000
      1.11192309    120.00006529      0.00000000
      1.11192309    120.00006529      0.00000000


Z-matrix Symbol Section -------
Variables
 xm1          2.4867534817045707     
 zm1          6.9032296946172913     
 CCC          119.86811708067955     
 CH           1.1119230884711437     
 CCH          120.00006528697082     
Constants
 ym1          3.6800000000000002     
 CC           1.4164755182954294     
------------ End of Z-matrix Information

                     ====================================

outcell: Unit cell vectors (Ang):
       11.776283    0.000000    0.000000
        0.000000   11.030875    0.000000
        0.000000    0.000000    6.266317

outcell: Cell vector modules (Ang)   :   11.776283   11.030875    6.266317
outcell: Cell angles (23,13,12) (deg):     90.0000     90.0000     90.0000
outcell: Cell volume (Ang**3)        :    814.0116
<dSpData1D:S at geom step 2
  <sparsity:sparsity for geom step 2
    nrows_g=108 nrows=14 sparsity=.1296 nnzs=1512, refcount: 7>
  <dData1D:(new from dSpData1D) n=1512, refcount: 1>
refcount: 1>
new_DM -- step:     3
Re-using DM from previous geometries...
Number of DMs in history: 1
 DM extrapolation coefficients: 
1   1.00000
New DM after history re-use:
<dSpData2D:SpM extrapolated using coords
  <sparsity:sparsity for geom step 2
    nrows_g=108 nrows=14 sparsity=.1296 nnzs=1512, refcount: 8>
  <dData2D:(temp array for extrapolation) n=1512 m=1, refcount: 1>
refcount: 1>
Note: For starting DM, Qtot, Tr[D*S] =         30.00000000         31.54646183
No. of atoms with KB's overlaping orbs in proc 0. Max # of overlaps:      11     101
New grid distribution:   1
           1       1:   40    1:   20    1:    6
           2       1:   40    1:   20    7:   12
           3       1:   40    1:   20   13:   18
           4       1:   40    1:   20   19:   24
           5       1:   40   21:   40    1:    6
           6       1:   40   21:   40    7:   12
           7       1:   40   21:   40   13:   18
           8       1:   40   21:   40   19:   24

InitMesh: MESH =    80 x    80 x    48 =      307200
InitMesh: (bp) =    40 x    40 x    24 =       38400
InitMesh: Mesh cutoff (required, used) =   120.000   127.546 Ry
ExtMesh (bp) on 0 =    80 x    64 x    50 =      256000
New grid distribution:   2
           1       1:   14   15:   40    1:    6
           2       1:   14   15:   40    7:   24
           3      15:   40    1:   14    7:   24
           4       1:   14    1:   14    7:   24
           5      15:   40   15:   40    1:    6
           6      15:   40   15:   40    7:   24
           7      15:   40    1:   14    1:    6
           8       1:   14    1:   14    1:    6
New grid distribution:   3
           1      15:   40   16:   40    1:    8
           2      16:   40    1:   15    1:    9
           3      16:   40    1:   15   10:   24
           4       1:   15    1:   15    1:   10
           5       1:   15    1:   15   11:   24
           6       1:   14   16:   40    1:    9
           7      15:   40   16:   40    9:   24
           8       1:   14   16:   40   10:   24
Setting up quadratic distribution...
ExtMesh (bp) on 0 =    54 x    70 x    50 =      189000
PhiOnMesh: Number of (b)points on node 0 =                 2184
PhiOnMesh: nlist on node 0 =                45795

        iscf     Eharris(eV)        E_KS(eV)     FreeEng(eV)     dDmax    Ef(eV) dHmax(eV)
   scf:    1     -503.751730     -836.464473     -836.464552  2.598639 -2.697905 47.287760
   scf:    2     4792.635083      804.942121      804.942112  3.849086 -6.029927147.187551
   scf:    3    -1418.439703    -1022.093950    -1022.093950  3.792500 -5.559350  3.845533
   scf:    4    -1024.255103    -1023.335507    -1023.335507  0.036200 -5.078485  2.194639
   scf:    5    -1024.134071    -1023.791808    -1023.791808  0.025640 -4.639120  0.901322
   scf:    6    -1023.886185    -1023.843679    -1023.843679  0.007917 -4.549690  0.273735
   scf:    7    -1023.857090    -1023.851405    -1023.851405  0.004762 -4.491685  0.065275
   scf:    8    -1023.852538    -1023.852016    -1023.852016  0.002430 -4.472712  0.028327
   scf:    9    -1023.852158    -1023.852097    -1023.852097  0.000727 -4.469559  0.003408
   scf:   10    -1023.852101    -1023.852099    -1023.852099  0.000076 -4.470065  0.002939
   scf:   11    -1023.852102    -1023.852100    -1023.852100  0.000161 -4.469815  0.000851
   scf:   12    -1023.852100    -1023.852100    -1023.852100  0.000025 -4.469837  0.000447

SCF Convergence by DM+H criterion
max |DM_out - DM_in|         :     0.0000248358
max |H_out - H_in|      (eV) :     0.0004472809
SCF cycle converged after 12 iterations

Using DM_out to compute the final energy and forces
No. of atoms with KB's overlaping orbs in proc 0. Max # of overlaps:      11     101

siesta: E_KS(eV) =            -1023.8521

zmatrix: Atomic forces (eV/Ang ; eV/deg )
zmatrix: (No information if symbols are used)
molecule    1 (    12 atoms)
     1    0.000000    0.000000    0.000000
     2    0.000000    0.000000    0.000000
     3    0.000000    0.000000    0.000000
     4    0.000000    0.000000    0.000000
     5    0.000000    0.000000    0.000000
     6    0.000000    0.000000    0.000000
     7    0.000000    0.000000    0.000000
     8    0.000000    0.000000    0.000000
     9    0.000000    0.000000    0.000000
    10    0.000000    0.000000    0.000000
    11    0.000000    0.000000    0.000000
    12    0.000000    0.000000    0.000000


Variable forces (eV/Ang ; eV/deg )
 xm1          4.6004977689893138     
 zm1          2.2073192648722918E-003
 CCC         -1.9058551068620252E-002
 CH         -0.79065502411690003     
 CCH         -8.1848655858696010E-004

siesta: Atomic forces (eV/Ang):
----------------------------------------
   Tot    0.008319   -0.006010    0.002207
----------------------------------------
   Max    0.773242
   Res    0.304352    sqrt( Sum f_i^2 / 3N )
----------------------------------------
   Max    0.773242    constrained

Stress-tensor-Voigt (kbar):        7.86        6.69       -0.05        0.93        0.00       -0.00
(Free)E + p*V (eV/cell)    -1026.3068
Target enthalpy (eV/cell)    -1023.8521

cgvc_zmatrix: Finished line minimization    1.  Mean atomic displacement =    0.0007

                     ====================================
                        Begin CG opt. move =      3

zmatrix: Z-matrix coordinates: (Ang ; deg )
zmatrix: (Fractional coordinates have been converted to cartesian)
molecule    1 (    12 atoms)
      2.48805695      3.68000000      6.90323030
      1.41517205     90.00000000     60.00000000
      1.41517205    119.85645747     90.00000000
      1.41517205    119.85645747      0.00000000
      1.41517205    119.85645747      0.00000000
      1.41517205    119.85645747      0.00000000
      1.11169265    119.99678406    180.00000000
      1.11169265    119.99678406      0.00000000
      1.11169265    119.99678406      0.00000000
      1.11169265    119.99678406      0.00000000
      1.11169265    119.99678406      0.00000000
      1.11169265    119.99678406      0.00000000


Z-matrix Symbol Section -------
Variables
 xm1          2.4880569531661263     
 zm1          6.9032302991680741     
 CCC          119.85645747375335     
 CH           1.1116926504165801     
 CCH          119.99678405946790     
Constants
 ym1          3.6800000000000002     
 CC           1.4151720468338735     
------------ End of Z-matrix Information

                     ====================================

outcell: Unit cell vectors (Ang):
       11.776283    0.000000    0.000000
        0.000000   11.030875    0.000000
        0.000000    0.000000    6.266317

outcell: Cell vector modules (Ang)   :   11.776283   11.030875    6.266317
outcell: Cell angles (23,13,12) (deg):     90.0000     90.0000     90.0000
outcell: Cell volume (Ang**3)        :    814.0116
<dSpData1D:S at geom step 3
  <sparsity:sparsity for geom step 3
    nrows_g=108 nrows=14 sparsity=.1296 nnzs=1512, refcount: 7>
  <dData1D:(new from dSpData1D) n=1512, refcount: 1>
refcount: 1>
new_DM -- step:     4
Re-using DM from previous geometries...
Number of DMs in history: 1
 DM extrapolation coefficients: 
1   1.00000
New DM after history re-use:
<dSpData2D:SpM extrapolated using coords
  <sparsity:sparsity for geom step 3
    nrows_g=108 nrows=14 sparsity=.1296 nnzs=1512, refcount: 8>
  <dData2D:(temp array for extrapolation) n=1512 m=1, refcount: 1>
refcount: 1>
No. of atoms with KB's overlaping orbs in proc 0. Max # of overlaps:      11     101
New grid distribution:   1
           1       1:   40    1:   20    1:    6
           2       1:   40    1:   20    7:   12
           3       1:   40    1:   20   13:   18
           4       1:   40    1:   20   19:   24
           5       1:   40   21:   40    1:    6
           6       1:   40   21:   40    7:   12
           7       1:   40   21:   40   13:   18
           8       1:   40   21:   40   19:   24

InitMesh: MESH =    80 x    80 x    48 =      307200
InitMesh: (bp) =    40 x    40 x    24 =       38400
InitMesh: Mesh cutoff (required, used) =   120.000   127.546 Ry
ExtMesh (bp) on 0 =    80 x    64 x    50 =      256000
New grid distribution:   2
           1      15:   40   15:   40    1:    6
           2      14:   40    1:   14    7:   24
           3       1:   13    1:   14    7:   24
           4       1:   14   15:   40    1:    6
           5      14:   40    1:   14    1:    6
           6      15:   40   15:   40    7:   24
           7       1:   14   15:   40    7:   24
           8       1:   13    1:   14    1:    6
New grid distribution:   3
           1      15:   40   16:   40    1:    8
           2      16:   40    1:   15    1:    9
           3      16:   40    1:   15   10:   24
           4       1:   15    1:   15    1:   10
           5       1:   15    1:   15   11:   24
           6       1:   14   16:   40    1:    9
           7      15:   40   16:   40    9:   24
           8       1:   14   16:   40   10:   24
Setting up quadratic distribution...
ExtMesh (bp) on 0 =    66 x    70 x    50 =      231000
PhiOnMesh: Number of (b)points on node 0 =                 4056
PhiOnMesh: nlist on node 0 =                42304

        iscf     Eharris(eV)        E_KS(eV)     FreeEng(eV)     dDmax    Ef(eV) dHmax(eV)
   scf:    1    -1023.812487    -1023.858012    -1023.858012  0.001895 -4.464685  0.027345
   scf:    2    -1023.857293    -1023.857825    -1023.857825  0.001305 -4.475231  0.067602
   scf:    3    -1023.858129    -1023.858065    -1023.858065  0.000939 -4.468299  0.002353
   scf:    4    -1023.858067    -1023.858066    -1023.858066  0.000069 -4.468280  0.000974

SCF Convergence by DM+H criterion
max |DM_out - DM_in|         :     0.0000693702
max |H_out - H_in|      (eV) :     0.0009739314
SCF cycle converged after 4 iterations

Using DM_out to compute the final energy and forces
No. of atoms with KB's overlaping orbs in proc 0. Max # of overlaps:      11     101

siesta: E_KS(eV) =            -1023.8581

zmatrix: Atomic forces (eV/Ang ; eV/deg )
zmatrix: (No information if symbols are used)
molecule    1 (    12 atoms)
     1    0.000000    0.000000    0.000000
     2    0.000000    0.000000    0.000000
     3    0.000000    0.000000    0.000000
     4    0.000000    0.000000    0.000000
     5    0.000000    0.000000    0.000000
     6    0.000000    0.000000    0.000000
     7    0.000000    0.000000    0.000000
     8    0.000000    0.000000    0.000000
     9    0.000000    0.000000    0.000000
    10    0.000000    0.000000    0.000000
    11    0.000000    0.000000    0.000000
    12    0.000000    0.000000    0.000000


Variable forces (eV/Ang ; eV/deg )
 xm1          4.1583965443894524     
 zm1          2.3608132487775296E-003
 CCC         -1.9267204011001028E-003
 CH         -0.73845997154669962     
 CCH         -8.3566111559096412E-004

siesta: Atomic forces (eV/Ang):
----------------------------------------
   Tot    0.008859   -0.001983    0.002361
----------------------------------------
   Max    0.720946
   Res    0.289539    sqrt( Sum f_i^2 / 3N )
----------------------------------------
   Max    0.720946    constrained

Stress-tensor-Voigt (kbar):        7.23        5.95       -0.05        1.02        0.00        0.00
(Free)E + p*V (eV/cell)    -1026.0813
Target enthalpy (eV/cell)    -1023.8581

                     ====================================
                        Begin CG opt. move =      4

zmatrix: Z-matrix coordinates: (Ang ; deg )
zmatrix: (Fractional coordinates have been converted to cartesian)
molecule    1 (    12 atoms)
      2.49014251      3.68000000      6.90323127
      1.41308649     90.00000000     60.00000000
      1.41308649    119.83780210     90.00000000
      1.41308649    119.83780210      0.00000000
      1.41308649    119.83780210      0.00000000
      1.41308649    119.83780210      0.00000000
      1.11132395    119.99153410    180.00000000
      1.11132395    119.99153410      0.00000000
      1.11132395    119.99153410      0.00000000
      1.11132395    119.99153410      0.00000000
      1.11132395    119.99153410      0.00000000
      1.11132395    119.99153410      0.00000000


Z-matrix Symbol Section -------
Variables
 xm1          2.4901425075046162     
 zm1          6.9032312664493265     
 CCC          119.83780210267142     
 CH           1.1113239495292784     
 CCH          119.99153409546321     
Constants
 ym1          3.6800000000000002     
 CC           1.4130864924953839     
------------ End of Z-matrix Information

                     ====================================

outcell: Unit cell vectors (Ang):
       11.776283    0.000000    0.000000
        0.000000   11.030875    0.000000
        0.000000    0.000000    6.266317

outcell: Cell vector modules (Ang)   :   11.776283   11.030875    6.266317
outcell: Cell angles (23,13,12) (deg):     90.0000     90.0000     90.0000
outcell: Cell volume (Ang**3)        :    814.0116
<dSpData1D:S at geom step 4
  <sparsity:sparsity for geom step 4
    nrows_g=108 nrows=14 sparsity=.1296 nnzs=1512, refcount: 7>
  <dData1D:(new from dSpData1D) n=1512, refcount: 1>
refcount: 1>
new_DM -- step:     5
Re-using DM from previous geometries...
Number of DMs in history: 1
 DM extrapolation coefficients: 
1   1.00000
New DM after history re-use:
<dSpData2D:SpM extrapolated using coords
  <sparsity:sparsity for geom step 4
    nrows_g=108 nrows=14 sparsity=.1296 nnzs=1512, refcount: 8>
  <dData2D:(temp array for extrapolation) n=1512 m=1, refcount: 1>
refcount: 1>
No. of atoms with KB's overlaping orbs in proc 0. Max # of overlaps:      11     101
New grid distribution:   1
           1       1:   40    1:   20    1:    6
           2       1:   40    1:   20    7:   12
           3       1:   40    1:   20   13:   18
           4       1:   40    1:   20   19:   24
           5       1:   40   21:   40    1:    6
           6       1:   40   21:   40    7:   12
           7       1:   40   21:   40   13:   18
           8       1:   40   21:   40   19:   24

InitMesh: MESH =    80 x    80 x    48 =      307200
InitMesh: (bp) =    40 x    40 x    24 =       38400
InitMesh: Mesh cutoff (required, used) =   120.000   127.546 Ry
ExtMesh (bp) on 0 =    80 x    64 x    50 =      256000
New grid distribution:   2
           1      15:   40   15:   40    1:    6
           2      14:   40    1:   14    7:   24
           3       1:   13    1:   14    7:   24
           4       1:   14   15:   40    1:    6
           5      14:   40    1:   14    1:    6
           6      15:   40   15:   40    7:   24
           7       1:   14   15:   40    7:   24
           8       1:   13    1:   14    1:    6
New grid distribution:   3
           1      15:   40   16:   40    1:    8
           2      16:   40    1:   15    1:    9
           3      16:   40    1:   15   10:   24
           4       1:   15    1:   15    1:   10
           5       1:   15    1:   15   11:   24
           6       1:   14   16:   40    1:    9
           7      15:   40   16:   40    9:   24
           8       1:   14   16:   40   10:   24
Setting up quadratic distribution...
ExtMesh (bp) on 0 =    66 x    70 x    50 =      231000
PhiOnMesh: Number of (b)points on node 0 =                 4056
PhiOnMesh: nlist on node 0 =                42240

        iscf     Eharris(eV)        E_KS(eV)     FreeEng(eV)     dDmax    Ef(eV) dHmax(eV)
   scf:    1    -1023.792460    -1023.865875    -1023.865875  0.002928 -4.459520  0.043403
   scf:    2    -1023.864106    -1023.865417    -1023.865417  0.002037 -4.476554  0.106547
   scf:    3    -1023.866165    -1023.866005    -1023.866005  0.001464 -4.465360  0.003579
   scf:    4    -1023.866010    -1023.866008    -1023.866008  0.000106 -4.465348  0.001509
   scf:    5    -1023.866008    -1023.866008    -1023.866008  0.000089 -4.464943  0.000236

SCF Convergence by DM+H criterion
max |DM_out - DM_in|         :     0.0000887149
max |H_out - H_in|      (eV) :     0.0002361095
SCF cycle converged after 5 iterations

Using DM_out to compute the final energy and forces
No. of atoms with KB's overlaping orbs in proc 0. Max # of overlaps:      11     101

siesta: E_KS(eV) =            -1023.8660

zmatrix: Atomic forces (eV/Ang ; eV/deg )
zmatrix: (No information if symbols are used)
molecule    1 (    12 atoms)
     1    0.000000    0.000000    0.000000
     2    0.000000    0.000000    0.000000
     3    0.000000    0.000000    0.000000
     4    0.000000    0.000000    0.000000
     5    0.000000    0.000000    0.000000
     6    0.000000    0.000000    0.000000
     7    0.000000    0.000000    0.000000
     8    0.000000    0.000000    0.000000
     9    0.000000    0.000000    0.000000
    10    0.000000    0.000000    0.000000
    11    0.000000    0.000000    0.000000
    12    0.000000    0.000000    0.000000


Variable forces (eV/Ang ; eV/deg )
 xm1          3.4499312090811345     
 zm1          2.1343426701419220E-003
 CCC          2.5806060989227234E-002
 CH         -0.65922224114093186     
 CCH         -8.9134070050354798E-004

siesta: Atomic forces (eV/Ang):
----------------------------------------
   Tot    0.006281   -0.001279    0.002134
----------------------------------------
   Max    0.690291
   Res    0.271872    sqrt( Sum f_i^2 / 3N )
----------------------------------------
   Max    0.690291    constrained

Stress-tensor-Voigt (kbar):        6.23        4.78       -0.05        1.16        0.00       -0.00
(Free)E + p*V (eV/cell)    -1025.7217
Target enthalpy (eV/cell)    -1023.8660

outcoor: Final (unrelaxed) atomic coordinates (Ang):        
    2.49014251    3.68000000    6.90323127   2       1  C
    3.19668575    4.90376880    6.90323127   2       2  C
    4.60976658    4.89976852    6.90323127   2       3  C
    5.30936984    3.67201906    6.90323127   2       4  C
    4.59245914    2.45429476    6.90323127   2       5  C
    3.17946324    2.47029557    6.90323127   2       6  C
    1.37881857    3.68016421    6.90323127   1       7  H
    2.64088158    5.86612146    6.90323127   1       8  H
    5.16800889    5.86070891    6.90323127   1       9  H
    6.42067689    3.66589124    6.90323127   1      10  H
    5.14007044    1.48725660    6.90323127   1      11  H
    2.61308022    1.51413073    6.90323127   1      12  H

zmatrix: Z-matrix coordinates: (Ang ; deg )
zmatrix: (Fractional coordinates have been converted to cartesian)
molecule    1 (    12 atoms)
      2.49347939      3.68000000      6.90323281
      1.40974961     90.00000000     60.00000000
      1.40974961    119.80795351     90.00000000
      1.40974961    119.80795351      0.00000000
      1.40974961    119.80795351      0.00000000
      1.40974961    119.80795351      0.00000000
      1.11073403    119.98313415    180.00000000
      1.11073403    119.98313415      0.00000000
      1.11073403    119.98313415      0.00000000
      1.11073403    119.98313415      0.00000000
      1.11073403    119.98313415      0.00000000
      1.11073403    119.98313415      0.00000000


Z-matrix Symbol Section -------
Variables
 xm1          2.4934793944461990     
 zm1          6.9032328140993293     
 CCC          119.80795350894034     
 CH           1.1107340281095954     
 CCH          119.98313415305572     
Constants
 ym1          3.6800000000000002     
 CC           1.4097496055538010     
------------ End of Z-matrix Information


siesta: Program's energy decomposition (eV):
siesta: Ebs     =      -358.414227
siesta: Eions   =      1613.953835
siesta: Ena     =       340.410847
siesta: Ekin    =       732.374439
siesta: Enl     =      -119.340610
siesta: Eso     =         0.000000
siesta: Eldau   =         0.000000
siesta: DEna    =       -33.920913
siesta: DUscf   =         3.791943
siesta: DUext   =         0.000000
siesta: Exc     =      -333.227879
siesta: eta*DQ  =         0.000000
siesta: Emadel  =         0.000000
siesta: Emeta   =         0.000000
siesta: Emolmec =         0.000000
siesta: Ekinion =         0.000000
siesta: Eharris =     -1023.866008
siesta: Etot    =     -1023.866008
siesta: FreeEng =     -1023.866008

siesta: Final energy (eV):
siesta:  Band Struct. =    -358.414227
siesta:       Kinetic =     732.374439
siesta:       Hartree =    1842.465611
siesta:       Eldau   =       0.000000
siesta:       Eso     =       0.000000
siesta:    Ext. field =       0.000000
siesta:   Exch.-corr. =    -333.227879
siesta:  Ion-electron =   -4340.179205
siesta:       Ion-ion =    1074.701026
siesta:       Ekinion =       0.000000
siesta:         Total =   -1023.866008
siesta:         Fermi =      -4.464943

siesta: Atomic forces (eV/Ang):
siesta:      1    0.155570    0.690291    0.000186
siesta:      2    0.382790   -0.483568    0.000456
siesta:      3   -0.397961   -0.506390    0.000298
siesta:      4   -0.637528   -0.049612    0.000218
siesta:      5   -0.205586    0.578071    0.000261
siesta:      6    0.674200   -0.222886   -0.000168
siesta:      7    0.105645    0.034126   -0.000392
siesta:      8    0.064029   -0.095290   -0.000255
siesta:      9   -0.048905   -0.101022    0.000138
siesta:     10   -0.114254   -0.008853   -0.000306
siesta:     11   -0.056446    0.097038    0.000937
siesta:     12    0.084727    0.066817    0.000761
siesta: ----------------------------------------
siesta:    Tot    0.006281   -0.001279    0.002134

siesta: Stress tensor (static) (eV/Ang**3):
siesta:     0.003891    0.000723   -0.000000
siesta:     0.000723    0.002981    0.000000
siesta:    -0.000000    0.000000   -0.000033

siesta: Cell volume =        814.011582 Ang**3

siesta: Pressure (static):
siesta:                Solid            Molecule  Units
siesta:          -0.00002483          0.00000018  Ry/Bohr**3
siesta:          -0.00227971          0.00001657  eV/Ang**3
siesta:          -3.65254196          0.02655297  kBar
(Free)E+ p_basis*V_orbitals  =       -1019.862815
(Free)Eharris+ p_basis*V_orbitals  =       -1019.862815

siesta: Electric dipole (a.u.)  =   -0.001093   -0.000268   -0.000067
siesta: Electric dipole (Debye) =   -0.002779   -0.000682   -0.000171
>> End of run:   2-JUL-2017  11:10:37
Job completed
