Siesta Version:                                        siesta-3.0-rc2
Architecture  : macosx-openmpi
Compiler flags: /opt/openmpi.gcc.gfortran/bin/mpif90 -O2
PARALLEL version

* Running on    2 nodes in parallel
>> Start of run:  30-JUN-2010  11:33:53

                           ***********************       
                           *  WELCOME TO SIESTA  *       
                           ***********************       

reinit: Reading from standard input
************************** Dump of input data file ****************************
SystemName benzene
SystemLabel benzene
NumberOfSpecies 2
NumberOfAtoms   12
%block ChemicalSpeciesLabel
1    1 H
2    6 C
%endblock ChemicalSpeciesLabel
%block PS.Lmax
  C 2
%endblock PS.Lmax
AtomicCoordinatesFormat NotScaledCartesianAng
ZM.ForceTolLength 0.04 eV/Ang
ZM.ForceTolAngle 0.0001 eV/deg
ZM.MaxDisplLength 0.1 Ang
ZM.MaxDisplAngle 20.0 deg
%block Zmatrix
molecule
      2 0 0 0 xm1 ym1 zm1 0 0 0
      2 1 0 0 CC 90.0 60.0 0 0 0
      2 2 1 0 CC CCC 90.0 0 0 0
      2 3 2 1 CC CCC 0.0 0 0 0
      2 4 3 2 CC CCC 0.0 0 0 0
      2 5 4 3 CC CCC 0.0 0 0 0
      1 1 2 3 CH CCH 180.0 0 0 0
      1 2 1 7 CH CCH 0.0 0 0 0
      1 3 2 8 CH CCH 0.0 0 0 0
      1 4 3 9 CH CCH 0.0 0 0 0
      1 5 4 10 CH CCH 0.0 0 0 0
      1 6 5 11 CH CCH 0.0 0 0 0
constants
        ym1 3.68
variables
        zm1 6.9032294
        CC 1.417
        CH 1.112
        CCH 120.0
        CCC 120.0
constraints
        xm1 CC -1.0 3.903229
%endblock Zmatrix
ZM.UnitsLength Ang
ZM.UnitsAngle deg
MD.TypeOfRun CG
MD.NumCGsteps 4
MeshCutoff 120 Ry
PAO.EnergyShift 0.01 Ry
DM.NumberPulay 5
DM.MixingWeight 0.3
************************** End of input data file *****************************

reinit: -----------------------------------------------------------------------
reinit: System Name: benzene
reinit: -----------------------------------------------------------------------
reinit: System Label: benzene                                                     
reinit: -----------------------------------------------------------------------

initatom: Reading input for the pseudopotentials and atomic orbitals ----------
 Species number:            1  Label: H Atomic number:           1
 Species number:            2  Label: C Atomic number:           6
Ground state valence configuration:   1s01
Reading pseudopotential information in formatted form from H.psf

Valence configuration for pseudopotential generation:
1s( 1.00) rc: 1.25
2p( 0.00) rc: 1.25
3d( 0.00) rc: 1.25
4f( 0.00) rc: 1.25
Ground state valence configuration:   2s02  2p02
Reading pseudopotential information in formatted form from C.psf

Valence configuration for pseudopotential generation:
2s( 2.00) rc: 1.49
2p( 2.00) rc: 1.52
3d( 0.00) rc: 1.58
relmxkb: Read Max KB Ang. Momentum=    2 for species C
For H, standard SIESTA heuristics set lmxkb to 2
 (one more than the basis l, including polarization orbitals).
Use PS.lmax or PS.KBprojectors blocks to override.

<basis_specs>
===============================================================================
H                    Z=   1    Mass=  1.0100        Charge= 0.17977+309
Lmxo=0 Lmxkb=2     BasisType=split      Semic=F
L=0  Nsemic=0  Cnfigmx=1
          n=1  nzeta=2  polorb=1
            splnorm:   0.15000    
               vcte:    0.0000    
               rinn:    0.0000    
                rcs:    0.0000      0.0000    
            lambdas:    1.0000      1.0000    
-------------------------------------------------------------------------------
L=0  Nkbl=1  erefs: 0.17977+309
L=1  Nkbl=1  erefs: 0.17977+309
L=2  Nkbl=1  erefs: 0.17977+309
===============================================================================
</basis_specs>

atom: Called for H                     (Z =   1)

read_vps: Pseudopotential generation method:
read_vps: ATM3      Troullier-Martins                       
Total valence charge:    1.00000

xc_check: Exchange-correlation functional:
xc_check: Ceperley-Alder
V l=0 = -2*Zval/r beyond r=  1.2343
V l=1 = -2*Zval/r beyond r=  1.2189
V l=2 = -2*Zval/r beyond r=  1.2189
All V_l potentials equal beyond r=  1.2343
This should be close to max(r_c) in ps generation
All pots = -2*Zval/r beyond r=  1.2343

VLOCAL1: 99.0% of the norm of Vloc inside     28.493 Ry
VLOCAL1: 99.9% of the norm of Vloc inside     64.935 Ry
atom: Maximum radius for 4*pi*r*r*local-pseudopot. charge    1.45251
atom: Maximum radius for r*vlocal+2*Zval:    1.21892
GHOST: No ghost state for L =  0
GHOST: No ghost state for L =  1
GHOST: No ghost state for L =  2

KBgen: Kleinman-Bylander projectors: 
   l= 0   rc=  1.364359   el= -0.467325   Ekb= -2.005361   kbcos= -0.336422
   l= 1   rc=  1.434438   el=  0.001430   Ekb= -0.501708   kbcos= -0.021697
   l= 2   rc=  1.470814   el=  0.002365   Ekb= -0.190555   kbcos= -0.002281

KBgen: Total number of  Kleinman-Bylander projectors:    9
atom: -------------------------------------------------------------------------

atom: SANKEY-TYPE ORBITALS:
atom: Selected multiple-zeta basis: split     

SPLIT: Orbitals with angular momentum L= 0

SPLIT: Basis orbitals for state 1s

SPLIT: PAO cut-off radius determined from an
SPLIT: energy shift=  0.010000 Ry

   izeta = 1
                 lambda =    1.000000
                     rc =    5.336316
                 energy =   -0.457946
                kinetic =    0.886710
    potential(screened) =   -1.344656
       potential(ionic) =   -1.876618

   izeta = 2
                 rmatch =    4.002347
              splitnorm =    0.150000
                 energy =   -0.355904
                kinetic =    1.439488
    potential(screened) =   -1.795392
       potential(ionic) =   -2.364690

POLgen: Perturbative polarization orbital with L=  1

POLgen: Polarization orbital for state 1s

   izeta = 1
                     rc =    5.336316
                 energy =    0.616245
                kinetic =    1.262150
    potential(screened) =   -0.645906
       potential(ionic) =   -1.116519
atom: Total number of Sankey-type orbitals:  5

atm_pop: Valence configuration (for local Pseudopot. screening):
 1s( 1.00)                                                            
Vna: chval, zval:    1.00000   1.00000

Vna:  Cut-off radius for the neutral-atom potential:   5.336316

atom: _________________________________________________________________________

<basis_specs>
===============================================================================
C                    Z=   6    Mass=  12.010        Charge= 0.17977+309
Lmxo=1 Lmxkb=2     BasisType=split      Semic=F
L=0  Nsemic=0  Cnfigmx=2
          n=1  nzeta=2  polorb=0
            splnorm:   0.15000    
               vcte:    0.0000    
               rinn:    0.0000    
                rcs:    0.0000      0.0000    
            lambdas:    1.0000      1.0000    
L=1  Nsemic=0  Cnfigmx=2
          n=1  nzeta=2  polorb=1
            splnorm:   0.15000    
               vcte:    0.0000    
               rinn:    0.0000    
                rcs:    0.0000      0.0000    
            lambdas:    1.0000      1.0000    
-------------------------------------------------------------------------------
L=0  Nkbl=1  erefs: 0.17977+309
L=1  Nkbl=1  erefs: 0.17977+309
L=2  Nkbl=1  erefs: 0.17977+309
===============================================================================
</basis_specs>

atom: Called for C                     (Z =   6)

read_vps: Pseudopotential generation method:
read_vps: ATM3      Troullier-Martins                       
Total valence charge:    4.00000

xc_check: Exchange-correlation functional:
xc_check: Ceperley-Alder
V l=0 = -2*Zval/r beyond r=  1.4666
V l=1 = -2*Zval/r beyond r=  1.5038
V l=2 = -2*Zval/r beyond r=  1.5612
All V_l potentials equal beyond r=  1.5612
This should be close to max(r_c) in ps generation
All pots = -2*Zval/r beyond r=  1.5612

VLOCAL1: 99.0% of the norm of Vloc inside     17.809 Ry
VLOCAL1: 99.9% of the norm of Vloc inside     40.586 Ry
atom: Maximum radius for 4*pi*r*r*local-pseudopot. charge    1.88329
atom: Maximum radius for r*vlocal+2*Zval:    1.62091
GHOST: No ghost state for L =  0
GHOST: No ghost state for L =  1
GHOST: No ghost state for L =  2

KBgen: Kleinman-Bylander projectors: 
   l= 0   rc=  1.747182   el= -1.001947   Ekb=  5.181700   kbcos=  0.300603
   l= 1   rc=  1.747182   el= -0.398598   Ekb= -4.328763   kbcos= -0.367074
   l= 2   rc=  1.955272   el=  0.002326   Ekb= -1.016175   kbcos= -0.009979

KBgen: Total number of  Kleinman-Bylander projectors:    9
atom: -------------------------------------------------------------------------

atom: SANKEY-TYPE ORBITALS:
atom: Selected multiple-zeta basis: split     

SPLIT: Orbitals with angular momentum L= 0

SPLIT: Basis orbitals for state 2s

SPLIT: PAO cut-off radius determined from an
SPLIT: energy shift=  0.010000 Ry

   izeta = 1
                 lambda =    1.000000
                     rc =    4.518360
                 energy =   -0.992087
                kinetic =    0.856755
    potential(screened) =   -1.848843
       potential(ionic) =   -5.436865

   izeta = 2
                 rmatch =    3.475094
              splitnorm =    0.150000
                 energy =   -0.853594
                kinetic =    1.308346
    potential(screened) =   -2.161940
       potential(ionic) =   -6.002045

SPLIT: Orbitals with angular momentum L= 1

SPLIT: Basis orbitals for state 2p

SPLIT: PAO cut-off radius determined from an
SPLIT: energy shift=  0.010000 Ry

   izeta = 1
                 lambda =    1.000000
                     rc =    5.382558
                 energy =   -0.388318
                kinetic =    2.456485
    potential(screened) =   -2.844804
       potential(ionic) =   -6.312273

   izeta = 2
                 rmatch =    3.607901
              splitnorm =    0.150000
                 energy =   -0.250655
                kinetic =    3.636791
    potential(screened) =   -3.887446
       potential(ionic) =   -7.736789

POLgen: Perturbative polarization orbital with L=  2

POLgen: Polarization orbital for state 2p

   izeta = 1
                     rc =    5.382558
                 energy =    1.148490
                kinetic =    2.389078
    potential(screened) =   -1.240587
       potential(ionic) =   -4.090578
atom: Total number of Sankey-type orbitals: 13

atm_pop: Valence configuration (for local Pseudopot. screening):
 2s( 2.00)                                                            
 2p( 2.00)                                                            
Vna: chval, zval:    4.00000   4.00000

Vna:  Cut-off radius for the neutral-atom potential:   5.382558

atom: _________________________________________________________________________

prinput: Basis input ----------------------------------------------------------

PAO.BasisType split     

%block ChemicalSpeciesLabel
    1    1 H                       # Species index, atomic number, species label
    2    6 C                       # Species index, atomic number, species label
%endblock ChemicalSpeciesLabel

%block PAO.Basis                 # Define Basis set
H                     1                    # Species label, number of l-shells
 n=1   0   2 P   1                   # n, l, Nzeta, Polarization, NzetaPol
   5.336      4.002   
   1.000      1.000   
C                     2                    # Species label, number of l-shells
 n=2   0   2                         # n, l, Nzeta 
   4.518      3.475   
   1.000      1.000   
 n=2   1   2 P   1                   # n, l, Nzeta, Polarization, NzetaPol
   5.383      3.608   
   1.000      1.000   
%endblock PAO.Basis

prinput: ----------------------------------------------------------------------

coor:   Atomic-coordinates input format  =     Cartesian coordinates
coor:                                          (in Angstroms)
read_Zmatrix: Length units: Ang       
read_Zmatrix: Angle  units: deg       
read_Zmatrix: Force tolerances:
read_Zmatrix:    for lengths =     0.001556 Ry/Bohr
read_Zmatrix:    for angles  =     0.000421 Ry/rad

read_Zmatrix: Maximum displacements:
read_Zmatrix:    for lengths =     0.188973 Bohr
read_Zmatrix:    for angles  =     0.349066 rad
%block Zmatrix
molecule
      2 0 0 0 xm1 ym1 zm1 0 0 0
      2 1 0 0 CC 90.0 60.0 0 0 0
      2 2 1 0 CC CCC 90.0 0 0 0
      2 3 2 1 CC CCC 0.0 0 0 0
      2 4 3 2 CC CCC 0.0 0 0 0
      2 5 4 3 CC CCC 0.0 0 0 0
      1 1 2 3 CH CCH 180.0 0 0 0
      1 2 1 7 CH CCH 0.0 0 0 0
      1 3 2 8 CH CCH 0.0 0 0 0
      1 4 3 9 CH CCH 0.0 0 0 0
      1 5 4 10 CH CCH 0.0 0 0 0
      1 6 5 11 CH CCH 0.0 0 0 0
constants
        ym1 3.68
variables
        zm1 6.9032294
        CC 1.417
        CH 1.112
        CCH 120.0
        CCC 120.0
constraints
        xm1 CC -1.0 3.903229
%endblock Zmatrix

zmatrix: Z-matrix coordinates: (Ang ; deg )
zmatrix: (Fractional coordinates have been converted to cartesian)
molecule    1 (    12 atoms)
      2.48622900      3.68000000      6.90322940
      1.41700000     90.00000000     60.00000000
      1.41700000    120.00000000     90.00000000
      1.41700000    120.00000000      0.00000000
      1.41700000    120.00000000      0.00000000
      1.41700000    120.00000000      0.00000000
      1.11200000    120.00000000    180.00000000
      1.11200000    120.00000000      0.00000000
      1.11200000    120.00000000      0.00000000
      1.11200000    120.00000000      0.00000000
      1.11200000    120.00000000      0.00000000
      1.11200000    120.00000000      0.00000000


Z-matrix Symbol Section -------
Variables
 xm1          2.4862289999999998     
 zm1          6.9032293999999998     
 ccc          120.00000000000017     
 ch           1.1120000000000001     
 cch          120.00000000000017     
Constants
 ym1          3.6800000000000002     
 cc           1.4170000000000000     
------------ End of Z-matrix Information


siesta: Atomic coordinates (Bohr) and species
siesta:      4.69829   6.95419  13.04522  2        1
siesta:      6.03717   9.27319  13.04522  2        2
siesta:      8.71491   9.27319  13.04522  2        3
siesta:     10.05378   6.95419  13.04522  2        4
siesta:      8.71491   4.63520  13.04522  2        5
siesta:      6.03717   4.63520  13.04522  2        6
siesta:      2.59692   6.95419  13.04522  1        7
siesta:      4.98648  11.09303  13.04522  1        8
siesta:      9.76560  11.09303  13.04522  1        9
siesta:     12.15516   6.95419  13.04522  1       10
siesta:      9.76560   2.81536  13.04522  1       11
siesta:      4.98648   2.81536  13.04522  1       12

siesta: Automatic unit cell vectors (Ang):
siesta:   11.776283    0.000000    0.000000
siesta:    0.000000   11.030875    0.000000
siesta:    0.000000    0.000000    6.266317

siesta: System type = molecule  

initatomlists: Number of atoms, orbitals, and projectors:     12   108   108

siesta: ******************** Simulation parameters ****************************
siesta:
siesta: The following are some of the parameters of the simulation.
siesta: A complete list of the parameters used, including default values,
siesta: can be found in file out.fdf
siesta:
redata: Non-Collinear-spin run           =     F
redata: SpinPolarized (Up/Down) run      =     F
redata: Number of spin components        =     1
redata: Long output                      =     F
redata: Number of Atomic Species         =        2
redata: Charge density info will appear in .RHO file
redata: Write Mulliken Pop.              =     NO
redata: Mesh Cutoff                      =   120.0000  Ry
redata: Net charge of the system         =     0.0000 |e|
redata: Max. number of SCF Iter          =       50
redata: Performing Pulay mixing using    =     5 iterations
redata: Mix DM in first SCF step ?       =     F
redata: Write Pulay info on disk?        =     F
redata: Discard 1st Pulay DM after  kick =     F
redata: New DM Mixing Weight             =     0.3000
redata: New DM Occupancy tolerance       = 0.000000000001
redata: No kicks to SCF
redata: DM Mixing Weight for Kicks       =     0.5000
redata: DM Tolerance for SCF             =     0.000100
redata: Require Energy convergence for SCF =     F
redata: DM Energy tolerance for SCF      =     0.000100 eV
redata: Require Harris convergence for SCF =     F
redata: DM Harris energy tolerance for SCF =     0.000100 eV
redata: Using Saved Data (generic)   =     F
redata: Use continuation files for DM    =     F
redata: Neglect nonoverlap interactions  =     F
redata: Method of Calculation            =     Diagonalization
redata: Divide and Conquer               =     T
redata: Electronic Temperature           =     0.0019  Ry
redata: Fix the spin of the system       =     F
redata: Dynamics option                  =     CG coord. optimization
redata: Variable cell                    =     F
redata: Use continuation files for CG    =     F
redata: Max atomic displ per move        =     0.2000  Bohr
redata: Maximum number of CG moves       =        4
redata: Force tolerance                  =     0.0016  Ry/Bohr
redata: ***********************************************************************
Total number of electrons:    30.000000
Total ionic charge:    30.000000

* ProcessorY, Blocksize:    1  24

 Kpoints in:            1 . Kpoints trimmed:            1

siesta: k-grid: Number of k-points =     1
siesta: k-grid: Cutoff (effective) =     3.133 Ang
siesta: k-grid: Supercell and displacements
siesta: k-grid:    1   0   0      0.000
siesta: k-grid:    0   1   0      0.000
siesta: k-grid:    0   0   1      0.000

* Maximum dynamic memory allocated =     2 MB

siesta:                 ==============================
                            Begin CG move =      0

zmatrix: Z-matrix coordinates: (Ang ; deg )
zmatrix: (Fractional coordinates have been converted to cartesian)
molecule    1 (    12 atoms)
      2.48622900      3.68000000      6.90322940
      1.41700000     90.00000000     60.00000000
      1.41700000    120.00000000     90.00000000
      1.41700000    120.00000000      0.00000000
      1.41700000    120.00000000      0.00000000
      1.41700000    120.00000000      0.00000000
      1.11200000    120.00000000    180.00000000
      1.11200000    120.00000000      0.00000000
      1.11200000    120.00000000      0.00000000
      1.11200000    120.00000000      0.00000000
      1.11200000    120.00000000      0.00000000
      1.11200000    120.00000000      0.00000000


Z-matrix Symbol Section -------
Variables
 xm1          2.4862289999999998     
 zm1          6.9032293999999998     
 ccc          120.00000000000017     
 ch           1.1120000000000001     
 cch          120.00000000000017     
Constants
 ym1          3.6800000000000002     
 cc           1.4170000000000000     
------------ End of Z-matrix Information

                        ==============================

outcell: Unit cell vectors (Ang):
       11.776283    0.000000    0.000000
        0.000000   11.030875    0.000000
        0.000000    0.000000    6.266317

outcell: Cell vector modules (Ang)   :   11.776283   11.030875    6.266317
outcell: Cell angles (23,13,12) (deg):     90.0000     90.0000     90.0000
outcell: Cell volume (Ang**3)        :    814.0116
New_DM. Step:     1
Initializing Density Matrix...

InitMesh: MESH =    80 x    80 x    48 =      307200
InitMesh: Mesh cutoff (required, used) =   120.000   127.546 Ry

* Maximum dynamic memory allocated =    23 MB

stepf: Fermi-Dirac step function

siesta: Program's energy decomposition (eV):
siesta: Ebs     =      -450.457957
siesta: Eions   =      1613.953835
siesta: Ena     =       340.728180
siesta: Ekin    =       613.333480
siesta: Enl     =       -32.517563
siesta: DEna    =         0.000002
siesta: DUscf   =         0.000000
siesta: DUext   =         0.000000
siesta: Exc     =      -317.548210
siesta: eta*DQ  =         0.000000
siesta: Emadel  =         0.000000
siesta: Emeta   =         0.000000
siesta: Emolmec =         0.000000
siesta: Ekinion =         0.000000
siesta: Eharris =     -1027.088397
siesta: Etot    =     -1009.957946
siesta: FreeEng =     -1009.957946

siesta: iscf   Eharris(eV)      E_KS(eV)   FreeEng(eV)   dDmax  Ef(eV)
siesta:    1    -1027.0884    -1009.9579    -1009.9579  1.9554 -7.7325
timer: Routine,Calls,Time,% = IterSCF        1       5.001  75.46
elaps: Routine,Calls,Wall,% = IterSCF        1       2.550  75.11
siesta:    2    -1026.4534    -1021.6424    -1021.6424  0.2841 -1.6491
siesta:    3    -1023.9297    -1021.4694    -1021.4694  0.1891 -4.0581
siesta:    4    -1023.8477    -1023.1469    -1023.1469  0.0366 -4.5113
siesta:    5    -1023.8415    -1023.6519    -1023.6519  0.0079 -4.5244
siesta:    6    -1023.8404    -1023.7696    -1023.7696  0.0025 -4.4711
siesta:    7    -1023.8401    -1023.8307    -1023.8307  0.0003 -4.4698
siesta:    8    -1023.8401    -1023.8335    -1023.8335  0.0002 -4.4729
siesta:    9    -1023.8401    -1023.8392    -1023.8392  0.0001 -4.4730

siesta: E_KS(eV) =            -1023.8397

siesta: E_KS - E_eggbox =     -1023.8397

zmatrix: Atomic forces (eV/Ang ; eV/deg )
zmatrix: (No information if symbols are used)
molecule    1 (    12 atoms)
     1    0.000000    0.000000    0.000000
     2    0.000000    0.000000    0.000000
     3    0.000000    0.000000    0.000000
     4    0.000000    0.000000    0.000000
     5    0.000000    0.000000    0.000000
     6    0.000000    0.000000    0.000000
     7    0.000000    0.000000    0.000000
     8    0.000000    0.000000    0.000000
     9    0.000000    0.000000    0.000000
    10    0.000000    0.000000    0.000000
    11    0.000000    0.000000    0.000000
    12    0.000000    0.000000    0.000000


Variable forces (eV/Ang ; eV/deg )
 xm1          5.5585005528060707     
 zm1         3.21243252502576232E-003
 ccc        -0.11922744320902656     
 ch         -0.81349822816983275     
 cch         5.90029323115792516E-005

siesta: Atomic forces (eV/Ang):
----------------------------------------
   Tot   -0.000732   -0.010410    0.003212
----------------------------------------
   Max    0.792058
   Res    0.327572    sqrt( Sum f_i^2 / 3N )
----------------------------------------
   Max    0.792058    constrained

Stress-tensor-Voigt (kbar):        8.66        8.62       -0.06        0.00        0.00        0.00
(Free)E + p*V (eV/cell)    -1026.7559
Target enthalpy (eV/cell)    -1023.8397

* Maximum dynamic memory allocated =    24 MB

siesta:                 ==============================
                            Begin CG move =      1

zmatrix: Z-matrix coordinates: (Ang ; deg )
zmatrix: (Fractional coordinates have been converted to cartesian)
molecule    1 (    12 atoms)
      2.56576579      3.68000000      6.90327537
      1.33746321     90.00000000     60.00000000
      1.33746321    100.00000000     90.00000000
      1.33746321    100.00000000      0.00000000
      1.33746321    100.00000000      0.00000000
      1.33746321    100.00000000      0.00000000
      1.10035962    120.00989754    180.00000000
      1.10035962    120.00989754      0.00000000
      1.10035962    120.00989754      0.00000000
      1.10035962    120.00989754      0.00000000
      1.10035962    120.00989754      0.00000000
      1.10035962    120.00989754      0.00000000


Z-matrix Symbol Section -------
Variables
 xm1          2.5657657925030479     
 zm1          6.9032753668172635     
 ccc          99.999999995433569     
 ch           1.1003596233982782     
 cch          120.00989754216612     
Constants
 ym1          3.6800000000000002     
 cc           1.3374632074969521     
------------ End of Z-matrix Information

                        ==============================

outcell: Unit cell vectors (Ang):
       11.776283    0.000000    0.000000
        0.000000   11.030875    0.000000
        0.000000    0.000000    6.266317

outcell: Cell vector modules (Ang)   :   11.776283   11.030875    6.266317
outcell: Cell angles (23,13,12) (deg):     90.0000     90.0000     90.0000
outcell: Cell volume (Ang**3)        :    814.0116
New_DM. Step:     2
Re-using DM from previous geometry...
Re-using DM without extrapolation (not allowed)
Density Matrix sparsity pattern changed.

siesta: iscf   Eharris(eV)      E_KS(eV)   FreeEng(eV)   dDmax  Ef(eV)
siesta:    1     -937.7893     -858.4019     -858.4019  5.1622 -6.3190
siesta:    2    -1138.4094     -777.6060     -777.6060  8.6803  1.9936
siesta:    3     -879.3618     -842.7067     -842.7071  1.1701 -5.2021
siesta:    4     -873.1549     -843.5865     -843.5865  0.8478 -4.0646
siesta:    5     -872.8051     -847.3978     -847.3997  0.7323 -3.9403
siesta:    6     -872.1136     -860.4369     -860.4381  0.9095 -3.3291
siesta:    7     -871.9074     -863.2370     -863.2602  0.3975 -3.1539
siesta:    8     -871.8459     -871.0827     -871.0923  0.1208 -2.8932
siesta:    9     -871.8375     -871.5530     -871.5808  0.0516 -2.9060
siesta:   10     -871.8356     -871.7326     -871.7633  0.0255 -2.9141
siesta:   11     -871.8356     -871.7611     -871.7933  0.0200 -2.9455
siesta:   12     -871.8352     -871.8248     -871.8561  0.0026 -2.9447
siesta:   13     -871.8355     -871.8219     -871.8535  0.0025 -2.9406
siesta:   14     -871.8353     -871.8425     -871.8738  0.0008 -2.9395
siesta:   15     -871.8353     -871.8399     -871.8713  0.0002 -2.9395
siesta:   16     -871.8353     -871.8362     -871.8676  0.0001 -2.9398

siesta: E_KS(eV) =             -871.8356

zmatrix: Atomic forces (eV/Ang ; eV/deg )
zmatrix: (No information if symbols are used)
molecule    1 (    12 atoms)
     1    0.000000    0.000000    0.000000
     2    0.000000    0.000000    0.000000
     3    0.000000    0.000000    0.000000
     4    0.000000    0.000000    0.000000
     5    0.000000    0.000000    0.000000
     6    0.000000    0.000000    0.000000
     7    0.000000    0.000000    0.000000
     8    0.000000    0.000000    0.000000
     9    0.000000    0.000000    0.000000
    10    0.000000    0.000000    0.000000
    11    0.000000    0.000000    0.000000
    12    0.000000    0.000000    0.000000


Variable forces (eV/Ang ; eV/deg )
 xm1         -435.39043551308077     
 zm1         7.03294692539864746E-003
 ccc          19.615263726925111     
 ch           32.669234185695622     
 cch         3.16131395557889897E-002

siesta: Atomic forces (eV/Ang):
----------------------------------------
   Tot   -0.009659    0.050036    0.007033
----------------------------------------
   Max  229.870120
   Res   70.667982    sqrt( Sum f_i^2 / 3N )
----------------------------------------
   Max  229.870120    constrained

Stress-tensor-Voigt (kbar):     -387.24     -829.59       -0.04      -73.27       -0.00       -0.00
(Free)E + p*V (eV/cell)     -665.7861
Target enthalpy (eV/cell)     -871.8671

* Maximum dynamic memory allocated =    24 MB

siesta:                 ==============================
                            Begin CG move =      2

zmatrix: Z-matrix coordinates: (Ang ; deg )
zmatrix: (Fractional coordinates have been converted to cartesian)
molecule    1 (    12 atoms)
      2.48675341      3.68000000      6.90322970
      1.41647559     90.00000000     60.00000000
      1.41647559    119.86813352     90.00000000
      1.41647559    119.86813352      0.00000000
      1.41647559    119.86813352      0.00000000
      1.41647559    119.86813352      0.00000000
      1.11192325    120.00006526    180.00000000
      1.11192325    120.00006526      0.00000000
      1.11192325    120.00006526      0.00000000
      1.11192325    120.00006526      0.00000000
      1.11192325    120.00006526      0.00000000
      1.11192325    120.00006526      0.00000000


Z-matrix Symbol Section -------
Variables
 xm1          2.4867534118241932     
 zm1          6.9032297030741088     
 ccc          119.86813352467223     
 ch           1.1119232512283195     
 cch          120.00006525770013     
Constants
 ym1          3.6800000000000002     
 cc           1.4164755881758069     
------------ End of Z-matrix Information

                        ==============================

outcell: Unit cell vectors (Ang):
       11.776283    0.000000    0.000000
        0.000000   11.030875    0.000000
        0.000000    0.000000    6.266317

outcell: Cell vector modules (Ang)   :   11.776283   11.030875    6.266317
outcell: Cell angles (23,13,12) (deg):     90.0000     90.0000     90.0000
outcell: Cell volume (Ang**3)        :    814.0116
New_DM. Step:     3
Re-using DM from previous geometry...
Re-using DM without extrapolation (not allowed)
Density Matrix sparsity pattern changed.

siesta: iscf   Eharris(eV)      E_KS(eV)   FreeEng(eV)   dDmax  Ef(eV)
siesta:    1    -1088.3478     -923.6230     -923.6545  2.5986 -2.6989
siesta:    2    -1603.2872     -836.4291     -836.4291  3.8492 -6.0318
siesta:    3    -1027.2880     -935.1408     -935.1408  1.4076 -6.0864
siesta:    4    -1027.6712     -954.0568     -954.0568  0.6947 -4.3962
siesta:    5    -1024.8195     -972.1633     -972.1633  0.4060 -5.3339
siesta:    6    -1024.3997     -981.7088     -981.7088  0.3404 -5.1501
siesta:    7    -1023.9608    -1003.6715    -1003.6715  0.1646 -4.7903
siesta:    8    -1023.8577    -1023.9637    -1023.9637  0.0164 -4.4763
siesta:    9    -1023.8528    -1024.0528    -1024.0528  0.0084 -4.4707
siesta:   10    -1023.8521    -1023.9606    -1023.9606  0.0038 -4.4672
siesta:   11    -1023.8521    -1023.9377    -1023.9377  0.0023 -4.4681
siesta:   12    -1023.8521    -1023.8696    -1023.8696  0.0006 -4.4705
siesta:   13    -1023.8521    -1023.8550    -1023.8550  0.0001 -4.4704
siesta:   14    -1023.8521    -1023.8544    -1023.8544  0.0001 -4.4701

siesta: E_KS(eV) =            -1023.8531

zmatrix: Atomic forces (eV/Ang ; eV/deg )
zmatrix: (No information if symbols are used)
molecule    1 (    12 atoms)
     1    0.000000    0.000000    0.000000
     2    0.000000    0.000000    0.000000
     3    0.000000    0.000000    0.000000
     4    0.000000    0.000000    0.000000
     5    0.000000    0.000000    0.000000
     6    0.000000    0.000000    0.000000
     7    0.000000    0.000000    0.000000
     8    0.000000    0.000000    0.000000
     9    0.000000    0.000000    0.000000
    10    0.000000    0.000000    0.000000
    11    0.000000    0.000000    0.000000
    12    0.000000    0.000000    0.000000


Variable forces (eV/Ang ; eV/deg )
 xm1          4.5996068510284962     
 zm1         2.22246256461566295E-003
 ccc        -1.90316291988240800E-002
 ch         -0.78949537256029945     
 cch        -8.15431549303562305E-004

siesta: Atomic forces (eV/Ang):
----------------------------------------
   Tot    0.008328   -0.006020    0.002222
----------------------------------------
   Max    0.773239
   Res    0.304375    sqrt( Sum f_i^2 / 3N )
----------------------------------------
   Max    0.773239    constrained

Stress-tensor-Voigt (kbar):        7.85        6.69       -0.05        0.93        0.00       -0.00
(Free)E + p*V (eV/cell)    -1026.3070
Target enthalpy (eV/cell)    -1023.8531

cgvc_zmatrix: Finished line minimization    1.  Mean atomic displacement =    0.0007

* Maximum dynamic memory allocated =    24 MB

siesta:                 ==============================
                            Begin CG move =      3

zmatrix: Z-matrix coordinates: (Ang ; deg )
zmatrix: (Fractional coordinates have been converted to cartesian)
molecule    1 (    12 atoms)
      2.48805679      3.68000000      6.90323031
      1.41517221     90.00000000     60.00000000
      1.41517221    119.85652095     90.00000000
      1.41517221    119.85652095      0.00000000
      1.41517221    119.85652095      0.00000000
      1.41517221    119.85652095      0.00000000
      1.11169310    119.99679627    180.00000000
      1.11169310    119.99679627      0.00000000
      1.11169310    119.99679627      0.00000000
      1.11169310    119.99679627      0.00000000
      1.11169310    119.99679627      0.00000000
      1.11169310    119.99679627      0.00000000


Z-matrix Symbol Section -------
Variables
 xm1          2.4880567930978512     
 zm1          6.9032303087550542     
 ccc          119.85652095216358     
 ch           1.1116931018172784     
 cch          119.99679627367148     
Constants
 ym1          3.6800000000000002     
 cc           1.4151722069021488     
------------ End of Z-matrix Information

                        ==============================

outcell: Unit cell vectors (Ang):
       11.776283    0.000000    0.000000
        0.000000   11.030875    0.000000
        0.000000    0.000000    6.266317

outcell: Cell vector modules (Ang)   :   11.776283   11.030875    6.266317
outcell: Cell angles (23,13,12) (deg):     90.0000     90.0000     90.0000
outcell: Cell volume (Ang**3)        :    814.0116
New_DM. Step:     4
Re-using DM from previous geometry...
Re-using DM without extrapolation (not allowed)
Density Matrix sparsity pattern changed.

siesta: iscf   Eharris(eV)      E_KS(eV)   FreeEng(eV)   dDmax  Ef(eV)
siesta:    1    -1023.8581    -1023.9044    -1023.9044  0.0019 -4.4647
siesta:    2    -1023.8581    -1023.8580    -1023.8580  0.0013 -4.4753
siesta:    3    -1023.8580    -1023.8682    -1023.8682  0.0003 -4.4689
siesta:    4    -1023.8580    -1023.8614    -1023.8614  0.0001 -4.4682
siesta:    5    -1023.8580    -1023.8593    -1023.8593  0.0001 -4.4677

siesta: E_KS(eV) =            -1023.8581

zmatrix: Atomic forces (eV/Ang ; eV/deg )
zmatrix: (No information if symbols are used)
molecule    1 (    12 atoms)
     1    0.000000    0.000000    0.000000
     2    0.000000    0.000000    0.000000
     3    0.000000    0.000000    0.000000
     4    0.000000    0.000000    0.000000
     5    0.000000    0.000000    0.000000
     6    0.000000    0.000000    0.000000
     7    0.000000    0.000000    0.000000
     8    0.000000    0.000000    0.000000
     9    0.000000    0.000000    0.000000
    10    0.000000    0.000000    0.000000
    11    0.000000    0.000000    0.000000
    12    0.000000    0.000000    0.000000


Variable forces (eV/Ang ; eV/deg )
 xm1          4.1597874063736322     
 zm1         2.41527831998025440E-003
 ccc        -1.96963857470563303E-003
 ch         -0.74081956498819490     
 cch        -8.37956519336911093E-004

siesta: Atomic forces (eV/Ang):
----------------------------------------
   Tot    0.008899   -0.001992    0.002415
----------------------------------------
   Max    0.720719
   Res    0.289478    sqrt( Sum f_i^2 / 3N )
----------------------------------------
   Max    0.720719    constrained

Stress-tensor-Voigt (kbar):        7.23        5.96       -0.05        1.02        0.00        0.00
(Free)E + p*V (eV/cell)    -1026.0828
Target enthalpy (eV/cell)    -1023.8581

* Maximum dynamic memory allocated =    24 MB

siesta:                 ==============================
                            Begin CG move =      4

zmatrix: Z-matrix coordinates: (Ang ; deg )
zmatrix: (Fractional coordinates have been converted to cartesian)
molecule    1 (    12 atoms)
      2.49014220      3.68000000      6.90323128
      1.41308680     90.00000000     60.00000000
      1.41308680    119.83794084     90.00000000
      1.41308680    119.83794084      0.00000000
      1.41308680    119.83794084      0.00000000
      1.41308680    119.83794084      0.00000000
      1.11132486    119.99156590    180.00000000
      1.11132486    119.99156590      0.00000000
      1.11132486    119.99156590      0.00000000
      1.11132486    119.99156590      0.00000000
      1.11132486    119.99156590      0.00000000
      1.11132486    119.99156590      0.00000000


Z-matrix Symbol Section -------
Variables
 xm1          2.4901422031357034     
 zm1          6.9032312778445677     
 ccc          119.83794083614973     
 ch           1.1113248627596126     
 cch          119.99156589922565     
Constants
 ym1          3.6800000000000002     
 cc           1.4130867968642964     
------------ End of Z-matrix Information

                        ==============================

outcell: Unit cell vectors (Ang):
       11.776283    0.000000    0.000000
        0.000000   11.030875    0.000000
        0.000000    0.000000    6.266317

outcell: Cell vector modules (Ang)   :   11.776283   11.030875    6.266317
outcell: Cell angles (23,13,12) (deg):     90.0000     90.0000     90.0000
outcell: Cell volume (Ang**3)        :    814.0116
New_DM. Step:     5
Re-using DM from previous geometry...
Re-using DM without extrapolation (not allowed)

siesta: iscf   Eharris(eV)      E_KS(eV)   FreeEng(eV)   dDmax  Ef(eV)
siesta:    1    -1023.8661    -1023.9390    -1023.9390  0.0030 -4.4597
siesta:    2    -1023.8662    -1023.8658    -1023.8658  0.0020 -4.4764
siesta:    3    -1023.8660    -1023.8816    -1023.8816  0.0004 -4.4664
siesta:    4    -1023.8660    -1023.8711    -1023.8711  0.0002 -4.4653
siesta:    5    -1023.8660    -1023.8679    -1023.8679  0.0001 -4.4644

siesta: E_KS(eV) =            -1023.8661

zmatrix: Atomic forces (eV/Ang ; eV/deg )
zmatrix: (No information if symbols are used)
molecule    1 (    12 atoms)
     1    0.000000    0.000000    0.000000
     2    0.000000    0.000000    0.000000
     3    0.000000    0.000000    0.000000
     4    0.000000    0.000000    0.000000
     5    0.000000    0.000000    0.000000
     6    0.000000    0.000000    0.000000
     7    0.000000    0.000000    0.000000
     8    0.000000    0.000000    0.000000
     9    0.000000    0.000000    0.000000
    10    0.000000    0.000000    0.000000
    11    0.000000    0.000000    0.000000
    12    0.000000    0.000000    0.000000


Variable forces (eV/Ang ; eV/deg )
 xm1          3.4535088795220115     
 zm1         2.15037834918121182E-003
 ccc         2.56494614704980382E-002
 ch         -0.66065455791678263     
 cch        -8.91915705868683885E-004

siesta: Atomic forces (eV/Ang):
----------------------------------------
   Tot    0.006309   -0.001304    0.002150
----------------------------------------
   Max    0.689601
   Res    0.271870    sqrt( Sum f_i^2 / 3N )
----------------------------------------
   Max    0.689601    constrained

Stress-tensor-Voigt (kbar):        6.24        4.78       -0.05        1.16        0.00       -0.00
(Free)E + p*V (eV/cell)    -1025.7241
Target enthalpy (eV/cell)    -1023.8661

* Maximum dynamic memory allocated =    24 MB

outcoor: Final (unrelaxed) atomic coordinates (Ang):        
    2.49347886    3.68000000    6.90323283   2       1  C
    3.19835393    4.90087943    6.90323283   2       2  C
    4.60809617    4.89616056    6.90323283   2       3  C
    5.30478216    3.67058963    6.90323283   2       4  C
    4.58768281    2.45684996    6.90323283   2       5  C
    3.17805903    2.47572494    6.90323283   2       6  C
    1.38274323    3.68032574    6.90323283   1       7  H
    2.64270402    5.86264184    6.90323283   1       8  H
    5.16639919    5.85638526    6.90323283   1       9  H
    6.41549508    3.66347944    6.90323283   1      10  H
    5.13364689    1.48955633    6.90323283   1      11  H
    2.61014178    1.52115501    6.90323283   1      12  H

zmatrix: Z-matrix coordinates: (Ang ; deg )
zmatrix: (Fractional coordinates have been converted to cartesian)
molecule    1 (    12 atoms)
      2.49347886      3.68000000      6.90323283
      1.40975014     90.00000000     60.00000000
      1.40975014    119.80821265     90.00000000
      1.40975014    119.80821265      0.00000000
      1.40975014    119.80821265      0.00000000
      1.40975014    119.80821265      0.00000000
      1.11073568    119.98319730    180.00000000
      1.11073568    119.98319730      0.00000000
      1.11073568    119.98319730      0.00000000
      1.11073568    119.98319730      0.00000000
      1.11073568    119.98319730      0.00000000
      1.11073568    119.98319730      0.00000000


Z-matrix Symbol Section -------
Variables
 xm1          2.4934788591962675     
 zm1          6.9032328283877904     
 ccc          119.80821265052758     
 ch           1.1107356802673476     
 cch          119.98319730011231     
Constants
 ym1          3.6800000000000002     
 cc           1.4097501408037327     
------------ End of Z-matrix Information


siesta: Program's energy decomposition (eV):
siesta: Ebs     =      -358.404048
siesta: Eions   =      1613.953835
siesta: Ena     =       340.410976
siesta: Ekin    =       732.370689
siesta: Enl     =      -119.339406
siesta: DEna    =       -33.919134
siesta: DUscf   =         3.791751
siesta: DUext   =         0.000000
siesta: Exc     =      -333.227124
siesta: eta*DQ  =         0.000000
siesta: Emadel  =         0.000000
siesta: Emeta   =         0.000000
siesta: Emolmec =         0.000000
siesta: Ekinion =         0.000000
siesta: Eharris =     -1023.865968
siesta: Etot    =     -1023.866083
siesta: FreeEng =     -1023.866083

siesta: Final energy (eV):
siesta:  Band Struct. =    -358.404048
siesta:       Kinetic =     732.370689
siesta:       Hartree =    1842.458768
siesta:    Ext. field =       0.000000
siesta:   Exch.-corr. =    -333.227124
siesta:  Ion-electron =   -4340.163899
siesta:       Ion-ion =    1074.695483
siesta:       Ekinion =       0.000000
siesta:         Total =   -1023.866083

siesta: Atomic forces (eV/Ang):
siesta:      1    0.156151    0.689601    0.000185
siesta:      2    0.382804   -0.483882    0.000474
siesta:      3   -0.397988   -0.506623    0.000305
siesta:      4   -0.637727   -0.049492    0.000211
siesta:      5   -0.205855    0.578241    0.000261
siesta:      6    0.673959   -0.222043   -0.000174
siesta:      7    0.105975    0.034090   -0.000391
siesta:      8    0.064111   -0.095461   -0.000256
siesta:      9   -0.049024   -0.101204    0.000138
siesta:     10   -0.114466   -0.008825   -0.000305
siesta:     11   -0.056505    0.097198    0.000938
siesta:     12    0.084874    0.067096    0.000763
siesta: ----------------------------------------
siesta:    Tot    0.006309   -0.001304    0.002150

siesta: Stress tensor (static) (eV/Ang**3):
siesta:     0.003894    0.000723   -0.000000
siesta:     0.000722    0.002986    0.000000
siesta:    -0.000000    0.000000   -0.000033

siesta: Cell volume =        814.011582 Ang**3

siesta: Pressure (static):
siesta:                Solid            Molecule  Units
siesta:          -0.00002486          0.00000018  Ry/Bohr**3
siesta:          -0.00228249          0.00001652  eV/Ang**3
siesta:          -3.65699478          0.02646236  kBar
(Free)E+ p_basis*V_orbitals  =       -1019.862890
(Free)Eharris+ p_basis*V_orbitals  =       -1019.860956

siesta: Electric dipole (a.u.)  =   -0.001082   -0.000262   -0.000068
siesta: Electric dipole (Debye) =   -0.002751   -0.000666   -0.000172

* Maximum dynamic memory allocated : Node    0 =    24 MB
* Maximum dynamic memory allocated : Node    1 =    18 MB

* Maximum memory occured during redistribXZ                   

timer: CPU execution times:
timer:  Routine       Calls   Time/call    Tot.time        %
timer:  siesta            1      98.916      98.916   100.00
timer:  Setup             1       0.740       0.740     0.75
timer:  bands             1       0.001       0.001     0.00
timer:  writewave         1       0.002       0.002     0.00
timer:  KSV_init          1       0.000       0.000     0.00
timer:  IterMD            5      19.631      98.154    99.23
timer:  hsparse           5       0.014       0.068     0.07
timer:  overlap           5       0.182       0.909     0.92
timer:  IterSCF          49       1.639      80.298    81.18
timer:  kinefsm          10       0.096       0.959     0.97
timer:  nlefsm           10       0.260       2.605     2.63
timer:  DHSCF            54       1.654      89.339    90.32
timer:  DHSCF1            1       0.095       0.095     0.10
timer:  DHSCF2            5       1.497       7.483     7.57
timer:  REORD           442       0.001       0.512     0.52
timer:  POISON           59       0.190      11.197    11.32
timer:  DHSCF3           54       1.384      74.712    75.53
timer:  rhoofd           54       0.516      27.845    28.15
timer:  cellXC           54       0.102       5.534     5.59
timer:  vmat             54       0.339      18.285    18.48
timer:  MolMec           10       0.000       0.000     0.00
timer:  diagon           49       0.029       1.399     1.41
timer:  r-eigvec         49       0.028       1.353     1.37
timer:  r-buildHS        49       0.000       0.010     0.01
timer:  rdiag            49       0.027       1.342     1.36
timer:  rdiag1           49       0.001       0.061     0.06
timer:  rdiag2           49       0.003       0.142     0.14
timer:  rdiag3           49       0.019       0.920     0.93
timer:  rdiag4           49       0.003       0.150     0.15
timer:  r-buildD         49       0.001       0.035     0.04
timer:  DHSCF4            5       1.354       6.771     6.85
timer:  dfscf             5       1.192       5.959     6.02
timer:  overfsm           5       0.015       0.075     0.08
timer:  optical           1       0.012       0.012     0.01
  

elaps: ELAPSED times:
elaps:  Routine       Calls   Time/call    Tot.time        %
elaps:  siesta            1      51.399      51.399   100.00
elaps:  Setup             1       0.391       0.391     0.76
elaps:  bands             1       0.000       0.000     0.00
elaps:  writewave         1       0.002       0.002     0.00
elaps:  KSV_init          1       0.000       0.000     0.00
elaps:  IterMD            5      10.199      50.995    99.21
elaps:  hsparse           5       0.008       0.040     0.08
elaps:  overlap           5       0.094       0.468     0.91
elaps:  IterSCF          49       0.854      41.828    81.38
elaps:  kinefsm          10       0.050       0.504     0.98
elaps:  nlefsm           10       0.141       1.406     2.74
elaps:  DHSCF            54       0.880      47.520    92.45
elaps:  DHSCF1            1       0.049       0.049     0.10
elaps:  DHSCF2            5       0.791       3.955     7.69
elaps:  REORD           442       0.001       0.255     0.50
elaps:  POISON           59       0.102       5.991    11.66
elaps:  DHSCF3           54       0.720      38.862    75.61
elaps:  rhoofd           54       0.372      20.090    39.09
elaps:  cellXC           54       0.053       2.849     5.54
elaps:  vmat             54       0.176       9.507    18.50
elaps:  MolMec           10       0.000       0.001     0.00
elaps:  diagon           49       0.014       0.710     1.38
elaps:  r-eigvec         49       0.014       0.691     1.34
elaps:  r-buildHS        49       0.000       0.004     0.01
elaps:  rdiag            49       0.014       0.686     1.33
elaps:  rdiag1           49       0.001       0.029     0.06
elaps:  rdiag2           49       0.002       0.079     0.15
elaps:  rdiag3           49       0.009       0.460     0.89
elaps:  rdiag4           49       0.002       0.079     0.15
elaps:  r-buildD         49       0.000       0.013     0.03
elaps:  DHSCF4            5       0.901       4.506     8.77
elaps:  dfscf             5       0.791       3.954     7.69
elaps:  overfsm           5       0.009       0.043     0.08
elaps:  optical           1       0.000       0.000     0.00
  
>> End of run:  30-JUN-2010  11:34:45
