Siesta Version:                                        siesta-trunk-300
Architecture  : nano-intel-mpi
Compiler flags: /opt/intel/impi/3.1/bin64/mpiifort -w  -O3 -mp
PARALLEL version
NetCDF support

* Running on    4 nodes in parallel
>> Start of run:  29-SEP-2009  17:11:04

                           ***********************       
                           *  WELCOME TO SIESTA  *       
                           ***********************       

reinit: Reading from standard input
************************** Dump of input data file ****************************
Systemlabel  born_spin
Systemname   si2 Force constants + Born charges -- spin-polarized
LongOutput T
SpinPolarized T
%include FC.fdf
BornCharge T
%block PolarizationGrids
7  3  3
3  7  3
3  3  7
%endblock PolarizationGrids
NumberOfSpecies 1
%block chemicalspecieslabel
1 14 Si
%endblock chemicalspecieslabel
PAO.BasisSize SZ
MeshCutoff 130.0 Ry
# In a real calculation, a high degree of self-consistency should be achieved
#DM.MixingWeight  0.3
#DM.NumberPulay    3
#DM.Tolerance     1.0d-5
# Here we use Harris since we are just interested in testing the displacement
# logic
HarrisFunctional T
************************** End of input data file *****************************

reinit: -----------------------------------------------------------------------
reinit: System Name: si2 Force constants + Born charges -- spin-polarized
reinit: -----------------------------------------------------------------------
reinit: System Label: born_spin                                                   
reinit: -----------------------------------------------------------------------

initatom: Reading input for the pseudopotentials and atomic orbitals ----------
 Species number:            1  Label: Si Atomic number:          14
Ground state valence configuration:   3s02  3p02
Reading pseudopotential information in formatted form from Si.psf

Valence configuration for pseudopotential generation:
3s( 2.00) rc: 1.89
3p( 2.00) rc: 1.89
3d( 0.00) rc: 1.89
4f( 0.00) rc: 1.89
For Si, standard SIESTA heuristics set lmxkb to 2
 (one more than the basis l, including polarization orbitals).
Use PS.lmax or PS.KBprojectors blocks to override.

<basis_specs>
===============================================================================
Si                   Z=  14    Mass=  28.090        Charge= 0.17977+309
Lmxo=1 Lmxkb=2     BasisType=split      Semic=F
L=0  Nsemic=0  Cnfigmx=3
          n=1  nzeta=1  polorb=0
            splnorm:   0.15000    
               vcte:    0.0000    
               rinn:    0.0000    
                rcs:    0.0000    
            lambdas:    1.0000    
L=1  Nsemic=0  Cnfigmx=3
          n=1  nzeta=1  polorb=0
            splnorm:   0.15000    
               vcte:    0.0000    
               rinn:    0.0000    
                rcs:    0.0000    
            lambdas:    1.0000    
-------------------------------------------------------------------------------
L=0  Nkbl=1  erefs: 0.17977+309
L=1  Nkbl=1  erefs: 0.17977+309
L=2  Nkbl=1  erefs: 0.17977+309
===============================================================================
</basis_specs>

atom: Called for Si                    (Z =  14)

read_vps: Pseudopotential generation method:
read_vps: ATM3      Troullier-Martins                       
Total valence charge:    4.00000

xc_check: Exchange-correlation functional:
xc_check: Ceperley-Alder
V l=0 = -2*Zval/r beyond r=  2.5494
V l=1 = -2*Zval/r beyond r=  2.5494
V l=2 = -2*Zval/r beyond r=  2.5494
All V_l potentials equal beyond r=  1.8652
This should be close to max(r_c) in ps generation
All pots = -2*Zval/r beyond r=  2.5494
Using large-core scheme for Vlocal

atom: Estimated core radius    2.54944

atom: Including non-local core corrections could be a good idea
atom: Maximum radius for 4*pi*r*r*local-pseudopot. charge    2.85303
atom: Maximum radius for r*vlocal+2*Zval:    2.58151
GHOST: No ghost state for L =  0
GHOST: No ghost state for L =  1
GHOST: No ghost state for L =  2

KBgen: Kleinman-Bylander projectors: 
   l= 0   rc=  1.936440   el= -0.796617   Ekb=  4.661340   kbcos=  0.299756
   l= 1   rc=  1.936440   el= -0.307040   Ekb=  1.494238   kbcos=  0.301471
   l= 2   rc=  1.936440   el=  0.002313   Ekb= -2.808672   kbcos= -0.054903

KBgen: Total number of  Kleinman-Bylander projectors:    9
atom: -------------------------------------------------------------------------

atom: SANKEY-TYPE ORBITALS:

SPLIT: Orbitals with angular momentum L= 0

SPLIT: Basis orbitals for state 3s

SPLIT: PAO cut-off radius determined from an
SPLIT: energy shift=  0.020000 Ry

   izeta = 1
                 lambda =    1.000000
                     rc =    5.007352
                 energy =   -0.777669
                kinetic =    0.573829
    potential(screened) =   -1.351499
       potential(ionic) =   -3.827441

SPLIT: Orbitals with angular momentum L= 1

SPLIT: Basis orbitals for state 3p

SPLIT: PAO cut-off radius determined from an
SPLIT: energy shift=  0.020000 Ry

   izeta = 1
                 lambda =    1.000000
                     rc =    6.270866
                 energy =   -0.288955
                kinetic =    0.877930
    potential(screened) =   -1.166885
       potential(ionic) =   -3.426998
atom: Total number of Sankey-type orbitals:  4

atm_pop: Valence configuration (for local Pseudopot. screening):
 3s( 2.00)                                                            
 3p( 2.00)                                                            
Vna: chval, zval:    4.00000   4.00000

Vna:  Cut-off radius for the neutral-atom potential:   6.270866

atom: _________________________________________________________________________

prinput: Basis input ----------------------------------------------------------

PAO.BasisType split     

%block ChemicalSpeciesLabel
    1   14 Si                      # Species index, atomic number, species label
%endblock ChemicalSpeciesLabel

%block PAO.Basis                 # Define Basis set
Si                    2                    # Species label, number of l-shells
 n=3   0   1                         # n, l, Nzeta 
   5.007   
   1.000   
 n=3   1   1                         # n, l, Nzeta 
   6.271   
   1.000   
%endblock PAO.Basis

prinput: ----------------------------------------------------------------------

Dumping basis to NetCDF file Si.ion.nc
coor:   Atomic-coordinates input format  =     Fractional

siesta: Atomic coordinates (Bohr) and species
siesta:      0.00000   0.00000   0.00000  1        1
siesta:      2.56530   2.56530   2.56530  1        2

siesta: System type = bulk      

initatomlists: Number of atoms, orbitals, and projectors:      2     8    18

siesta: ******************** Simulation parameters ****************************
siesta:
siesta: The following are some of the parameters of the simulation.
siesta: A complete list of the parameters used, including default values,
siesta: can be found in file out.fdf
siesta:
redata: Non-Collinear-spin run           =     F
redata: SpinPolarized (Up/Down) run      =     T
redata: Number of spin components        =     2
redata: Long output                      =     T
redata: Number of Atomic Species         =        1
redata: Charge density info will appear in .RHO file
redata: Write Mulliken Pop.              =     Atomic and Orbital charges
redata: Mesh Cutoff                      =   130.0000  Ry
redata: Net charge of the system         =     0.0000 |e|
redata: Max. number of SCF Iter          =       50
redata: Mixing is linear
redata: Mix DM in first SCF step ?       =     F
redata: Write Pulay info on disk?        =     F
redata: New DM Mixing Weight             =     0.2500
redata: New DM Occupancy tolerance       = 0.000000000001
redata: No kicks to SCF
redata: DM Mixing Weight for Kicks       =     0.5000
redata: DM Tolerance for SCF             =     0.000100
redata: Require Energy convergence for SCF =     F
redata: DM Energy tolerance for SCF      =     0.000100 eV
redata: Require Harris convergence for SCF =     F
redata: DM Harris energy tolerance for SCF =     0.000100 eV
redata: Antiferro initial spin density   =     F
redata: Using Saved Data (generic)   =     F
redata: Use continuation files for DM    =     F
redata: Neglect nonoverlap interactions  =     F
redata: Method of Calculation            =     Diagonalization
redata: Divide and Conquer               =     T
redata: Electronic Temperature           =     0.0019  Ry
redata: Fix the spin of the system       =     F
redata: Dynamics option                  =     Force Constants Matrix Calculation
redata: Atomic displ for force constants  =     0.0400  Bohr
redata: First atom to move               =        1
redata: Last atom to move                =        2
redata: ***********************************************************************
Total number of electrons:     8.000000
Total ionic charge:     8.000000

* ProcessorY, Blocksize:    2   2

 Kpoints in:            1 . Kpoints trimmed:            1

siesta: k-point coordinates (Bohr**-1) and weights:
siesta:    1    0.000000    0.000000    0.000000       1.000000

siesta: k-grid: Number of k-points =     1
siesta: k-grid: Cutoff (effective) =     1.920 Ang
siesta: k-grid: Supercell and displacements
siesta: k-grid:    1   0   0      0.000
siesta: k-grid:    0   1   0      0.000
siesta: k-grid:    0   0   1      0.000
Naive supercell factors:     5    5    5

superc: Internal auxiliary supercell:     5 x     5 x     5  =     125
superc: Number of atoms, orbitals, and projectors:    250  1000  2250

* Maximum dynamic memory allocated =     1 MB

siesta:                 ==============================
                            Begin FC step =      0
                            Undisplaced coordinates
                        ==============================

outcoor: Atomic coordinates (fractional):                   
    0.00000000    0.00000000    0.00000000   1       1  Si
    0.25000000    0.25000000    0.25000000   1       2  Si

superc: Internal auxiliary supercell:     5 x     5 x     5  =     125
superc: Number of atoms, orbitals, and projectors:    250  1000  2250

outcell: Unit cell vectors (Ang):
        0.000000    2.715000    2.715000
        2.715000    0.000000    2.715000
        2.715000    2.715000    0.000000

outcell: Cell vector modules (Ang)   :    3.839590    3.839590    3.839590
outcell: Cell angles (23,13,12) (deg):     60.0000     60.0000     60.0000
outcell: Cell volume (Ang**3)        :     40.0258
New_DM. Step:     1
Initializing Density Matrix...

InitMesh: MESH =    24 x    24 x    24 =       13824
InitMesh: Mesh cutoff (required, used) =   130.000   161.974 Ry

* Maximum dynamic memory allocated =     5 MB

stepf: Fermi-Dirac step function

siesta: Program's energy decomposition (eV):
siesta: Eions   =       380.802124
siesta: Ena     =       115.502327
siesta: Ekin    =        78.997046
siesta: Enl     =        35.834927
siesta: DEna    =        -0.000002
siesta: DUscf   =         0.000000
siesta: DUext   =         0.000000
siesta: Exc     =       -66.512853
siesta: eta*DQ  =         0.000000
siesta: Emadel  =         0.000000
siesta: Emeta   =         0.000000
siesta: Emolmec =         0.000000
siesta: Ekinion =         0.000000
siesta: Eharris =      -193.422394
siesta: Etot    =      -216.980678
siesta: FreeEng =      -216.980678

siesta: Eharris(eV) =    -193.422394


siesta: Eharris(eV) =    -193.422394

timer: Routine,Calls,Time,% = IterSCF        1       1.399  73.79
elaps: Routine,Calls,Wall,% = IterSCF        1       0.350  73.44

siesta: E_KS - E_eggbox =      -194.6964

siesta: Atomic forces (eV/Ang):
     1    0.000000    0.000000    0.000000
     2   -0.000001    0.000000    0.000000
----------------------------------------
   Tot   -0.000001    0.000000    0.000000
----------------------------------------
   Max    0.000001
   Res    0.000000    sqrt( Sum f_i^2 / 3N )
----------------------------------------
   Max    0.000001    constrained

Stress-tensor-Voigt (kbar):     -422.60     -422.60     -422.60        0.00        0.00        0.00
(Free)E + p*V (eV/cell)     -184.1390
Target enthalpy (eV/cell)     -194.6964
 
mulliken: Atomic and Orbital Populations:

mulliken: Spin UP 

Species: Si                  
Atom  Qatom  Qorb
               3s      3py     3pz     3px     
   1  2.000   0.500   0.500   0.500   0.500
   2  2.000   0.500   0.500   0.500   0.500

mulliken: Qtot =        4.000

mulliken: Spin DOWN 

Species: Si                  
Atom  Qatom  Qorb
               3s      3py     3pz     3px     
   1  2.000   0.500   0.500   0.500   0.500
   2  2.000   0.500   0.500   0.500   0.500

mulliken: Qtot =        4.000

siesta: Calculating polarization. 

siesta: Macroscopic polarization for spin Up:

siesta: Macroscopic polarization per unit cell (a.u.):
siesta: Along the lattice vectors     10.883664   10.883664   10.883664
siesta: Along cartesian directions    15.391825   15.391825   15.391825

siesta: Macroscopic polarization per unit cell (Debye):
siesta: Along the lattice vectors     27.663534   27.663534   27.663534
siesta: Along cartesian directions    39.122145   39.122145   39.122145

siesta: Macroscopic polarization for spin Down:

siesta: Macroscopic polarization per unit cell (a.u.):
siesta: Along the lattice vectors     10.883664   10.883664   10.883664
siesta: Along cartesian directions    15.391825   15.391825   15.391825

siesta: Macroscopic polarization per unit cell (Debye):
siesta: Along the lattice vectors     27.663534   27.663534   27.663534
siesta: Along cartesian directions    39.122145   39.122145   39.122145

siesta: Sum along cartesian directions (a.u.): 
siesta:    30.783651   30.783651   30.783651

siesta: Sum along cartesian directions (Debye): 
siesta:    78.244289   78.244289   78.244289

obc: Macroscopic polarization for spin Up:

obc: Macroscopic polarization per unit cell along the lattice vectors (Bohr): 
obc:   10.883664   10.883664   10.883664

obc: Macroscopic polarization for spin Down:

obc: Macroscopic polarization per unit cell along the lattice vectors (Bohr): 
obc:   10.883664   10.883664   10.883664

* Maximum dynamic memory allocated =     5 MB

siesta:                 ==============================
                            Begin FC step =      1
                            displace atom        1
                            in direction         1
                            by        -0.0400 Bohr
                        ==============================

outcoor: Atomic coordinates (fractional):                   
    0.00389817   -0.00389817   -0.00389817   1       1  Si
    0.25000000    0.25000000    0.25000000   1       2  Si

superc: Internal auxiliary supercell:     5 x     5 x     5  =     125
superc: Number of atoms, orbitals, and projectors:    250  1000  2250

outcell: Unit cell vectors (Ang):
        0.000000    2.715000    2.715000
        2.715000    0.000000    2.715000
        2.715000    2.715000    0.000000

outcell: Cell vector modules (Ang)   :    3.839590    3.839590    3.839590
outcell: Cell angles (23,13,12) (deg):     60.0000     60.0000     60.0000
outcell: Cell volume (Ang**3)        :     40.0258
New_DM. Step:     2
Initializing Density Matrix...

siesta: Eharris(eV) =    -193.415804


siesta: Eharris(eV) =    -193.415804


siesta: Atomic forces (eV/Ang):
     1    0.831804    0.000000    0.000000
     2   -0.841811    0.000000    0.000000
----------------------------------------
   Tot   -0.010007    0.000000    0.000000
----------------------------------------
   Max    0.841811
   Res    0.483140    sqrt( Sum f_i^2 / 3N )
----------------------------------------
   Max    0.841811    constrained

Stress-tensor-Voigt (kbar):     -425.66     -425.79     -425.79        0.00       21.92        0.00
(Free)E + p*V (eV/cell)     -184.0535
Target enthalpy (eV/cell)     -194.6894
 
mulliken: Atomic and Orbital Populations:

mulliken: Spin UP 

Species: Si                  
Atom  Qatom  Qorb
               3s      3py     3pz     3px     
   1  2.000   0.500   0.500   0.500   0.500
   2  2.000   0.500   0.500   0.500   0.500

mulliken: Qtot =        4.000

mulliken: Spin DOWN 

Species: Si                  
Atom  Qatom  Qorb
               3s      3py     3pz     3px     
   1  2.000   0.500   0.500   0.500   0.500
   2  2.000   0.500   0.500   0.500   0.500

mulliken: Qtot =        4.000

* Maximum dynamic memory allocated =     5 MB

siesta:                 ==============================
                            Begin FC step =      2
                            displace atom        1
                            in direction         1
                            by         0.0400 Bohr
                        ==============================

outcoor: Atomic coordinates (fractional):                   
   -0.00389817    0.00389817    0.00389817   1       1  Si
    0.25000000    0.25000000    0.25000000   1       2  Si

superc: Internal auxiliary supercell:     5 x     5 x     5  =     125
superc: Number of atoms, orbitals, and projectors:    250  1000  2250

outcell: Unit cell vectors (Ang):
        0.000000    2.715000    2.715000
        2.715000    0.000000    2.715000
        2.715000    2.715000    0.000000

outcell: Cell vector modules (Ang)   :    3.839590    3.839590    3.839590
outcell: Cell angles (23,13,12) (deg):     60.0000     60.0000     60.0000
outcell: Cell volume (Ang**3)        :     40.0258
New_DM. Step:     3
Initializing Density Matrix...

siesta: Eharris(eV) =    -193.415804


siesta: Eharris(eV) =    -193.415804


siesta: Atomic forces (eV/Ang):
     1   -0.831805    0.000000    0.000000
     2    0.841811    0.000000    0.000000
----------------------------------------
   Tot    0.010006    0.000000   -0.000001
----------------------------------------
   Max    0.841811
   Res    0.483140    sqrt( Sum f_i^2 / 3N )
----------------------------------------
   Max    0.841811    constrained

Stress-tensor-Voigt (kbar):     -425.66     -425.79     -425.79        0.00      -21.92        0.00
(Free)E + p*V (eV/cell)     -184.0535
Target enthalpy (eV/cell)     -194.6894
 
mulliken: Atomic and Orbital Populations:

mulliken: Spin UP 

Species: Si                  
Atom  Qatom  Qorb
               3s      3py     3pz     3px     
   1  2.000   0.500   0.500   0.500   0.500
   2  2.000   0.500   0.500   0.500   0.500

mulliken: Qtot =        4.000

mulliken: Spin DOWN 

Species: Si                  
Atom  Qatom  Qorb
               3s      3py     3pz     3px     
   1  2.000   0.500   0.500   0.500   0.500
   2  2.000   0.500   0.500   0.500   0.500

mulliken: Qtot =        4.000

siesta: Calculating polarization. 

siesta: Macroscopic polarization for spin Up:

siesta: Macroscopic polarization per unit cell (a.u.):
siesta: Along the lattice vectors      3.627908   10.883641   10.883641
siesta: Along cartesian directions    15.391793   10.261215   10.261215

siesta: Macroscopic polarization per unit cell (Debye):
siesta: Along the lattice vectors      9.221228   27.663476   27.663476
siesta: Along cartesian directions    39.122063   26.081424   26.081424

siesta: Macroscopic polarization for spin Down:

siesta: Macroscopic polarization per unit cell (a.u.):
siesta: Along the lattice vectors      3.627908   10.883641   10.883641
siesta: Along cartesian directions    15.391793   10.261214   10.261214

siesta: Macroscopic polarization per unit cell (Debye):
siesta: Along the lattice vectors      9.221227   27.663475   27.663475
siesta: Along cartesian directions    39.122062   26.081424   26.081424

siesta: Sum along cartesian directions (a.u.): 
siesta:    30.783586   20.522429   20.522429

siesta: Sum along cartesian directions (Debye): 
siesta:    78.244125   52.162848   52.162848

obc: Macroscopic polarization for spin Up:

obc: Macroscopic polarization per unit cell along the lattice vectors (Bohr): 
obc:    3.627908   10.883641   10.883641

obc: Macroscopic polarization for spin Down:

obc: Macroscopic polarization per unit cell along the lattice vectors (Bohr): 
obc:    3.627908   10.883641   10.883641

* Maximum dynamic memory allocated =     5 MB

siesta:                 ==============================
                            Begin FC step =      3
                            displace atom        1
                            in direction         2
                            by        -0.0400 Bohr
                        ==============================

outcoor: Atomic coordinates (fractional):                   
   -0.00389817    0.00389817   -0.00389817   1       1  Si
    0.25000000    0.25000000    0.25000000   1       2  Si

superc: Internal auxiliary supercell:     5 x     5 x     5  =     125
superc: Number of atoms, orbitals, and projectors:    250  1000  2250

outcell: Unit cell vectors (Ang):
        0.000000    2.715000    2.715000
        2.715000    0.000000    2.715000
        2.715000    2.715000    0.000000

outcell: Cell vector modules (Ang)   :    3.839590    3.839590    3.839590
outcell: Cell angles (23,13,12) (deg):     60.0000     60.0000     60.0000
outcell: Cell volume (Ang**3)        :     40.0258
New_DM. Step:     4
Initializing Density Matrix...

siesta: Eharris(eV) =    -193.415804


siesta: Eharris(eV) =    -193.415804


siesta: Atomic forces (eV/Ang):
     1    0.000000    0.831804    0.000000
     2    0.000000   -0.841811   -0.000001
----------------------------------------
   Tot    0.000000   -0.010007   -0.000001
----------------------------------------
   Max    0.841811
   Res    0.483140    sqrt( Sum f_i^2 / 3N )
----------------------------------------
   Max    0.841811    constrained

Stress-tensor-Voigt (kbar):     -425.79     -425.66     -425.79        0.00        0.00       21.92
(Free)E + p*V (eV/cell)     -184.0535
Target enthalpy (eV/cell)     -194.6894
 
mulliken: Atomic and Orbital Populations:

mulliken: Spin UP 

Species: Si                  
Atom  Qatom  Qorb
               3s      3py     3pz     3px     
   1  2.000   0.500   0.500   0.500   0.500
   2  2.000   0.500   0.500   0.500   0.500

mulliken: Qtot =        4.000

mulliken: Spin DOWN 

Species: Si                  
Atom  Qatom  Qorb
               3s      3py     3pz     3px     
   1  2.000   0.500   0.500   0.500   0.500
   2  2.000   0.500   0.500   0.500   0.500

mulliken: Qtot =        4.000

* Maximum dynamic memory allocated =     5 MB

siesta:                 ==============================
                            Begin FC step =      4
                            displace atom        1
                            in direction         2
                            by         0.0400 Bohr
                        ==============================

outcoor: Atomic coordinates (fractional):                   
    0.00389817   -0.00389817    0.00389817   1       1  Si
    0.25000000    0.25000000    0.25000000   1       2  Si

superc: Internal auxiliary supercell:     5 x     5 x     5  =     125
superc: Number of atoms, orbitals, and projectors:    250  1000  2250

outcell: Unit cell vectors (Ang):
        0.000000    2.715000    2.715000
        2.715000    0.000000    2.715000
        2.715000    2.715000    0.000000

outcell: Cell vector modules (Ang)   :    3.839590    3.839590    3.839590
outcell: Cell angles (23,13,12) (deg):     60.0000     60.0000     60.0000
outcell: Cell volume (Ang**3)        :     40.0258
New_DM. Step:     5
Initializing Density Matrix...

siesta: Eharris(eV) =    -193.415804


siesta: Eharris(eV) =    -193.415804


siesta: Atomic forces (eV/Ang):
     1    0.000000   -0.831805   -0.000001
     2    0.000000    0.841811    0.000000
----------------------------------------
   Tot    0.000000    0.010006    0.000000
----------------------------------------
   Max    0.841811
   Res    0.483140    sqrt( Sum f_i^2 / 3N )
----------------------------------------
   Max    0.841811    constrained

Stress-tensor-Voigt (kbar):     -425.79     -425.66     -425.79        0.00        0.00      -21.92
(Free)E + p*V (eV/cell)     -184.0535
Target enthalpy (eV/cell)     -194.6894
 
mulliken: Atomic and Orbital Populations:

mulliken: Spin UP 

Species: Si                  
Atom  Qatom  Qorb
               3s      3py     3pz     3px     
   1  2.000   0.500   0.500   0.500   0.500
   2  2.000   0.500   0.500   0.500   0.500

mulliken: Qtot =        4.000

mulliken: Spin DOWN 

Species: Si                  
Atom  Qatom  Qorb
               3s      3py     3pz     3px     
   1  2.000   0.500   0.500   0.500   0.500
   2  2.000   0.500   0.500   0.500   0.500

mulliken: Qtot =        4.000

siesta: Calculating polarization. 

siesta: Macroscopic polarization for spin Up:

siesta: Macroscopic polarization per unit cell (a.u.):
siesta: Along the lattice vectors     10.883641    3.627908   10.883641
siesta: Along cartesian directions    10.261215   15.391793   10.261215

siesta: Macroscopic polarization per unit cell (Debye):
siesta: Along the lattice vectors     27.663476    9.221228   27.663476
siesta: Along cartesian directions    26.081424   39.122063   26.081424

siesta: Macroscopic polarization for spin Down:

siesta: Macroscopic polarization per unit cell (a.u.):
siesta: Along the lattice vectors     10.883641    3.627908   10.883641
siesta: Along cartesian directions    10.261214   15.391793   10.261214

siesta: Macroscopic polarization per unit cell (Debye):
siesta: Along the lattice vectors     27.663476    9.221227   27.663475
siesta: Along cartesian directions    26.081424   39.122062   26.081424

siesta: Sum along cartesian directions (a.u.): 
siesta:    20.522429   30.783586   20.522429

siesta: Sum along cartesian directions (Debye): 
siesta:    52.162848   78.244125   52.162848

obc: Macroscopic polarization for spin Up:

obc: Macroscopic polarization per unit cell along the lattice vectors (Bohr): 
obc:   10.883641    3.627908   10.883641

obc: Macroscopic polarization for spin Down:

obc: Macroscopic polarization per unit cell along the lattice vectors (Bohr): 
obc:   10.883641    3.627908   10.883641

* Maximum dynamic memory allocated =     5 MB

siesta:                 ==============================
                            Begin FC step =      5
                            displace atom        1
                            in direction         3
                            by        -0.0400 Bohr
                        ==============================

outcoor: Atomic coordinates (fractional):                   
   -0.00389817   -0.00389817    0.00389817   1       1  Si
    0.25000000    0.25000000    0.25000000   1       2  Si

superc: Internal auxiliary supercell:     5 x     5 x     5  =     125
superc: Number of atoms, orbitals, and projectors:    250  1000  2250

outcell: Unit cell vectors (Ang):
        0.000000    2.715000    2.715000
        2.715000    0.000000    2.715000
        2.715000    2.715000    0.000000

outcell: Cell vector modules (Ang)   :    3.839590    3.839590    3.839590
outcell: Cell angles (23,13,12) (deg):     60.0000     60.0000     60.0000
outcell: Cell volume (Ang**3)        :     40.0258
New_DM. Step:     6
Initializing Density Matrix...

siesta: Eharris(eV) =    -193.415804


siesta: Eharris(eV) =    -193.415804


siesta: Atomic forces (eV/Ang):
     1    0.000000    0.000000    0.831805
     2    0.000000    0.000000   -0.841811
----------------------------------------
   Tot    0.000000   -0.000001   -0.010007
----------------------------------------
   Max    0.841811
   Res    0.483140    sqrt( Sum f_i^2 / 3N )
----------------------------------------
   Max    0.841811    constrained

Stress-tensor-Voigt (kbar):     -425.79     -425.79     -425.66       21.92        0.00        0.00
(Free)E + p*V (eV/cell)     -184.0535
Target enthalpy (eV/cell)     -194.6894
 
mulliken: Atomic and Orbital Populations:

mulliken: Spin UP 

Species: Si                  
Atom  Qatom  Qorb
               3s      3py     3pz     3px     
   1  2.000   0.500   0.500   0.500   0.500
   2  2.000   0.500   0.500   0.500   0.500

mulliken: Qtot =        4.000

mulliken: Spin DOWN 

Species: Si                  
Atom  Qatom  Qorb
               3s      3py     3pz     3px     
   1  2.000   0.500   0.500   0.500   0.500
   2  2.000   0.500   0.500   0.500   0.500

mulliken: Qtot =        4.000

* Maximum dynamic memory allocated =     5 MB

siesta:                 ==============================
                            Begin FC step =      6
                            displace atom        1
                            in direction         3
                            by         0.0400 Bohr
                        ==============================

outcoor: Atomic coordinates (fractional):                   
    0.00389817    0.00389817   -0.00389817   1       1  Si
    0.25000000    0.25000000    0.25000000   1       2  Si

superc: Internal auxiliary supercell:     5 x     5 x     5  =     125
superc: Number of atoms, orbitals, and projectors:    250  1000  2250

outcell: Unit cell vectors (Ang):
        0.000000    2.715000    2.715000
        2.715000    0.000000    2.715000
        2.715000    2.715000    0.000000

outcell: Cell vector modules (Ang)   :    3.839590    3.839590    3.839590
outcell: Cell angles (23,13,12) (deg):     60.0000     60.0000     60.0000
outcell: Cell volume (Ang**3)        :     40.0258
New_DM. Step:     7
Initializing Density Matrix...

siesta: Eharris(eV) =    -193.415804


siesta: Eharris(eV) =    -193.415804


siesta: Atomic forces (eV/Ang):
     1    0.000000    0.000000   -0.831805
     2    0.000000    0.000000    0.841811
----------------------------------------
   Tot    0.000000    0.000000    0.010006
----------------------------------------
   Max    0.841811
   Res    0.483140    sqrt( Sum f_i^2 / 3N )
----------------------------------------
   Max    0.841811    constrained

Stress-tensor-Voigt (kbar):     -425.79     -425.79     -425.66      -21.92        0.00        0.00
(Free)E + p*V (eV/cell)     -184.0535
Target enthalpy (eV/cell)     -194.6894
 
mulliken: Atomic and Orbital Populations:

mulliken: Spin UP 

Species: Si                  
Atom  Qatom  Qorb
               3s      3py     3pz     3px     
   1  2.000   0.500   0.500   0.500   0.500
   2  2.000   0.500   0.500   0.500   0.500

mulliken: Qtot =        4.000

mulliken: Spin DOWN 

Species: Si                  
Atom  Qatom  Qorb
               3s      3py     3pz     3px     
   1  2.000   0.500   0.500   0.500   0.500
   2  2.000   0.500   0.500   0.500   0.500

mulliken: Qtot =        4.000

siesta: Calculating polarization. 

siesta: Macroscopic polarization for spin Up:

siesta: Macroscopic polarization per unit cell (a.u.):
siesta: Along the lattice vectors     10.883641   10.883641    3.627908
siesta: Along cartesian directions    10.261215   10.261215   15.391793

siesta: Macroscopic polarization per unit cell (Debye):
siesta: Along the lattice vectors     27.663476   27.663476    9.221228
siesta: Along cartesian directions    26.081424   26.081424   39.122063

siesta: Macroscopic polarization for spin Down:

siesta: Macroscopic polarization per unit cell (a.u.):
siesta: Along the lattice vectors     10.883641   10.883641    3.627908
siesta: Along cartesian directions    10.261214   10.261215   15.391793

siesta: Macroscopic polarization per unit cell (Debye):
siesta: Along the lattice vectors     27.663476   27.663475    9.221228
siesta: Along cartesian directions    26.081424   26.081424   39.122062

siesta: Sum along cartesian directions (a.u.): 
siesta:    20.522429   20.522429   30.783586

siesta: Sum along cartesian directions (Debye): 
siesta:    52.162848   52.162848   78.244125

obc: Macroscopic polarization for spin Up:

obc: Macroscopic polarization per unit cell along the lattice vectors (Bohr): 
obc:   10.883641   10.883641    3.627908

obc: Macroscopic polarization for spin Down:

obc: Macroscopic polarization per unit cell along the lattice vectors (Bohr): 
obc:   10.883641   10.883641    3.627908

* Maximum dynamic memory allocated =     5 MB

siesta:                 ==============================
                            Begin FC step =      7
                            displace atom        2
                            in direction         1
                            by        -0.0400 Bohr
                        ==============================

outcoor: Atomic coordinates (fractional):                   
    0.00000000    0.00000000    0.00000000   1       1  Si
    0.25389817    0.24610183    0.24610183   1       2  Si

superc: Internal auxiliary supercell:     5 x     5 x     5  =     125
superc: Number of atoms, orbitals, and projectors:    250  1000  2250

outcell: Unit cell vectors (Ang):
        0.000000    2.715000    2.715000
        2.715000    0.000000    2.715000
        2.715000    2.715000    0.000000

outcell: Cell vector modules (Ang)   :    3.839590    3.839590    3.839590
outcell: Cell angles (23,13,12) (deg):     60.0000     60.0000     60.0000
outcell: Cell volume (Ang**3)        :     40.0258
New_DM. Step:     8
Initializing Density Matrix...

siesta: Eharris(eV) =    -193.415804


siesta: Eharris(eV) =    -193.415804


siesta: Atomic forces (eV/Ang):
     1   -0.841812    0.000000    0.000000
     2    0.831805    0.000000    0.000000
----------------------------------------
   Tot   -0.010008    0.000000    0.000000
----------------------------------------
   Max    0.841812
   Res    0.483140    sqrt( Sum f_i^2 / 3N )
----------------------------------------
   Max    0.841812    constrained

Stress-tensor-Voigt (kbar):     -425.66     -425.79     -425.79        0.00      -21.92        0.00
(Free)E + p*V (eV/cell)     -184.0535
Target enthalpy (eV/cell)     -194.6894
 
mulliken: Atomic and Orbital Populations:

mulliken: Spin UP 

Species: Si                  
Atom  Qatom  Qorb
               3s      3py     3pz     3px     
   1  2.000   0.500   0.500   0.500   0.500
   2  2.000   0.500   0.500   0.500   0.500

mulliken: Qtot =        4.000

mulliken: Spin DOWN 

Species: Si                  
Atom  Qatom  Qorb
               3s      3py     3pz     3px     
   1  2.000   0.500   0.500   0.500   0.500
   2  2.000   0.500   0.500   0.500   0.500

mulliken: Qtot =        4.000

* Maximum dynamic memory allocated =     5 MB

siesta:                 ==============================
                            Begin FC step =      8
                            displace atom        2
                            in direction         1
                            by         0.0400 Bohr
                        ==============================

outcoor: Atomic coordinates (fractional):                   
    0.00000000    0.00000000    0.00000000   1       1  Si
    0.24610183    0.25389817    0.25389817   1       2  Si

superc: Internal auxiliary supercell:     5 x     5 x     5  =     125
superc: Number of atoms, orbitals, and projectors:    250  1000  2250

outcell: Unit cell vectors (Ang):
        0.000000    2.715000    2.715000
        2.715000    0.000000    2.715000
        2.715000    2.715000    0.000000

outcell: Cell vector modules (Ang)   :    3.839590    3.839590    3.839590
outcell: Cell angles (23,13,12) (deg):     60.0000     60.0000     60.0000
outcell: Cell volume (Ang**3)        :     40.0258
New_DM. Step:     9
Initializing Density Matrix...

siesta: Eharris(eV) =    -193.415804


siesta: Eharris(eV) =    -193.415804


siesta: Atomic forces (eV/Ang):
     1    0.841812    0.000000    0.000000
     2   -0.831806    0.000000    0.000000
----------------------------------------
   Tot    0.010007    0.000000    0.000000
----------------------------------------
   Max    0.841812
   Res    0.483140    sqrt( Sum f_i^2 / 3N )
----------------------------------------
   Max    0.841812    constrained

Stress-tensor-Voigt (kbar):     -425.66     -425.79     -425.79        0.00       21.92        0.00
(Free)E + p*V (eV/cell)     -184.0535
Target enthalpy (eV/cell)     -194.6894
 
mulliken: Atomic and Orbital Populations:

mulliken: Spin UP 

Species: Si                  
Atom  Qatom  Qorb
               3s      3py     3pz     3px     
   1  2.000   0.500   0.500   0.500   0.500
   2  2.000   0.500   0.500   0.500   0.500

mulliken: Qtot =        4.000

mulliken: Spin DOWN 

Species: Si                  
Atom  Qatom  Qorb
               3s      3py     3pz     3px     
   1  2.000   0.500   0.500   0.500   0.500
   2  2.000   0.500   0.500   0.500   0.500

mulliken: Qtot =        4.000

siesta: Calculating polarization. 

siesta: Macroscopic polarization for spin Up:

siesta: Macroscopic polarization per unit cell (a.u.):
siesta: Along the lattice vectors      3.627911   10.883644   10.883644
siesta: Along cartesian directions    15.391798   10.261219   10.261219

siesta: Macroscopic polarization per unit cell (Debye):
siesta: Along the lattice vectors      9.221236   27.663484   27.663484
siesta: Along cartesian directions    39.122074   26.081436   26.081436

siesta: Macroscopic polarization for spin Down:

siesta: Macroscopic polarization per unit cell (a.u.):
siesta: Along the lattice vectors      3.627911   10.883645   10.883645
siesta: Along cartesian directions    15.391798   10.261219   10.261219

siesta: Macroscopic polarization per unit cell (Debye):
siesta: Along the lattice vectors      9.221236   27.663484   27.663484
siesta: Along cartesian directions    39.122075   26.081436   26.081436

siesta: Sum along cartesian directions (a.u.): 
siesta:    30.783595   20.522439   20.522439

siesta: Sum along cartesian directions (Debye): 
siesta:    78.244149   52.162872   52.162872

obc: Macroscopic polarization for spin Up:

obc: Macroscopic polarization per unit cell along the lattice vectors (Bohr): 
obc:    3.627911   10.883644   10.883644

obc: Macroscopic polarization for spin Down:

obc: Macroscopic polarization per unit cell along the lattice vectors (Bohr): 
obc:    3.627911   10.883645   10.883645

* Maximum dynamic memory allocated =     5 MB

siesta:                 ==============================
                            Begin FC step =      9
                            displace atom        2
                            in direction         2
                            by        -0.0400 Bohr
                        ==============================

outcoor: Atomic coordinates (fractional):                   
    0.00000000    0.00000000    0.00000000   1       1  Si
    0.24610183    0.25389817    0.24610183   1       2  Si

superc: Internal auxiliary supercell:     5 x     5 x     5  =     125
superc: Number of atoms, orbitals, and projectors:    250  1000  2250

outcell: Unit cell vectors (Ang):
        0.000000    2.715000    2.715000
        2.715000    0.000000    2.715000
        2.715000    2.715000    0.000000

outcell: Cell vector modules (Ang)   :    3.839590    3.839590    3.839590
outcell: Cell angles (23,13,12) (deg):     60.0000     60.0000     60.0000
outcell: Cell volume (Ang**3)        :     40.0258
New_DM. Step:    10
Initializing Density Matrix...

siesta: Eharris(eV) =    -193.415804


siesta: Eharris(eV) =    -193.415804


siesta: Atomic forces (eV/Ang):
     1    0.000000   -0.841812    0.000000
     2    0.000000    0.831805    0.000000
----------------------------------------
   Tot    0.000000   -0.010007    0.000000
----------------------------------------
   Max    0.841812
   Res    0.483140    sqrt( Sum f_i^2 / 3N )
----------------------------------------
   Max    0.841812    constrained

Stress-tensor-Voigt (kbar):     -425.79     -425.66     -425.79        0.00        0.00      -21.92
(Free)E + p*V (eV/cell)     -184.0535
Target enthalpy (eV/cell)     -194.6894
 
mulliken: Atomic and Orbital Populations:

mulliken: Spin UP 

Species: Si                  
Atom  Qatom  Qorb
               3s      3py     3pz     3px     
   1  2.000   0.500   0.500   0.500   0.500
   2  2.000   0.500   0.500   0.500   0.500

mulliken: Qtot =        4.000

mulliken: Spin DOWN 

Species: Si                  
Atom  Qatom  Qorb
               3s      3py     3pz     3px     
   1  2.000   0.500   0.500   0.500   0.500
   2  2.000   0.500   0.500   0.500   0.500

mulliken: Qtot =        4.000

* Maximum dynamic memory allocated =     5 MB

siesta:                 ==============================
                            Begin FC step =     10
                            displace atom        2
                            in direction         2
                            by         0.0400 Bohr
                        ==============================

outcoor: Atomic coordinates (fractional):                   
    0.00000000    0.00000000    0.00000000   1       1  Si
    0.25389817    0.24610183    0.25389817   1       2  Si

superc: Internal auxiliary supercell:     5 x     5 x     5  =     125
superc: Number of atoms, orbitals, and projectors:    250  1000  2250

outcell: Unit cell vectors (Ang):
        0.000000    2.715000    2.715000
        2.715000    0.000000    2.715000
        2.715000    2.715000    0.000000

outcell: Cell vector modules (Ang)   :    3.839590    3.839590    3.839590
outcell: Cell angles (23,13,12) (deg):     60.0000     60.0000     60.0000
outcell: Cell volume (Ang**3)        :     40.0258
New_DM. Step:    11
Initializing Density Matrix...

siesta: Eharris(eV) =    -193.415804


siesta: Eharris(eV) =    -193.415804


siesta: Atomic forces (eV/Ang):
     1    0.000000    0.841812    0.000000
     2   -0.000001   -0.831806    0.000000
----------------------------------------
   Tot    0.000000    0.010007    0.000000
----------------------------------------
   Max    0.841812
   Res    0.483141    sqrt( Sum f_i^2 / 3N )
----------------------------------------
   Max    0.841812    constrained

Stress-tensor-Voigt (kbar):     -425.79     -425.66     -425.79        0.00        0.00       21.92
(Free)E + p*V (eV/cell)     -184.0535
Target enthalpy (eV/cell)     -194.6894
 
mulliken: Atomic and Orbital Populations:

mulliken: Spin UP 

Species: Si                  
Atom  Qatom  Qorb
               3s      3py     3pz     3px     
   1  2.000   0.500   0.500   0.500   0.500
   2  2.000   0.500   0.500   0.500   0.500

mulliken: Qtot =        4.000

mulliken: Spin DOWN 

Species: Si                  
Atom  Qatom  Qorb
               3s      3py     3pz     3px     
   1  2.000   0.500   0.500   0.500   0.500
   2  2.000   0.500   0.500   0.500   0.500

mulliken: Qtot =        4.000

siesta: Calculating polarization. 

siesta: Macroscopic polarization for spin Up:

siesta: Macroscopic polarization per unit cell (a.u.):
siesta: Along the lattice vectors     10.883644    3.627911   10.883644
siesta: Along cartesian directions    10.261219   15.391798   10.261219

siesta: Macroscopic polarization per unit cell (Debye):
siesta: Along the lattice vectors     27.663484    9.221236   27.663484
siesta: Along cartesian directions    26.081436   39.122074   26.081436

siesta: Macroscopic polarization for spin Down:

siesta: Macroscopic polarization per unit cell (a.u.):
siesta: Along the lattice vectors     10.883645    3.627911   10.883645
siesta: Along cartesian directions    10.261219   15.391798   10.261219

siesta: Macroscopic polarization per unit cell (Debye):
siesta: Along the lattice vectors     27.663484    9.221237   27.663484
siesta: Along cartesian directions    26.081436   39.122075   26.081436

siesta: Sum along cartesian directions (a.u.): 
siesta:    20.522439   30.783595   20.522439

siesta: Sum along cartesian directions (Debye): 
siesta:    52.162872   78.244149   52.162872

obc: Macroscopic polarization for spin Up:

obc: Macroscopic polarization per unit cell along the lattice vectors (Bohr): 
obc:   10.883644    3.627911   10.883644

obc: Macroscopic polarization for spin Down:

obc: Macroscopic polarization per unit cell along the lattice vectors (Bohr): 
obc:   10.883645    3.627911   10.883645

* Maximum dynamic memory allocated =     5 MB

siesta:                 ==============================
                            Begin FC step =     11
                            displace atom        2
                            in direction         3
                            by        -0.0400 Bohr
                        ==============================

outcoor: Atomic coordinates (fractional):                   
    0.00000000    0.00000000    0.00000000   1       1  Si
    0.24610183    0.24610183    0.25389817   1       2  Si

superc: Internal auxiliary supercell:     5 x     5 x     5  =     125
superc: Number of atoms, orbitals, and projectors:    250  1000  2250

outcell: Unit cell vectors (Ang):
        0.000000    2.715000    2.715000
        2.715000    0.000000    2.715000
        2.715000    2.715000    0.000000

outcell: Cell vector modules (Ang)   :    3.839590    3.839590    3.839590
outcell: Cell angles (23,13,12) (deg):     60.0000     60.0000     60.0000
outcell: Cell volume (Ang**3)        :     40.0258
New_DM. Step:    12
Initializing Density Matrix...

siesta: Eharris(eV) =    -193.415804


siesta: Eharris(eV) =    -193.415804


siesta: Atomic forces (eV/Ang):
     1    0.000000    0.000001   -0.841813
     2    0.000000    0.000000    0.831805
----------------------------------------
   Tot    0.000000    0.000001   -0.010007
----------------------------------------
   Max    0.841813
   Res    0.483141    sqrt( Sum f_i^2 / 3N )
----------------------------------------
   Max    0.841813    constrained

Stress-tensor-Voigt (kbar):     -425.79     -425.79     -425.66      -21.92        0.00        0.00
(Free)E + p*V (eV/cell)     -184.0535
Target enthalpy (eV/cell)     -194.6894
 
mulliken: Atomic and Orbital Populations:

mulliken: Spin UP 

Species: Si                  
Atom  Qatom  Qorb
               3s      3py     3pz     3px     
   1  2.000   0.500   0.500   0.500   0.500
   2  2.000   0.500   0.500   0.500   0.500

mulliken: Qtot =        4.000

mulliken: Spin DOWN 

Species: Si                  
Atom  Qatom  Qorb
               3s      3py     3pz     3px     
   1  2.000   0.500   0.500   0.500   0.500
   2  2.000   0.500   0.500   0.500   0.500

mulliken: Qtot =        4.000

* Maximum dynamic memory allocated =     5 MB

siesta:                 ==============================
                            Begin FC step =     12
                            displace atom        2
                            in direction         3
                            by         0.0400 Bohr
                        ==============================

outcoor: Atomic coordinates (fractional):                   
    0.00000000    0.00000000    0.00000000   1       1  Si
    0.25389817    0.25389817    0.24610183   1       2  Si

superc: Internal auxiliary supercell:     5 x     5 x     5  =     125
superc: Number of atoms, orbitals, and projectors:    250  1000  2250

outcell: Unit cell vectors (Ang):
        0.000000    2.715000    2.715000
        2.715000    0.000000    2.715000
        2.715000    2.715000    0.000000

outcell: Cell vector modules (Ang)   :    3.839590    3.839590    3.839590
outcell: Cell angles (23,13,12) (deg):     60.0000     60.0000     60.0000
outcell: Cell volume (Ang**3)        :     40.0258
New_DM. Step:    13
Initializing Density Matrix...

siesta: Eharris(eV) =    -193.415804


siesta: Eharris(eV) =    -193.415804


siesta: Atomic forces (eV/Ang):
     1    0.000000    0.000000    0.841812
     2    0.000000    0.000000   -0.831805
----------------------------------------
   Tot    0.000000    0.000000    0.010007
----------------------------------------
   Max    0.841812
   Res    0.483140    sqrt( Sum f_i^2 / 3N )
----------------------------------------
   Max    0.841812    constrained

Stress-tensor-Voigt (kbar):     -425.79     -425.79     -425.66       21.92        0.00        0.00
(Free)E + p*V (eV/cell)     -184.0535
Target enthalpy (eV/cell)     -194.6894
 
mulliken: Atomic and Orbital Populations:

mulliken: Spin UP 

Species: Si                  
Atom  Qatom  Qorb
               3s      3py     3pz     3px     
   1  2.000   0.500   0.500   0.500   0.500
   2  2.000   0.500   0.500   0.500   0.500

mulliken: Qtot =        4.000

mulliken: Spin DOWN 

Species: Si                  
Atom  Qatom  Qorb
               3s      3py     3pz     3px     
   1  2.000   0.500   0.500   0.500   0.500
   2  2.000   0.500   0.500   0.500   0.500

mulliken: Qtot =        4.000

siesta: Calculating polarization. 

siesta: Macroscopic polarization for spin Up:

siesta: Macroscopic polarization per unit cell (a.u.):
siesta: Along the lattice vectors     10.883644   10.883644    3.627911
siesta: Along cartesian directions    10.261219   10.261219   15.391798

siesta: Macroscopic polarization per unit cell (Debye):
siesta: Along the lattice vectors     27.663484   27.663484    9.221236
siesta: Along cartesian directions    26.081436   26.081436   39.122074

siesta: Macroscopic polarization for spin Down:

siesta: Macroscopic polarization per unit cell (a.u.):
siesta: Along the lattice vectors     10.883645   10.883645    3.627911
siesta: Along cartesian directions    10.261219   10.261219   15.391798

siesta: Macroscopic polarization per unit cell (Debye):
siesta: Along the lattice vectors     27.663484   27.663484    9.221237
siesta: Along cartesian directions    26.081436   26.081436   39.122075

siesta: Sum along cartesian directions (a.u.): 
siesta:    20.522439   20.522439   30.783596

siesta: Sum along cartesian directions (Debye): 
siesta:    52.162872   52.162872   78.244149

obc: Macroscopic polarization for spin Up:

obc: Macroscopic polarization per unit cell along the lattice vectors (Bohr): 
obc:   10.883644   10.883644    3.627911

obc: Macroscopic polarization for spin Down:

obc: Macroscopic polarization per unit cell along the lattice vectors (Bohr): 
obc:   10.883645   10.883645    3.627911

* Maximum dynamic memory allocated =     5 MB

siesta: Eigenvalues (eV):
  ik is    eps
   1  1 -17.17  -4.98  -4.86  -4.74  -2.03  -1.94  -1.84  -1.74
   1  2 -15.12  -2.89  -2.77  -2.66  -0.02   0.07   0.17   0.27
siesta: Fermi energy =      -2.347973 eV

siesta: Program's energy decomposition (eV):
siesta: Eions   =       380.802124
siesta: Ena     =       115.501483
siesta: Ekin    =       115.577905
siesta: Enl     =        29.935836
siesta: DEna    =        -8.120537
siesta: DUscf   =         1.765891
siesta: DUext   =         0.000000
siesta: Exc     =       -68.547872
siesta: eta*DQ  =         0.000000
siesta: Emadel  =         0.000000
siesta: Emeta   =         0.000000
siesta: Emolmec =         0.000000
siesta: Ekinion =         0.000000
siesta: Eharris =      -193.415804
siesta: Etot    =      -194.689419
siesta: FreeEng =      -194.689423

siesta: Final energy (eV):
siesta:       Kinetic =     115.577905
siesta:       Hartree =      23.678138
siesta:    Ext. field =       0.000000
siesta:   Exch.-corr. =     -68.547872
siesta:  Ion-electron =    -120.258591
siesta:       Ion-ion =    -145.138998
siesta:       Ekinion =       0.000000
siesta:         Total =    -194.689419

siesta: Atomic forces (eV/Ang):
siesta:      1    0.000000    0.000000    0.841812
siesta:      2    0.000000    0.000000   -0.831805
siesta: ----------------------------------------
siesta:    Tot    0.000000    0.000000    0.010007

siesta: Stress tensor (static) (eV/Ang**3):
siesta:    -0.265754    0.013680    0.000000
siesta:     0.013680   -0.265754    0.000000
siesta:     0.000000    0.000000   -0.265675

siesta: Cell volume =         40.025752 Ang**3

siesta: Pressure (static):
siesta:                Solid            Molecule  Units
siesta:           0.00289411          0.00299875  Ry/Bohr**3
siesta:           0.26572732          0.27533514  eV/Ang**3
siesta:         425.74669896        441.14029006  kBar
(Free)E+ p_basis*V_orbitals  =        -194.112723
(Free)Eharris+ p_basis*V_orbitals  =        -170.548666

siesta: Total spin polarization (Qup-Qdown) =    0.000011

* Maximum dynamic memory allocated : Node    0 =     5 MB
* Maximum dynamic memory allocated : Node    1 =     5 MB
* Maximum dynamic memory allocated : Node    2 =     5 MB
* Maximum dynamic memory allocated : Node    3 =     5 MB

* Maximum memory occured during ranger                        

timer: CPU execution times:
timer:  Routine       Calls   Time/call    Tot.time        %
timer:  siesta            1      31.042      31.042   100.00
timer:  Setup             1       0.413       0.413     1.33
timer:  bands             1       0.000       0.000     0.00
timer:  writewave         1       0.004       0.004     0.01
timer:  KSV_init          1       0.000       0.000     0.00
timer:  IterMD           13       2.355      30.610    98.61
timer:  hsparse          13       0.003       0.041     0.13
timer:  overlap          13       0.004       0.058     0.19
timer:  IterSCF          13       0.815      10.601    34.15
timer:  kinefsm          26       0.002       0.061     0.20
timer:  nlefsm           26       0.226       5.867    18.90
timer:  DHSCF            26       0.467      12.150    39.14
timer:  DHSCF1            1       0.345       0.345     1.11
timer:  DHSCF2           13       0.355       4.616    14.87
timer:  REORD           390       0.000       0.017     0.05
timer:  POISON           39       0.004       0.172     0.55
timer:  DHSCF3           26       0.162       4.203    13.54
timer:  rhoofd           26       0.059       1.537     4.95
timer:  cellXC           39       0.014       0.531     1.71
timer:  vmat             26       0.074       1.932     6.22
timer:  MolMec           26       0.000       0.001     0.00
timer:  diagon           13       0.020       0.257     0.83
timer:  c-eigval         26       0.005       0.134     0.43
timer:  c-buildHS        26       0.000       0.000     0.00
timer:  cdiag          1816       0.004       7.474    24.08
timer:  cdiag1         1816       0.000       0.632     2.04
timer:  cdiag2         1816       0.001       1.187     3.82
timer:  cdiag3         1816       0.003       4.769    15.36
timer:  cdiag4         1816       0.000       0.444     1.43
timer:  c-eigvec         26       0.004       0.111     0.36
timer:  c-buildD         26       0.000       0.005     0.02
timer:  DHSCF4           13       0.229       2.978     9.59
timer:  dfscf            13       0.151       1.959     6.31
timer:  overfsm          13       0.002       0.024     0.08
timer:  KSV_pol           7       1.227       8.591    27.67
timer:  optical           1       0.000       0.000     0.00
  

elaps: ELAPSED times:
elaps:  Routine       Calls   Time/call    Tot.time        %
elaps:  siesta            1       7.982       7.982    99.99
elaps:  Setup             1       0.105       0.105     1.32
elaps:  bands             1       0.000       0.000     0.00
elaps:  writewave         1       0.001       0.001     0.01
elaps:  KSV_init          1       0.001       0.001     0.01
elaps:  IterMD           13       0.606       7.873    98.62
elaps:  hsparse          13       0.001       0.010     0.13
elaps:  overlap          13       0.001       0.013     0.16
elaps:  IterSCF          13       0.204       2.651    33.21
elaps:  kinefsm          26       0.000       0.012     0.15
elaps:  nlefsm           26       0.056       1.468    18.39
elaps:  DHSCF            26       0.115       2.996    37.53
elaps:  DHSCF1            1       0.088       0.088     1.10
elaps:  DHSCF2           13       0.089       1.153    14.44
elaps:  REORD           390       0.000       0.004     0.05
elaps:  POISON           39       0.001       0.044     0.55
elaps:  DHSCF3           26       0.040       1.048    13.13
elaps:  rhoofd           26       0.013       0.333     4.17
elaps:  cellXC           39       0.003       0.136     1.71
elaps:  vmat             26       0.019       0.482     6.03
elaps:  MolMec           26       0.000       0.000     0.00
elaps:  diagon           13       0.005       0.063     0.79
elaps:  c-eigval         26       0.001       0.033     0.42
elaps:  c-buildHS        26       0.000       0.000     0.00
elaps:  cdiag          1816       0.001       1.896    23.76
elaps:  cdiag1         1816       0.000       0.152     1.91
elaps:  cdiag2         1816       0.000       0.272     3.40
elaps:  cdiag3         1816       0.001       1.224    15.34
elaps:  cdiag4         1816       0.000       0.100     1.25
elaps:  c-eigvec         26       0.001       0.026     0.33
elaps:  c-buildD         26       0.000       0.001     0.01
elaps:  DHSCF4           13       0.054       0.705     8.83
elaps:  dfscf            13       0.035       0.454     5.69
elaps:  overfsm          13       0.000       0.005     0.06
elaps:  KSV_pol           7       0.307       2.148    26.91
elaps:  optical           1       0.000       0.000     0.00
  
>> End of run:  29-SEP-2009  17:11:12
