Siesta Version  : siesta-4.0--578
Architecture    : x86_64-linux-n-62-25-35
Compiler version: GNU Fortran (GCC) 7.3.0
Compiler flags  : mpif90 -m64 -fPIC -O3 -march=native -ftree-vectorize -fexpensive-optimizationns -funroll-loops -fprefetch-loop-arrays -fno-second-underscore
PP flags        : -I/zdata/groups/common/nicpa/2018-feb/generic/build-tools/1.0/include -I/zdatta/groups/common/nicpa/2018-feb/generic/gcc/7.3.0/include -I/zdata/groups/common/nicpa/2018-feb/generic/gcc/7.3.0/include -I/zdata/groups/common/nicpa/2018-feb/XeonE5-2660v3/zlib/1.2.11/gnu-7.3.0/include -I/zdata/groups/common/nicpa/2018-feb/generic/numactl/2.0.11/include -I/zdata/groups/common/nicpa/2018-feb/XeonE5-2660v3/libxml2/2.9.7/gnu-7.3.0/include -I/zdata/groups/common/nicpa/2018-feb/XeonE5-2660v3/hwloc/1.11.9/gnu-7.3.0/include -I/zdata/groups/common/nicpa/2018-feb/XeonE5-2660v3/openmpi/3.0.0/gnu-7.3.0/include -I/zdata/groups/common/nicpa/2018-feb/XeonE5-2660v3/szip/2.1.1/gnu-7.3.0/include -I/zdata/groups/common/nicpa/2018-feb/XeonE5-2660v3/hdf5-serial/1.8.18/gnu-7.3.0/include -I/zdata/groups/common/nicpa/2018-feb/XeonE5-2660v3/netcdf-serial/4.6.0/gnu-7.3.0/include -I/zdata/groups/common/nicpa/2018-feb/XeonE5-2660v3/scalapack/204/gnu-7.3.0/include -I/zdata/groups/common/nicpa/2018-feb/XeonE5-2660v3/openblas/0.2.20/gnu-7.3.0/include -I/zdata/groups/common/nicpa/2018-feb/XeonE5-2660v3/elpa/2017.05.003/gnu-7.3.0/include -DSIESTA__ELPA -DMPI -D1 -DFC_HAVE_ABORT -DCDF -DSIESTA__MRRR 
PARALLEL version
NetCDF support

* Running on    8 nodes in parallel
>> Start of run:  10-JUN-2018  20:57:07

                           ***********************       
                           *  WELCOME TO SIESTA  *       
                           ***********************       

reinit: Reading from standard input
************************** Dump of input data file ****************************
Systemlabel  born_spin
Systemname   si2 Force constants + Born charges -- spin-polarized
LongOutput T
SpinPolarized T
%include FC.fdf
BornCharge T
%block PolarizationGrids
7  3  3
3  7  3
3  3  7
%endblock PolarizationGrids
NumberOfSpecies 1
%block chemicalspecieslabel
1 14 Si
%endblock chemicalspecieslabel
PAO.BasisSize SZ
MeshCutoff 130.0 Ry
# In a real calculation, a high degree of self-consistency should be achieved
#DM.MixingWeight  0.3
#DM.NumberPulay    3
#DM.Tolerance     1.0d-5
************************** End of input data file *****************************

reinit: -----------------------------------------------------------------------
reinit: System Name: si2 Force constants + Born charges -- spin-polarized
reinit: -----------------------------------------------------------------------
reinit: System Label: born_spin                                                   
reinit: -----------------------------------------------------------------------

initatom: Reading input for the pseudopotentials and atomic orbitals ----------
 Species number:            1  Label: Si Atomic number:          14
Ground state valence configuration:   3s02  3p02
Reading pseudopotential information in formatted form from Si.psf

Valence configuration for pseudopotential generation:
3s( 2.00) rc: 1.89
3p( 2.00) rc: 1.89
3d( 0.00) rc: 1.89
4f( 0.00) rc: 1.89
For Si, standard SIESTA heuristics set lmxkb to 2
 (one more than the basis l, including polarization orbitals).
Use PS.lmax or PS.KBprojectors blocks to override.

<basis_specs>
===============================================================================
Si                   Z=  14    Mass=  28.090        Charge= 0.17977+309
Lmxo=1 Lmxkb= 2    BasisType=split      Semic=F
L=0  Nsemic=0  Cnfigmx=3
          n=1  nzeta=1  polorb=0
            splnorm:   0.15000    
               vcte:    0.0000    
               rinn:    0.0000    
               qcoe:    0.0000    
               qyuk:    0.0000    
               qwid:   0.10000E-01
                rcs:    0.0000    
            lambdas:    1.0000    
L=1  Nsemic=0  Cnfigmx=3
          n=1  nzeta=1  polorb=0
            splnorm:   0.15000    
               vcte:    0.0000    
               rinn:    0.0000    
               qcoe:    0.0000    
               qyuk:    0.0000    
               qwid:   0.10000E-01
                rcs:    0.0000    
            lambdas:    1.0000    
-------------------------------------------------------------------------------
L=0  Nkbl=1  erefs: 0.17977+309
L=1  Nkbl=1  erefs: 0.17977+309
L=2  Nkbl=1  erefs: 0.17977+309
===============================================================================
</basis_specs>

atom: Called for Si                    (Z =  14)

read_vps: Pseudopotential generation method:
read_vps: ATM3      Troullier-Martins                       
Total valence charge:    4.00000

xc_check: Exchange-correlation functional:
xc_check: Ceperley-Alder
V l=0 = -2*Zval/r beyond r=  2.5494
V l=1 = -2*Zval/r beyond r=  2.5494
V l=2 = -2*Zval/r beyond r=  2.5494
All V_l potentials equal beyond r=  1.8652
This should be close to max(r_c) in ps generation
All pots = -2*Zval/r beyond r=  2.5494
Using large-core scheme for Vlocal

atom: Estimated core radius    2.54944

atom: Including non-local core corrections could be a good idea
atom: Maximum radius for 4*pi*r*r*local-pseudopot. charge    2.85303
atom: Maximum radius for r*vlocal+2*Zval:    2.58151
GHOST: No ghost state for L =  0
GHOST: No ghost state for L =  1
GHOST: No ghost state for L =  2

KBgen: Kleinman-Bylander projectors: 
   l= 0   rc=  1.936440   el= -0.796617   Ekb=  4.661340   kbcos=  0.299756
   l= 1   rc=  1.936440   el= -0.307040   Ekb=  1.494238   kbcos=  0.301471
   l= 2   rc=  1.936440   el=  0.002313   Ekb= -2.808672   kbcos= -0.054903

KBgen: Total number of  Kleinman-Bylander projectors:    9
atom: -------------------------------------------------------------------------

atom: SANKEY-TYPE ORBITALS:

SPLIT: Orbitals with angular momentum L= 0

SPLIT: Basis orbitals for state 3s

SPLIT: PAO cut-off radius determined from an
SPLIT: energy shift=  0.020000 Ry

   izeta = 1
                 lambda =    1.000000
                     rc =    5.007352
                 energy =   -0.777669
                kinetic =    0.573829
    potential(screened) =   -1.351499
       potential(ionic) =   -3.827441

SPLIT: Orbitals with angular momentum L= 1

SPLIT: Basis orbitals for state 3p

SPLIT: PAO cut-off radius determined from an
SPLIT: energy shift=  0.020000 Ry

   izeta = 1
                 lambda =    1.000000
                     rc =    6.270866
                 energy =   -0.288955
                kinetic =    0.877930
    potential(screened) =   -1.166885
       potential(ionic) =   -3.426998
atom: Total number of Sankey-type orbitals:  4

atm_pop: Valence configuration (for local Pseudopot. screening):
 3s( 2.00)                                                            
 3p( 2.00)                                                            
Vna: chval, zval:    4.00000   4.00000

Vna:  Cut-off radius for the neutral-atom potential:   6.270866

atom: _________________________________________________________________________

prinput: Basis input ----------------------------------------------------------

PAO.BasisType split     

%block ChemicalSpeciesLabel
    1   14 Si                      # Species index, atomic number, species label
%endblock ChemicalSpeciesLabel

%block PAO.Basis                 # Define Basis set
Si                    2                    # Species label, number of l-shells
 n=3   0   1                         # n, l, Nzeta 
   5.007   
   1.000   
 n=3   1   1                         # n, l, Nzeta 
   6.271   
   1.000   
%endblock PAO.Basis

prinput: ----------------------------------------------------------------------

Dumping basis to NetCDF file Si.ion.nc
coor:   Atomic-coordinates input format  =     Fractional

siesta: Atomic coordinates (Bohr) and species
siesta:      0.00000   0.00000   0.00000  1        1
siesta:      2.56530   2.56530   2.56530  1        2

siesta: System type = bulk      

initatomlists: Number of atoms, orbitals, and projectors:      2     8    18

siesta: ******************** Simulation parameters ****************************
siesta:
siesta: The following are some of the parameters of the simulation.
siesta: A complete list of the parameters used, including default values,
siesta: can be found in file out.fdf
siesta:
redata: Non-Collinear-spin run           =     F
redata: SpinPolarized (Up/Down) run      =     T
redata: Number of spin components        =     2
redata: Long output                      =     T
redata: Number of Atomic Species         =        1
redata: Charge density info will appear in .RHO file
redata: Write Mulliken Pop.              =     Atomic and Orbital charges
redata: Matel table size (NRTAB)         =     1024
redata: Mesh Cutoff                      =   130.0000 Ry
redata: Net charge of the system         =     0.0000 |e|
redata: Min. number of SCF Iter          =        0
redata: Max. number of SCF Iter          =       50
redata: Mix DM or H after convergence    =     F
redata: Recompute H after scf cycle      =     F
redata: Mixing is linear
redata: Mix DM in first SCF step ?       =     F
redata: Write Pulay info on disk?        =     F
redata: Discard 1st Pulay DM after  kick =     F
redata: New DM Mixing Weight             =     0.2500
redata: New DM Occupancy tolerance       = 0.000000000001
redata: No kicks to SCF
redata: DM Mixing Weight for Kicks       =     0.5000
redata: DM Tolerance for SCF             =     0.000100
redata: Require (free) Energy convergence in SCF =     F
redata: DM (free)Energy tolerance for SCF =     0.000010 eV
redata: Require Harris convergence for SCF =     F
redata: DM Harris energy tolerance for SCF =     0.000010 eV
redata: Antiferro initial spin density   =     F
redata: Using Saved Data (generic)   =     F
redata: Use continuation files for DM    =     F
redata: Neglect nonoverlap interactions  =     F
redata: Method of Calculation            =     Diagonalization
redata: Divide and Conquer               =     T
redata: Electronic Temperature           =     0.0019  Ry
redata: Fix the spin of the system       =     F
redata: Dynamics option                  =     Force Constants Matrix Calculation
redata: Atomic displ for force constants  =     0.0400  Bohr
redata: First atom to move               =        1
redata: Last atom to move                =        2
redata: ***********************************************************************
Total number of electrons:     8.000000
Total ionic charge:     8.000000

* ProcessorY, Blocksize:    2   1


* Orbital distribution balance (max,min):     1     1

 Kpoints in:            1 . Kpoints trimmed:            1

siesta: k-point coordinates (Bohr**-1) and weights:
siesta:    1    0.000000    0.000000    0.000000       1.000000

siesta: k-grid: Number of k-points =     1
siesta: k-grid: Cutoff (effective) =     1.920 Ang
siesta: k-grid: Supercell and displacements
siesta: k-grid:    1   0   0      0.000
siesta: k-grid:    0   1   0      0.000
siesta: k-grid:    0   0   1      0.000
Naive supercell factors:     5    5    5

superc: Internal auxiliary supercell:     5 x     5 x     5  =     125
superc: Number of atoms, orbitals, and projectors:    250   1000   2250

                     ====================================
                        Begin FC step =      0
                        Undisplaced coordinates
                     ====================================

outcoor: Atomic coordinates (fractional):                   
    0.00000000    0.00000000    0.00000000   1       1  Si
    0.25000000    0.25000000    0.25000000   1       2  Si

superc: Internal auxiliary supercell:     5 x     5 x     5  =     125
superc: Number of atoms, orbitals, and projectors:    250   1000   2250

outcell: Unit cell vectors (Ang):
        0.000000    2.715000    2.715000
        2.715000    0.000000    2.715000
        2.715000    2.715000    0.000000

outcell: Cell vector modules (Ang)   :    3.839590    3.839590    3.839590
outcell: Cell angles (23,13,12) (deg):     60.0000     60.0000     60.0000
outcell: Cell volume (Ang**3)        :     40.0258
New_DM. Step:     1
Initializing Density Matrix...
     spin moment: S , {S} =    4.00000       0.0       0.0   4.00000
New grid distribution:   1
           1       1:   12    1:    6    1:    3
           2       1:   12    1:    6    4:    6
           3       1:   12    1:    6    7:    9
           4       1:   12    1:    6   10:   12
           5       1:   12    7:   12    1:    3
           6       1:   12    7:   12    4:    6
           7       1:   12    7:   12    7:    9
           8       1:   12    7:   12   10:   12

InitMesh: MESH =    24 x    24 x    24 =       13824
InitMesh: (bp) =    12 x    12 x    12 =        1728
InitMesh: Mesh cutoff (required, used) =   130.000   161.974 Ry
ExtMesh (bp) on 0 =    64 x    58 x    55 =      204160
New grid distribution:   2
           1       1:    7    1:    6    1:    6
           2       7:   12    7:   12    1:    6
           3       1:    6    1:    6    7:   12
           4       8:   12    1:    6    1:    6
           5       7:   12    1:    6    7:   12
           6       1:    6    7:   12    1:    6
           7       1:    7    7:   12    7:   12
           8       8:   12    7:   12    7:   12
New grid distribution:   3
           1       1:    6    7:   12    7:   12
           2       7:   12    1:    6    1:    6
           3       7:   12    1:    6    7:   12
           4       7:   12    7:   12    1:    6
           5       1:    6    1:    6    7:   12
           6       1:    6    1:    6    1:    6
           7       7:   12    7:   12    7:   12
           8       1:    6    7:   12    1:    6
Setting up quadratic distribution...
ExtMesh (bp) on 0 =    59 x    58 x    58 =      198476
PhiOnMesh: Number of (b)points on node 0 =                  252
PhiOnMesh: nlist on node 0 =                 6710

stepf: Fermi-Dirac step function

siesta: Program's energy decomposition (eV):
siesta: Ebs     =       -55.194230
siesta: Eions   =       380.802124
siesta: Ena     =       115.502488
siesta: Ekin    =        78.997045
siesta: Enl     =        35.834990
siesta: DEna    =        -0.000000
siesta: DUscf   =         0.000000
siesta: DUext   =         0.000000
siesta: Exc     =       -66.512853
siesta: eta*DQ  =         0.000000
siesta: Emadel  =         0.000000
siesta: Emeta   =         0.000000
siesta: Emolmec =         0.000000
siesta: Ekinion =         0.000000
siesta: Eharris =      -193.422281
siesta: Etot    =      -216.980453
siesta: FreeEng =      -216.980453

   scf: iscf   Eharris(eV)      E_KS(eV)   FreeEng(eV)    dDmax  Ef(eV)
   scf:    1     -193.4223     -216.9805     -216.9805  0.72618 -2.3578
     spin moment: S , {S} =    0.00000       0.0       0.0   0.00000
timer: Routine,Calls,Time,% =    IterSCF     1       0.036  16.07
   scf:    2     -194.6963     -194.6963     -194.6963  0.00000 -1.3490
     spin moment: S , {S} =   -0.00000       0.0       0.0  -0.00000

SCF Convergence by dMax criterion
max |DM_out - DM_in|:     0.00000009
SCF cycle converged after    2 iterations

Using DM_out to compute the final energy and forces

siesta: E_KS(eV) =             -194.6963

siesta: E_KS - E_eggbox =      -194.6963
     spin moment: S , {S} =   -0.00000       0.0       0.0  -0.00000

siesta: Atomic forces (eV/Ang):
     1   -0.000000   -0.000000   -0.000000
     2    0.000000    0.000000    0.000000
----------------------------------------
   Tot    0.000000   -0.000000   -0.000000
----------------------------------------
   Max    0.000000
   Res    0.000000    sqrt( Sum f_i^2 / 3N )
----------------------------------------
   Max    0.000000    constrained

Stress-tensor-Voigt (kbar):     -515.35     -515.35     -515.35       -0.00       -0.00       -0.00
(Free)E + p*V (eV/cell)     -181.8218
Target enthalpy (eV/cell)     -194.6963

mulliken: Atomic and Orbital Populations:

mulliken: Spin UP 

Species: Si                  
Atom  Qatom  Qorb
               3s      3py     3pz     3px     
   1  2.000   0.500   0.500   0.500   0.500
   2  2.000   0.500   0.500   0.500   0.500

mulliken: Qtot =        4.000

mulliken: Spin DOWN 

Species: Si                  
Atom  Qatom  Qorb
               3s      3py     3pz     3px     
   1  2.000   0.500   0.500   0.500   0.500
   2  2.000   0.500   0.500   0.500   0.500

mulliken: Qtot =        4.000

siesta: Calculating polarization. 

siesta: Macroscopic polarization for spin Up:

siesta: Macroscopic polarization per unit cell (a.u.):
siesta: Along the lattice vectors     10.883664    3.627888    3.627888
siesta: Along cartesian directions     5.130608   10.261217   10.261217

siesta: Macroscopic polarization per unit cell (Debye):
siesta: Along the lattice vectors     27.663534    9.221178    9.221178
siesta: Along cartesian directions    13.040715   26.081430   26.081430

siesta: Macroscopic polarization for spin Down:

siesta: Macroscopic polarization per unit cell (a.u.):
siesta: Along the lattice vectors      3.627888    3.627888    3.627888
siesta: Along cartesian directions     5.130608    5.130608    5.130608

siesta: Macroscopic polarization per unit cell (Debye):
siesta: Along the lattice vectors      9.221178    9.221178    9.221178
siesta: Along cartesian directions    13.040715   13.040715   13.040715

siesta: Sum along cartesian directions (a.u.): 
siesta:    10.261217   15.391825   15.391825

siesta: Sum along cartesian directions (Debye): 
siesta:    26.081430   39.122145   39.122145

obc: Macroscopic polarization for spin Up:

obc: Macroscopic polarization per unit cell along the lattice vectors (Bohr): 
obc:   10.883664    3.627888    3.627888

obc: Macroscopic polarization for spin Down:

obc: Macroscopic polarization per unit cell along the lattice vectors (Bohr): 
obc:    3.627888    3.627888    3.627888

                     ====================================
                        Begin FC step =      1
                         displace atom 1
                         in direction 1 by -0.021167 Ang
                     ====================================

outcoor: Atomic coordinates (fractional):                   
    0.00389817   -0.00389817   -0.00389817   1       1  Si
    0.25000000    0.25000000    0.25000000   1       2  Si

superc: Internal auxiliary supercell:     5 x     5 x     5  =     125
superc: Number of atoms, orbitals, and projectors:    250   1000   2250

outcell: Unit cell vectors (Ang):
        0.000000    2.715000    2.715000
        2.715000    0.000000    2.715000
        2.715000    2.715000    0.000000

outcell: Cell vector modules (Ang)   :    3.839590    3.839590    3.839590
outcell: Cell angles (23,13,12) (deg):     60.0000     60.0000     60.0000
outcell: Cell volume (Ang**3)        :     40.0258
New_DM. Step:     2
Re-using DM from previous geometry...
Re-using DM without extrapolation for lack of history
     spin moment: S , {S} =   -0.00000       0.0       0.0  -0.00000
New grid distribution:   1
           1       1:   12    1:    6    1:    3
           2       1:   12    1:    6    4:    6
           3       1:   12    1:    6    7:    9
           4       1:   12    1:    6   10:   12
           5       1:   12    7:   12    1:    3
           6       1:   12    7:   12    4:    6
           7       1:   12    7:   12    7:    9
           8       1:   12    7:   12   10:   12

InitMesh: MESH =    24 x    24 x    24 =       13824
InitMesh: (bp) =    12 x    12 x    12 =        1728
InitMesh: Mesh cutoff (required, used) =   130.000   161.974 Ry
ExtMesh (bp) on 0 =    64 x    58 x    55 =      204160
New grid distribution:   2
           1       1:    7    1:    6    1:    6
           2       7:   12    7:   12    1:    6
           3       1:    6    1:    6    7:   12
           4       8:   12    1:    6    1:    6
           5       7:   12    1:    6    7:   12
           6       1:    6    7:   12    1:    6
           7       1:    7    7:   12    7:   12
           8       8:   12    7:   12    7:   12
New grid distribution:   3
           1       1:    6    7:   12    7:   12
           2       7:   12    1:    6    1:    6
           3       7:   12    1:    6    7:   12
           4       7:   12    7:   12    1:    6
           5       1:    6    1:    6    7:   12
           6       1:    6    1:    6    1:    6
           7       7:   12    7:   12    7:   12
           8       1:    6    7:   12    1:    6
Setting up quadratic distribution...
ExtMesh (bp) on 0 =    59 x    58 x    58 =      198476
PhiOnMesh: Number of (b)points on node 0 =                  252
PhiOnMesh: nlist on node 0 =                 6708

   scf: iscf   Eharris(eV)      E_KS(eV)   FreeEng(eV)    dDmax  Ef(eV)
   scf:    1     -194.6905     -194.6975     -194.6975  0.00953 -1.3493
     spin moment: S , {S} =   -0.00000       0.0       0.0  -0.00000
   scf:    2     -194.6893     -194.6893     -194.6893  0.00050 -1.3491
     spin moment: S , {S} =    0.00000       0.0       0.0   0.00000
   scf:    3     -194.6893     -194.6893     -194.6893  0.00009 -1.3491
     spin moment: S , {S} =    0.00000       0.0       0.0   0.00000

SCF Convergence by dMax criterion
max |DM_out - DM_in|:     0.00009076
SCF cycle converged after    3 iterations

Using DM_out to compute the final energy and forces

siesta: E_KS(eV) =             -194.6893
     spin moment: S , {S} =    0.00000       0.0       0.0   0.00000

siesta: Atomic forces (eV/Ang):
     1    0.785481   -0.000000   -0.000000
     2   -0.795907    0.000000    0.000000
----------------------------------------
   Tot   -0.010426   -0.000000   -0.000000
----------------------------------------
   Max    0.795907
   Res    0.456517    sqrt( Sum f_i^2 / 3N )
----------------------------------------
   Max    0.795907    constrained

Stress-tensor-Voigt (kbar):     -518.03     -518.41     -518.41       -0.00       23.81       -0.00
(Free)E + p*V (eV/cell)     -181.7416
Target enthalpy (eV/cell)     -194.6893

mulliken: Atomic and Orbital Populations:

mulliken: Spin UP 

Species: Si                  
Atom  Qatom  Qorb
               3s      3py     3pz     3px     
   1  2.000   0.500   0.500   0.500   0.500
   2  2.000   0.500   0.500   0.500   0.500

mulliken: Qtot =        4.000

mulliken: Spin DOWN 

Species: Si                  
Atom  Qatom  Qorb
               3s      3py     3pz     3px     
   1  2.000   0.500   0.500   0.500   0.500
   2  2.000   0.500   0.500   0.500   0.500

mulliken: Qtot =        4.000

                     ====================================
                        Begin FC step =      2
                         displace atom 1
                         in direction 1 by  0.021167 Ang
                     ====================================

outcoor: Atomic coordinates (fractional):                   
   -0.00389817    0.00389817    0.00389817   1       1  Si
    0.25000000    0.25000000    0.25000000   1       2  Si

superc: Internal auxiliary supercell:     5 x     5 x     5  =     125
superc: Number of atoms, orbitals, and projectors:    250   1000   2250

outcell: Unit cell vectors (Ang):
        0.000000    2.715000    2.715000
        2.715000    0.000000    2.715000
        2.715000    2.715000    0.000000

outcell: Cell vector modules (Ang)   :    3.839590    3.839590    3.839590
outcell: Cell angles (23,13,12) (deg):     60.0000     60.0000     60.0000
outcell: Cell volume (Ang**3)        :     40.0258
New_DM. Step:     3
Re-using DM from previous geometry...
Extrapolating Density Matrix...
     spin moment: S , {S} =    0.00000       0.0       0.0   0.00000
New grid distribution:   1
           1       1:   12    1:    6    1:    3
           2       1:   12    1:    6    4:    6
           3       1:   12    1:    6    7:    9
           4       1:   12    1:    6   10:   12
           5       1:   12    7:   12    1:    3
           6       1:   12    7:   12    4:    6
           7       1:   12    7:   12    7:    9
           8       1:   12    7:   12   10:   12

InitMesh: MESH =    24 x    24 x    24 =       13824
InitMesh: (bp) =    12 x    12 x    12 =        1728
InitMesh: Mesh cutoff (required, used) =   130.000   161.974 Ry
ExtMesh (bp) on 0 =    64 x    58 x    55 =      204160
New grid distribution:   2
           1       1:    7    1:    6    1:    6
           2       7:   12    7:   12    1:    6
           3       1:    6    1:    6    7:   12
           4       8:   12    1:    6    1:    6
           5       7:   12    1:    6    7:   12
           6       1:    6    7:   12    1:    6
           7       1:    7    7:   12    7:   12
           8       8:   12    7:   12    7:   12
New grid distribution:   3
           1       1:    6    7:   12    7:   12
           2       7:   12    1:    6    1:    6
           3       7:   12    1:    6    7:   12
           4       7:   12    7:   12    1:    6
           5       1:    6    1:    6    7:   12
           6       1:    6    1:    6    1:    6
           7       7:   12    7:   12    7:   12
           8       1:    6    7:   12    1:    6
Setting up quadratic distribution...
ExtMesh (bp) on 0 =    59 x    58 x    58 =      198476
PhiOnMesh: Number of (b)points on node 0 =                  252
PhiOnMesh: nlist on node 0 =                 6724

   scf: iscf   Eharris(eV)      E_KS(eV)   FreeEng(eV)    dDmax  Ef(eV)
   scf:    1     -194.7003     -194.6915     -194.6915  0.02861 -1.3436
     spin moment: S , {S} =    0.00000       0.0       0.0   0.00000
   scf:    2     -194.6893     -194.6893     -194.6893  0.00229 -1.3491
     spin moment: S , {S} =    0.00000       0.0       0.0   0.00000
   scf:    3     -194.6893     -194.6893     -194.6893  0.00038 -1.3491
     spin moment: S , {S} =    0.00000       0.0       0.0   0.00000
   scf:    4     -194.6893     -194.6893     -194.6893  0.00006 -1.3491
     spin moment: S , {S} =    0.00000       0.0       0.0   0.00000

SCF Convergence by dMax criterion
max |DM_out - DM_in|:     0.00006356
SCF cycle converged after    4 iterations

Using DM_out to compute the final energy and forces

siesta: E_KS(eV) =             -194.6893
     spin moment: S , {S} =    0.00000       0.0       0.0   0.00000

siesta: Atomic forces (eV/Ang):
     1   -0.785481   -0.000000   -0.000000
     2    0.795907    0.000000    0.000000
----------------------------------------
   Tot    0.010426    0.000000    0.000000
----------------------------------------
   Max    0.795907
   Res    0.456517    sqrt( Sum f_i^2 / 3N )
----------------------------------------
   Max    0.795907    constrained

Stress-tensor-Voigt (kbar):     -518.03     -518.41     -518.41       -0.00      -23.81       -0.00
(Free)E + p*V (eV/cell)     -181.7416
Target enthalpy (eV/cell)     -194.6893

mulliken: Atomic and Orbital Populations:

mulliken: Spin UP 

Species: Si                  
Atom  Qatom  Qorb
               3s      3py     3pz     3px     
   1  2.000   0.500   0.500   0.500   0.500
   2  2.000   0.500   0.500   0.500   0.500

mulliken: Qtot =        4.000

mulliken: Spin DOWN 

Species: Si                  
Atom  Qatom  Qorb
               3s      3py     3pz     3px     
   1  2.000   0.500   0.500   0.500   0.500
   2  2.000   0.500   0.500   0.500   0.500

mulliken: Qtot =        4.000

siesta: Calculating polarization. 

siesta: Macroscopic polarization for spin Up:

siesta: Macroscopic polarization per unit cell (a.u.):
siesta: Along the lattice vectors      3.627948   10.883622   10.883622
siesta: Along cartesian directions    15.391765   10.261229   10.261229

siesta: Macroscopic polarization per unit cell (Debye):
siesta: Along the lattice vectors      9.221331   27.663426   27.663426
siesta: Along cartesian directions    39.121992   26.081461   26.081461

siesta: Macroscopic polarization for spin Down:

siesta: Macroscopic polarization per unit cell (a.u.):
siesta: Along the lattice vectors      3.627948   10.883622   10.883622
siesta: Along cartesian directions    15.391765   10.261229   10.261229

siesta: Macroscopic polarization per unit cell (Debye):
siesta: Along the lattice vectors      9.221331   27.663426   27.663426
siesta: Along cartesian directions    39.121992   26.081461   26.081461

siesta: Sum along cartesian directions (a.u.): 
siesta:    30.783531   20.522459   20.522459

siesta: Sum along cartesian directions (Debye): 
siesta:    78.243984   52.162923   52.162923

obc: Macroscopic polarization for spin Up:

obc: Macroscopic polarization per unit cell along the lattice vectors (Bohr): 
obc:    3.627948   10.883622   10.883622

obc: Macroscopic polarization for spin Down:

obc: Macroscopic polarization per unit cell along the lattice vectors (Bohr): 
obc:    3.627948   10.883622   10.883622

                     ====================================
                        Begin FC step =      3
                         displace atom 1
                         in direction 2 by -0.021167 Ang
                     ====================================

outcoor: Atomic coordinates (fractional):                   
   -0.00389817    0.00389817   -0.00389817   1       1  Si
    0.25000000    0.25000000    0.25000000   1       2  Si

superc: Internal auxiliary supercell:     5 x     5 x     5  =     125
superc: Number of atoms, orbitals, and projectors:    250   1000   2250

outcell: Unit cell vectors (Ang):
        0.000000    2.715000    2.715000
        2.715000    0.000000    2.715000
        2.715000    2.715000    0.000000

outcell: Cell vector modules (Ang)   :    3.839590    3.839590    3.839590
outcell: Cell angles (23,13,12) (deg):     60.0000     60.0000     60.0000
outcell: Cell volume (Ang**3)        :     40.0258
New_DM. Step:     4
Re-using DM from previous geometry...
Extrapolating Density Matrix...
     spin moment: S , {S} =    0.00000       0.0       0.0   0.00000
New grid distribution:   1
           1       1:   12    1:    6    1:    3
           2       1:   12    1:    6    4:    6
           3       1:   12    1:    6    7:    9
           4       1:   12    1:    6   10:   12
           5       1:   12    7:   12    1:    3
           6       1:   12    7:   12    4:    6
           7       1:   12    7:   12    7:    9
           8       1:   12    7:   12   10:   12

InitMesh: MESH =    24 x    24 x    24 =       13824
InitMesh: (bp) =    12 x    12 x    12 =        1728
InitMesh: Mesh cutoff (required, used) =   130.000   161.974 Ry
ExtMesh (bp) on 0 =    64 x    58 x    55 =      204160
New grid distribution:   2
           1       1:    7    1:    6    1:    6
           2       7:   12    7:   12    1:    6
           3       1:    6    1:    6    7:   12
           4       8:   12    1:    6    1:    6
           5       7:   12    1:    6    7:   12
           6       1:    6    7:   12    1:    6
           7       1:    7    7:   12    7:   12
           8       8:   12    7:   12    7:   12
New grid distribution:   3
           1       1:    6    7:   12    7:   12
           2       7:   12    1:    6    1:    6
           3       7:   12    1:    6    7:   12
           4       7:   12    7:   12    1:    6
           5       1:    6    1:    6    7:   12
           6       1:    6    1:    6    1:    6
           7       7:   12    7:   12    7:   12
           8       1:    6    7:   12    1:    6
Setting up quadratic distribution...
ExtMesh (bp) on 0 =    59 x    58 x    58 =      198476
PhiOnMesh: Number of (b)points on node 0 =                  252
PhiOnMesh: nlist on node 0 =                 6713

   scf: iscf   Eharris(eV)      E_KS(eV)   FreeEng(eV)    dDmax  Ef(eV)
   scf:    1     -194.7016     -194.6827     -194.6827  0.02861 -1.3404
     spin moment: S , {S} =    0.00000       0.0       0.0   0.00000
   scf:    2     -194.6893     -194.6893     -194.6893  0.00091 -1.3491
     spin moment: S , {S} =    0.00000       0.0       0.0   0.00000
   scf:    3     -194.6893     -194.6893     -194.6893  0.00019 -1.3491
     spin moment: S , {S} =   -0.00000       0.0       0.0  -0.00000
   scf:    4     -194.6893     -194.6893     -194.6893  0.00006 -1.3491
     spin moment: S , {S} =    0.00000       0.0       0.0   0.00000

SCF Convergence by dMax criterion
max |DM_out - DM_in|:     0.00006080
SCF cycle converged after    4 iterations

Using DM_out to compute the final energy and forces

siesta: E_KS(eV) =             -194.6893
     spin moment: S , {S} =    0.00000       0.0       0.0   0.00000

siesta: Atomic forces (eV/Ang):
     1   -0.000000    0.785481   -0.000000
     2    0.000000   -0.795907    0.000000
----------------------------------------
   Tot   -0.000000   -0.010426   -0.000000
----------------------------------------
   Max    0.795907
   Res    0.456517    sqrt( Sum f_i^2 / 3N )
----------------------------------------
   Max    0.795907    constrained

Stress-tensor-Voigt (kbar):     -518.41     -518.03     -518.41       -0.00       -0.00       23.81
(Free)E + p*V (eV/cell)     -181.7416
Target enthalpy (eV/cell)     -194.6893

mulliken: Atomic and Orbital Populations:

mulliken: Spin UP 

Species: Si                  
Atom  Qatom  Qorb
               3s      3py     3pz     3px     
   1  2.000   0.500   0.500   0.500   0.500
   2  2.000   0.500   0.500   0.500   0.500

mulliken: Qtot =        4.000

mulliken: Spin DOWN 

Species: Si                  
Atom  Qatom  Qorb
               3s      3py     3pz     3px     
   1  2.000   0.500   0.500   0.500   0.500
   2  2.000   0.500   0.500   0.500   0.500

mulliken: Qtot =        4.000

                     ====================================
                        Begin FC step =      4
                         displace atom 1
                         in direction 2 by  0.021167 Ang
                     ====================================

outcoor: Atomic coordinates (fractional):                   
    0.00389817   -0.00389817    0.00389817   1       1  Si
    0.25000000    0.25000000    0.25000000   1       2  Si

superc: Internal auxiliary supercell:     5 x     5 x     5  =     125
superc: Number of atoms, orbitals, and projectors:    250   1000   2250

outcell: Unit cell vectors (Ang):
        0.000000    2.715000    2.715000
        2.715000    0.000000    2.715000
        2.715000    2.715000    0.000000

outcell: Cell vector modules (Ang)   :    3.839590    3.839590    3.839590
outcell: Cell angles (23,13,12) (deg):     60.0000     60.0000     60.0000
outcell: Cell volume (Ang**3)        :     40.0258
New_DM. Step:     5
Re-using DM from previous geometry...
Extrapolating Density Matrix...
     spin moment: S , {S} =   -0.00000       0.0       0.0  -0.00000
New grid distribution:   1
           1       1:   12    1:    6    1:    3
           2       1:   12    1:    6    4:    6
           3       1:   12    1:    6    7:    9
           4       1:   12    1:    6   10:   12
           5       1:   12    7:   12    1:    3
           6       1:   12    7:   12    4:    6
           7       1:   12    7:   12    7:    9
           8       1:   12    7:   12   10:   12

InitMesh: MESH =    24 x    24 x    24 =       13824
InitMesh: (bp) =    12 x    12 x    12 =        1728
InitMesh: Mesh cutoff (required, used) =   130.000   161.974 Ry
ExtMesh (bp) on 0 =    64 x    58 x    55 =      204160
New grid distribution:   2
           1       1:    7    1:    6    1:    6
           2       7:   12    7:   12    1:    6
           3       1:    6    1:    6    7:   12
           4       8:   12    1:    6    1:    6
           5       7:   12    1:    6    7:   12
           6       1:    6    7:   12    1:    6
           7       1:    7    7:   12    7:   12
           8       8:   12    7:   12    7:   12
New grid distribution:   3
           1       1:    6    7:   12    7:   12
           2       7:   12    1:    6    1:    6
           3       7:   12    1:    6    7:   12
           4       7:   12    7:   12    1:    6
           5       1:    6    1:    6    7:   12
           6       1:    6    1:    6    1:    6
           7       7:   12    7:   12    7:   12
           8       1:    6    7:   12    1:    6
Setting up quadratic distribution...
ExtMesh (bp) on 0 =    59 x    58 x    58 =      198476
PhiOnMesh: Number of (b)points on node 0 =                  252
PhiOnMesh: nlist on node 0 =                 6720

   scf: iscf   Eharris(eV)      E_KS(eV)   FreeEng(eV)    dDmax  Ef(eV)
   scf:    1     -194.7016     -194.6940     -194.6940  0.02859 -1.3427
     spin moment: S , {S} =    0.00000       0.0       0.0   0.00000
   scf:    2     -194.6893     -194.6893     -194.6893  0.00032 -1.3491
     spin moment: S , {S} =   -0.00000       0.0       0.0  -0.00000
   scf:    3     -194.6893     -194.6893     -194.6893  0.00007 -1.3491
     spin moment: S , {S} =    0.00000       0.0       0.0   0.00000

SCF Convergence by dMax criterion
max |DM_out - DM_in|:     0.00006849
SCF cycle converged after    3 iterations

Using DM_out to compute the final energy and forces

siesta: E_KS(eV) =             -194.6893
     spin moment: S , {S} =    0.00000       0.0       0.0   0.00000

siesta: Atomic forces (eV/Ang):
     1   -0.000000   -0.785482    0.000000
     2    0.000000    0.795907    0.000000
----------------------------------------
   Tot   -0.000000    0.010425    0.000000
----------------------------------------
   Max    0.795907
   Res    0.456518    sqrt( Sum f_i^2 / 3N )
----------------------------------------
   Max    0.795907    constrained

Stress-tensor-Voigt (kbar):     -518.41     -518.03     -518.41       -0.00       -0.00      -23.81
(Free)E + p*V (eV/cell)     -181.7416
Target enthalpy (eV/cell)     -194.6893

mulliken: Atomic and Orbital Populations:

mulliken: Spin UP 

Species: Si                  
Atom  Qatom  Qorb
               3s      3py     3pz     3px     
   1  2.000   0.500   0.500   0.500   0.500
   2  2.000   0.500   0.500   0.500   0.500

mulliken: Qtot =        4.000

mulliken: Spin DOWN 

Species: Si                  
Atom  Qatom  Qorb
               3s      3py     3pz     3px     
   1  2.000   0.500   0.500   0.500   0.500
   2  2.000   0.500   0.500   0.500   0.500

mulliken: Qtot =        4.000

siesta: Calculating polarization. 

siesta: Macroscopic polarization for spin Up:

siesta: Macroscopic polarization per unit cell (a.u.):
siesta: Along the lattice vectors     10.883621    3.627948   10.883620
siesta: Along cartesian directions    10.261228   15.391764   10.261229

siesta: Macroscopic polarization per unit cell (Debye):
siesta: Along the lattice vectors     27.663423    9.221331   27.663422
siesta: Along cartesian directions    26.081459   39.121988   26.081460

siesta: Macroscopic polarization for spin Down:

siesta: Macroscopic polarization per unit cell (a.u.):
siesta: Along the lattice vectors     10.883621    3.627948   10.883620
siesta: Along cartesian directions    10.261228   15.391764   10.261229

siesta: Macroscopic polarization per unit cell (Debye):
siesta: Along the lattice vectors     27.663423    9.221331   27.663422
siesta: Along cartesian directions    26.081459   39.121988   26.081460

siesta: Sum along cartesian directions (a.u.): 
siesta:    20.522457   30.783527   20.522458

siesta: Sum along cartesian directions (Debye): 
siesta:    52.162918   78.243975   52.162920

obc: Macroscopic polarization for spin Up:

obc: Macroscopic polarization per unit cell along the lattice vectors (Bohr): 
obc:   10.883621    3.627948   10.883620

obc: Macroscopic polarization for spin Down:

obc: Macroscopic polarization per unit cell along the lattice vectors (Bohr): 
obc:   10.883621    3.627948   10.883620

                     ====================================
                        Begin FC step =      5
                         displace atom 1
                         in direction 3 by -0.021167 Ang
                     ====================================

outcoor: Atomic coordinates (fractional):                   
   -0.00389817   -0.00389817    0.00389817   1       1  Si
    0.25000000    0.25000000    0.25000000   1       2  Si

superc: Internal auxiliary supercell:     5 x     5 x     5  =     125
superc: Number of atoms, orbitals, and projectors:    250   1000   2250

outcell: Unit cell vectors (Ang):
        0.000000    2.715000    2.715000
        2.715000    0.000000    2.715000
        2.715000    2.715000    0.000000

outcell: Cell vector modules (Ang)   :    3.839590    3.839590    3.839590
outcell: Cell angles (23,13,12) (deg):     60.0000     60.0000     60.0000
outcell: Cell volume (Ang**3)        :     40.0258
New_DM. Step:     6
Re-using DM from previous geometry...
Extrapolating Density Matrix...
     spin moment: S , {S} =    0.00000       0.0       0.0   0.00000
New grid distribution:   1
           1       1:   12    1:    6    1:    3
           2       1:   12    1:    6    4:    6
           3       1:   12    1:    6    7:    9
           4       1:   12    1:    6   10:   12
           5       1:   12    7:   12    1:    3
           6       1:   12    7:   12    4:    6
           7       1:   12    7:   12    7:    9
           8       1:   12    7:   12   10:   12

InitMesh: MESH =    24 x    24 x    24 =       13824
InitMesh: (bp) =    12 x    12 x    12 =        1728
InitMesh: Mesh cutoff (required, used) =   130.000   161.974 Ry
ExtMesh (bp) on 0 =    64 x    58 x    55 =      204160
New grid distribution:   2
           1       1:    7    1:    6    1:    6
           2       7:   12    7:   12    1:    6
           3       1:    6    1:    6    7:   12
           4       8:   12    1:    6    1:    6
           5       7:   12    1:    6    7:   12
           6       1:    6    7:   12    1:    6
           7       1:    7    7:   12    7:   12
           8       8:   12    7:   12    7:   12
New grid distribution:   3
           1       1:    6    7:   12    7:   12
           2       7:   12    1:    6    1:    6
           3       7:   12    1:    6    7:   12
           4       7:   12    7:   12    1:    6
           5       1:    6    1:    6    7:   12
           6       1:    6    1:    6    1:    6
           7       7:   12    7:   12    7:   12
           8       1:    6    7:   12    1:    6
Setting up quadratic distribution...
ExtMesh (bp) on 0 =    59 x    58 x    58 =      198476
PhiOnMesh: Number of (b)points on node 0 =                  252
PhiOnMesh: nlist on node 0 =                 6713

   scf: iscf   Eharris(eV)      E_KS(eV)   FreeEng(eV)    dDmax  Ef(eV)
   scf:    1     -194.7016     -194.6827     -194.6827  0.02862 -1.3404
     spin moment: S , {S} =    0.00000       0.0       0.0   0.00000
   scf:    2     -194.6893     -194.6893     -194.6893  0.00121 -1.3491
     spin moment: S , {S} =    0.00000       0.0       0.0   0.00000
   scf:    3     -194.6893     -194.6893     -194.6893  0.00023 -1.3491
     spin moment: S , {S} =    0.00000       0.0       0.0   0.00000
   scf:    4     -194.6893     -194.6893     -194.6893  0.00008 -1.3491
     spin moment: S , {S} =    0.00000       0.0       0.0   0.00000

SCF Convergence by dMax criterion
max |DM_out - DM_in|:     0.00007784
SCF cycle converged after    4 iterations

Using DM_out to compute the final energy and forces

siesta: E_KS(eV) =             -194.6893
     spin moment: S , {S} =    0.00000       0.0       0.0   0.00000

siesta: Atomic forces (eV/Ang):
     1   -0.000000   -0.000000    0.785481
     2    0.000000    0.000000   -0.795907
----------------------------------------
   Tot   -0.000000   -0.000000   -0.010426
----------------------------------------
   Max    0.795907
   Res    0.456517    sqrt( Sum f_i^2 / 3N )
----------------------------------------
   Max    0.795907    constrained

Stress-tensor-Voigt (kbar):     -518.41     -518.41     -518.03       23.81       -0.00       -0.00
(Free)E + p*V (eV/cell)     -181.7416
Target enthalpy (eV/cell)     -194.6893

mulliken: Atomic and Orbital Populations:

mulliken: Spin UP 

Species: Si                  
Atom  Qatom  Qorb
               3s      3py     3pz     3px     
   1  2.000   0.500   0.500   0.500   0.500
   2  2.000   0.500   0.500   0.500   0.500

mulliken: Qtot =        4.000

mulliken: Spin DOWN 

Species: Si                  
Atom  Qatom  Qorb
               3s      3py     3pz     3px     
   1  2.000   0.500   0.500   0.500   0.500
   2  2.000   0.500   0.500   0.500   0.500

mulliken: Qtot =        4.000

                     ====================================
                        Begin FC step =      6
                         displace atom 1
                         in direction 3 by  0.021167 Ang
                     ====================================

outcoor: Atomic coordinates (fractional):                   
    0.00389817    0.00389817   -0.00389817   1       1  Si
    0.25000000    0.25000000    0.25000000   1       2  Si

superc: Internal auxiliary supercell:     5 x     5 x     5  =     125
superc: Number of atoms, orbitals, and projectors:    250   1000   2250

outcell: Unit cell vectors (Ang):
        0.000000    2.715000    2.715000
        2.715000    0.000000    2.715000
        2.715000    2.715000    0.000000

outcell: Cell vector modules (Ang)   :    3.839590    3.839590    3.839590
outcell: Cell angles (23,13,12) (deg):     60.0000     60.0000     60.0000
outcell: Cell volume (Ang**3)        :     40.0258
New_DM. Step:     7
Re-using DM from previous geometry...
Extrapolating Density Matrix...
     spin moment: S , {S} =    0.00000       0.0       0.0   0.00000
New grid distribution:   1
           1       1:   12    1:    6    1:    3
           2       1:   12    1:    6    4:    6
           3       1:   12    1:    6    7:    9
           4       1:   12    1:    6   10:   12
           5       1:   12    7:   12    1:    3
           6       1:   12    7:   12    4:    6
           7       1:   12    7:   12    7:    9
           8       1:   12    7:   12   10:   12

InitMesh: MESH =    24 x    24 x    24 =       13824
InitMesh: (bp) =    12 x    12 x    12 =        1728
InitMesh: Mesh cutoff (required, used) =   130.000   161.974 Ry
ExtMesh (bp) on 0 =    64 x    58 x    55 =      204160
New grid distribution:   2
           1       1:    7    1:    6    1:    6
           2       7:   12    7:   12    1:    6
           3       1:    6    1:    6    7:   12
           4       8:   12    1:    6    1:    6
           5       7:   12    1:    6    7:   12
           6       1:    6    7:   12    1:    6
           7       1:    7    7:   12    7:   12
           8       8:   12    7:   12    7:   12
New grid distribution:   3
           1       1:    6    7:   12    7:   12
           2       7:   12    1:    6    1:    6
           3       7:   12    1:    6    7:   12
           4       7:   12    7:   12    1:    6
           5       1:    6    1:    6    7:   12
           6       1:    6    1:    6    1:    6
           7       7:   12    7:   12    7:   12
           8       1:    6    7:   12    1:    6
Setting up quadratic distribution...
ExtMesh (bp) on 0 =    59 x    58 x    58 =      198476
PhiOnMesh: Number of (b)points on node 0 =                  252
PhiOnMesh: nlist on node 0 =                 6720

   scf: iscf   Eharris(eV)      E_KS(eV)   FreeEng(eV)    dDmax  Ef(eV)
   scf:    1     -194.7016     -194.6940     -194.6940  0.02860 -1.3427
     spin moment: S , {S} =   -0.00000       0.0       0.0  -0.00000
   scf:    2     -194.6893     -194.6893     -194.6893  0.00016 -1.3491
     spin moment: S , {S} =   -0.00000       0.0       0.0  -0.00000
   scf:    3     -194.6893     -194.6893     -194.6893  0.00004 -1.3491
     spin moment: S , {S} =    0.00000       0.0       0.0   0.00000

SCF Convergence by dMax criterion
max |DM_out - DM_in|:     0.00003503
SCF cycle converged after    3 iterations

Using DM_out to compute the final energy and forces

siesta: E_KS(eV) =             -194.6893
     spin moment: S , {S} =    0.00000       0.0       0.0   0.00000

siesta: Atomic forces (eV/Ang):
     1   -0.000000   -0.000000   -0.785482
     2    0.000000    0.000000    0.795907
----------------------------------------
   Tot    0.000000   -0.000000    0.010425
----------------------------------------
   Max    0.795907
   Res    0.456518    sqrt( Sum f_i^2 / 3N )
----------------------------------------
   Max    0.795907    constrained

Stress-tensor-Voigt (kbar):     -518.41     -518.41     -518.03      -23.81       -0.00       -0.00
(Free)E + p*V (eV/cell)     -181.7416
Target enthalpy (eV/cell)     -194.6893

mulliken: Atomic and Orbital Populations:

mulliken: Spin UP 

Species: Si                  
Atom  Qatom  Qorb
               3s      3py     3pz     3px     
   1  2.000   0.500   0.500   0.500   0.500
   2  2.000   0.500   0.500   0.500   0.500

mulliken: Qtot =        4.000

mulliken: Spin DOWN 

Species: Si                  
Atom  Qatom  Qorb
               3s      3py     3pz     3px     
   1  2.000   0.500   0.500   0.500   0.500
   2  2.000   0.500   0.500   0.500   0.500

mulliken: Qtot =        4.000

siesta: Calculating polarization. 

siesta: Macroscopic polarization for spin Up:

siesta: Macroscopic polarization per unit cell (a.u.):
siesta: Along the lattice vectors     10.883623   10.883624    3.627943
siesta: Along cartesian directions    10.261227   10.261227   15.391768

siesta: Macroscopic polarization per unit cell (Debye):
siesta: Along the lattice vectors     27.663430   27.663431    9.221317
siesta: Along cartesian directions    26.081456   26.081455   39.121999

siesta: Macroscopic polarization for spin Down:

siesta: Macroscopic polarization per unit cell (a.u.):
siesta: Along the lattice vectors     10.883623   10.883624    3.627943
siesta: Along cartesian directions    10.261227   10.261227   15.391768

siesta: Macroscopic polarization per unit cell (Debye):
siesta: Along the lattice vectors     27.663430   27.663431    9.221317
siesta: Along cartesian directions    26.081456   26.081455   39.121999

siesta: Sum along cartesian directions (a.u.): 
siesta:    20.522454   20.522454   30.783536

siesta: Sum along cartesian directions (Debye): 
siesta:    52.162912   52.162911   78.243998

obc: Macroscopic polarization for spin Up:

obc: Macroscopic polarization per unit cell along the lattice vectors (Bohr): 
obc:   10.883623   10.883624    3.627943

obc: Macroscopic polarization for spin Down:

obc: Macroscopic polarization per unit cell along the lattice vectors (Bohr): 
obc:   10.883623   10.883624    3.627943

                     ====================================
                        Begin FC step =      7
                         displace atom 2
                         in direction 1 by -0.021167 Ang
                     ====================================

outcoor: Atomic coordinates (fractional):                   
    0.00000000    0.00000000    0.00000000   1       1  Si
    0.25389817    0.24610183    0.24610183   1       2  Si

superc: Internal auxiliary supercell:     5 x     5 x     5  =     125
superc: Number of atoms, orbitals, and projectors:    250   1000   2250

outcell: Unit cell vectors (Ang):
        0.000000    2.715000    2.715000
        2.715000    0.000000    2.715000
        2.715000    2.715000    0.000000

outcell: Cell vector modules (Ang)   :    3.839590    3.839590    3.839590
outcell: Cell angles (23,13,12) (deg):     60.0000     60.0000     60.0000
outcell: Cell volume (Ang**3)        :     40.0258
New_DM. Step:     8
Re-using DM from previous geometry...
Extrapolating Density Matrix...
     spin moment: S , {S} =    0.00000       0.0       0.0   0.00000
New grid distribution:   1
           1       1:   12    1:    6    1:    3
           2       1:   12    1:    6    4:    6
           3       1:   12    1:    6    7:    9
           4       1:   12    1:    6   10:   12
           5       1:   12    7:   12    1:    3
           6       1:   12    7:   12    4:    6
           7       1:   12    7:   12    7:    9
           8       1:   12    7:   12   10:   12

InitMesh: MESH =    24 x    24 x    24 =       13824
InitMesh: (bp) =    12 x    12 x    12 =        1728
InitMesh: Mesh cutoff (required, used) =   130.000   161.974 Ry
ExtMesh (bp) on 0 =    64 x    58 x    55 =      204160
New grid distribution:   2
           1       1:    7    1:    6    1:    6
           2       7:   12    7:   12    1:    6
           3       1:    6    1:    6    7:   12
           4       8:   12    1:    6    1:    6
           5       7:   12    1:    6    7:   12
           6       1:    6    7:   12    1:    6
           7       1:    7    7:   12    7:   12
           8       8:   12    7:   12    7:   12
New grid distribution:   3
           1       1:    6    7:   12    7:   12
           2       7:   12    1:    6    1:    6
           3       7:   12    1:    6    7:   12
           4       7:   12    7:   12    1:    6
           5       1:    6    1:    6    7:   12
           6       1:    6    1:    6    1:    6
           7       7:   12    7:   12    7:   12
           8       1:    6    7:   12    1:    6
Setting up quadratic distribution...
ExtMesh (bp) on 0 =    59 x    58 x    58 =      198476
PhiOnMesh: Number of (b)points on node 0 =                  252
PhiOnMesh: nlist on node 0 =                 6721

   scf: iscf   Eharris(eV)      E_KS(eV)   FreeEng(eV)    dDmax  Ef(eV)
   scf:    1     -194.7016     -194.6827     -194.6827  0.02865 -1.3404
     spin moment: S , {S} =    0.00000       0.0       0.0   0.00000
   scf:    2     -194.6893     -194.6893     -194.6893  0.00018 -1.3491
     spin moment: S , {S} =   -0.00000       0.0       0.0  -0.00000
   scf:    3     -194.6893     -194.6893     -194.6893  0.00010 -1.3491
     spin moment: S , {S} =    0.00000       0.0       0.0   0.00000

SCF Convergence by dMax criterion
max |DM_out - DM_in|:     0.00009528
SCF cycle converged after    3 iterations

Using DM_out to compute the final energy and forces

siesta: E_KS(eV) =             -194.6893
     spin moment: S , {S} =    0.00000       0.0       0.0   0.00000

siesta: Atomic forces (eV/Ang):
     1   -0.795907   -0.000000   -0.000000
     2    0.785481    0.000000    0.000000
----------------------------------------
   Tot   -0.010426   -0.000000    0.000000
----------------------------------------
   Max    0.795907
   Res    0.456517    sqrt( Sum f_i^2 / 3N )
----------------------------------------
   Max    0.795907    constrained

Stress-tensor-Voigt (kbar):     -518.03     -518.41     -518.41       -0.00      -23.81       -0.00
(Free)E + p*V (eV/cell)     -181.7416
Target enthalpy (eV/cell)     -194.6893

mulliken: Atomic and Orbital Populations:

mulliken: Spin UP 

Species: Si                  
Atom  Qatom  Qorb
               3s      3py     3pz     3px     
   1  2.000   0.500   0.500   0.500   0.500
   2  2.000   0.500   0.500   0.500   0.500

mulliken: Qtot =        4.000

mulliken: Spin DOWN 

Species: Si                  
Atom  Qatom  Qorb
               3s      3py     3pz     3px     
   1  2.000   0.500   0.500   0.500   0.500
   2  2.000   0.500   0.500   0.500   0.500

mulliken: Qtot =        4.000

                     ====================================
                        Begin FC step =      8
                         displace atom 2
                         in direction 1 by  0.021167 Ang
                     ====================================

outcoor: Atomic coordinates (fractional):                   
    0.00000000    0.00000000    0.00000000   1       1  Si
    0.24610183    0.25389817    0.25389817   1       2  Si

superc: Internal auxiliary supercell:     5 x     5 x     5  =     125
superc: Number of atoms, orbitals, and projectors:    250   1000   2250

outcell: Unit cell vectors (Ang):
        0.000000    2.715000    2.715000
        2.715000    0.000000    2.715000
        2.715000    2.715000    0.000000

outcell: Cell vector modules (Ang)   :    3.839590    3.839590    3.839590
outcell: Cell angles (23,13,12) (deg):     60.0000     60.0000     60.0000
outcell: Cell volume (Ang**3)        :     40.0258
New_DM. Step:     9
Re-using DM from previous geometry...
Extrapolating Density Matrix...
     spin moment: S , {S} =    0.00000       0.0       0.0   0.00000
New grid distribution:   1
           1       1:   12    1:    6    1:    3
           2       1:   12    1:    6    4:    6
           3       1:   12    1:    6    7:    9
           4       1:   12    1:    6   10:   12
           5       1:   12    7:   12    1:    3
           6       1:   12    7:   12    4:    6
           7       1:   12    7:   12    7:    9
           8       1:   12    7:   12   10:   12

InitMesh: MESH =    24 x    24 x    24 =       13824
InitMesh: (bp) =    12 x    12 x    12 =        1728
InitMesh: Mesh cutoff (required, used) =   130.000   161.974 Ry
ExtMesh (bp) on 0 =    64 x    58 x    55 =      204160
New grid distribution:   2
           1       1:    7    1:    6    1:    6
           2       7:   12    7:   12    1:    6
           3       1:    6    1:    6    7:   12
           4       8:   12    1:    6    1:    6
           5       7:   12    1:    6    7:   12
           6       1:    6    7:   12    1:    6
           7       1:    7    7:   12    7:   12
           8       8:   12    7:   12    7:   12
New grid distribution:   3
           1       1:    6    7:   12    7:   12
           2       7:   12    1:    6    1:    6
           3       7:   12    1:    6    7:   12
           4       7:   12    7:   12    1:    6
           5       1:    6    1:    6    7:   12
           6       1:    6    1:    6    1:    6
           7       7:   12    7:   12    7:   12
           8       1:    6    7:   12    1:    6
Setting up quadratic distribution...
ExtMesh (bp) on 0 =    59 x    58 x    58 =      198476
PhiOnMesh: Number of (b)points on node 0 =                  252
PhiOnMesh: nlist on node 0 =                 6724

   scf: iscf   Eharris(eV)      E_KS(eV)   FreeEng(eV)    dDmax  Ef(eV)
   scf:    1     -194.7016     -194.6940     -194.6940  0.02861 -1.3427
     spin moment: S , {S} =    0.00000       0.0       0.0   0.00000
   scf:    2     -194.6893     -194.6893     -194.6893  0.00090 -1.3491
     spin moment: S , {S} =    0.00000       0.0       0.0   0.00000
   scf:    3     -194.6893     -194.6893     -194.6893  0.00017 -1.3491
     spin moment: S , {S} =   -0.00000       0.0       0.0  -0.00000
   scf:    4     -194.6893     -194.6893     -194.6893  0.00004 -1.3491
     spin moment: S , {S} =    0.00000       0.0       0.0   0.00000

SCF Convergence by dMax criterion
max |DM_out - DM_in|:     0.00004338
SCF cycle converged after    4 iterations

Using DM_out to compute the final energy and forces

siesta: E_KS(eV) =             -194.6893
     spin moment: S , {S} =    0.00000       0.0       0.0   0.00000

siesta: Atomic forces (eV/Ang):
     1    0.795907   -0.000000   -0.000000
     2   -0.785481    0.000000    0.000000
----------------------------------------
   Tot    0.010426   -0.000000   -0.000000
----------------------------------------
   Max    0.795907
   Res    0.456517    sqrt( Sum f_i^2 / 3N )
----------------------------------------
   Max    0.795907    constrained

Stress-tensor-Voigt (kbar):     -518.03     -518.41     -518.41       -0.00       23.81       -0.00
(Free)E + p*V (eV/cell)     -181.7416
Target enthalpy (eV/cell)     -194.6893

mulliken: Atomic and Orbital Populations:

mulliken: Spin UP 

Species: Si                  
Atom  Qatom  Qorb
               3s      3py     3pz     3px     
   1  2.000   0.500   0.500   0.500   0.500
   2  2.000   0.500   0.500   0.500   0.500

mulliken: Qtot =        4.000

mulliken: Spin DOWN 

Species: Si                  
Atom  Qatom  Qorb
               3s      3py     3pz     3px     
   1  2.000   0.500   0.500   0.500   0.500
   2  2.000   0.500   0.500   0.500   0.500

mulliken: Qtot =        4.000

siesta: Calculating polarization. 

siesta: Macroscopic polarization for spin Up:

siesta: Macroscopic polarization per unit cell (a.u.):
siesta: Along the lattice vectors      3.627930   10.883605   10.883606
siesta: Along cartesian directions    15.391743   10.261205   10.261205

siesta: Macroscopic polarization per unit cell (Debye):
siesta: Along the lattice vectors      9.221285   27.663384   27.663386
siesta: Along cartesian directions    39.121934   26.081401   26.081400

siesta: Macroscopic polarization for spin Down:

siesta: Macroscopic polarization per unit cell (a.u.):
siesta: Along the lattice vectors      3.627930   10.883605   10.883606
siesta: Along cartesian directions    15.391743   10.261205   10.261205

siesta: Macroscopic polarization per unit cell (Debye):
siesta: Along the lattice vectors      9.221285   27.663384   27.663386
siesta: Along cartesian directions    39.121934   26.081401   26.081400

siesta: Sum along cartesian directions (a.u.): 
siesta:    30.783485   20.522411   20.522410

siesta: Sum along cartesian directions (Debye): 
siesta:    78.243868   52.162801   52.162800

obc: Macroscopic polarization for spin Up:

obc: Macroscopic polarization per unit cell along the lattice vectors (Bohr): 
obc:    3.627930   10.883605   10.883606

obc: Macroscopic polarization for spin Down:

obc: Macroscopic polarization per unit cell along the lattice vectors (Bohr): 
obc:    3.627930   10.883605   10.883606

                     ====================================
                        Begin FC step =      9
                         displace atom 2
                         in direction 2 by -0.021167 Ang
                     ====================================

outcoor: Atomic coordinates (fractional):                   
    0.00000000    0.00000000    0.00000000   1       1  Si
    0.24610183    0.25389817    0.24610183   1       2  Si

superc: Internal auxiliary supercell:     5 x     5 x     5  =     125
superc: Number of atoms, orbitals, and projectors:    250   1000   2250

outcell: Unit cell vectors (Ang):
        0.000000    2.715000    2.715000
        2.715000    0.000000    2.715000
        2.715000    2.715000    0.000000

outcell: Cell vector modules (Ang)   :    3.839590    3.839590    3.839590
outcell: Cell angles (23,13,12) (deg):     60.0000     60.0000     60.0000
outcell: Cell volume (Ang**3)        :     40.0258
New_DM. Step:    10
Re-using DM from previous geometry...
Extrapolating Density Matrix...
     spin moment: S , {S} =    0.00000       0.0       0.0   0.00000
New grid distribution:   1
           1       1:   12    1:    6    1:    3
           2       1:   12    1:    6    4:    6
           3       1:   12    1:    6    7:    9
           4       1:   12    1:    6   10:   12
           5       1:   12    7:   12    1:    3
           6       1:   12    7:   12    4:    6
           7       1:   12    7:   12    7:    9
           8       1:   12    7:   12   10:   12

InitMesh: MESH =    24 x    24 x    24 =       13824
InitMesh: (bp) =    12 x    12 x    12 =        1728
InitMesh: Mesh cutoff (required, used) =   130.000   161.974 Ry
ExtMesh (bp) on 0 =    64 x    58 x    55 =      204160
New grid distribution:   2
           1       1:    7    1:    6    1:    6
           2       7:   12    7:   12    1:    6
           3       1:    6    1:    6    7:   12
           4       8:   12    1:    6    1:    6
           5       7:   12    1:    6    7:   12
           6       1:    6    7:   12    1:    6
           7       1:    7    7:   12    7:   12
           8       8:   12    7:   12    7:   12
New grid distribution:   3
           1       1:    6    7:   12    7:   12
           2       7:   12    1:    6    1:    6
           3       7:   12    1:    6    7:   12
           4       7:   12    7:   12    1:    6
           5       1:    6    1:    6    7:   12
           6       1:    6    1:    6    1:    6
           7       7:   12    7:   12    7:   12
           8       1:    6    7:   12    1:    6
Setting up quadratic distribution...
ExtMesh (bp) on 0 =    59 x    58 x    58 =      198476
PhiOnMesh: Number of (b)points on node 0 =                  252
PhiOnMesh: nlist on node 0 =                 6717

   scf: iscf   Eharris(eV)      E_KS(eV)   FreeEng(eV)    dDmax  Ef(eV)
   scf:    1     -194.7016     -194.6827     -194.6827  0.02862 -1.3404
     spin moment: S , {S} =   -0.00000       0.0       0.0  -0.00000
   scf:    2     -194.6893     -194.6893     -194.6893  0.00065 -1.3491
     spin moment: S , {S} =   -0.00000       0.0       0.0  -0.00000
   scf:    3     -194.6893     -194.6893     -194.6893  0.00017 -1.3491
     spin moment: S , {S} =    0.00000       0.0       0.0   0.00000
   scf:    4     -194.6893     -194.6893     -194.6893  0.00005 -1.3491
     spin moment: S , {S} =   -0.00000       0.0       0.0  -0.00000

SCF Convergence by dMax criterion
max |DM_out - DM_in|:     0.00004761
SCF cycle converged after    4 iterations

Using DM_out to compute the final energy and forces

siesta: E_KS(eV) =             -194.6893
     spin moment: S , {S} =   -0.00000       0.0       0.0  -0.00000

siesta: Atomic forces (eV/Ang):
     1   -0.000000   -0.795907   -0.000000
     2    0.000000    0.785481    0.000000
----------------------------------------
   Tot   -0.000000   -0.010426    0.000000
----------------------------------------
   Max    0.795907
   Res    0.456517    sqrt( Sum f_i^2 / 3N )
----------------------------------------
   Max    0.795907    constrained

Stress-tensor-Voigt (kbar):     -518.41     -518.03     -518.41       -0.00       -0.00      -23.81
(Free)E + p*V (eV/cell)     -181.7416
Target enthalpy (eV/cell)     -194.6893

mulliken: Atomic and Orbital Populations:

mulliken: Spin UP 

Species: Si                  
Atom  Qatom  Qorb
               3s      3py     3pz     3px     
   1  2.000   0.500   0.500   0.500   0.500
   2  2.000   0.500   0.500   0.500   0.500

mulliken: Qtot =        4.000

mulliken: Spin DOWN 

Species: Si                  
Atom  Qatom  Qorb
               3s      3py     3pz     3px     
   1  2.000   0.500   0.500   0.500   0.500
   2  2.000   0.500   0.500   0.500   0.500

mulliken: Qtot =        4.000

                     ====================================
                        Begin FC step =     10
                         displace atom 2
                         in direction 2 by  0.021167 Ang
                     ====================================

outcoor: Atomic coordinates (fractional):                   
    0.00000000    0.00000000    0.00000000   1       1  Si
    0.25389817    0.24610183    0.25389817   1       2  Si

superc: Internal auxiliary supercell:     5 x     5 x     5  =     125
superc: Number of atoms, orbitals, and projectors:    250   1000   2250

outcell: Unit cell vectors (Ang):
        0.000000    2.715000    2.715000
        2.715000    0.000000    2.715000
        2.715000    2.715000    0.000000

outcell: Cell vector modules (Ang)   :    3.839590    3.839590    3.839590
outcell: Cell angles (23,13,12) (deg):     60.0000     60.0000     60.0000
outcell: Cell volume (Ang**3)        :     40.0258
New_DM. Step:    11
Re-using DM from previous geometry...
Extrapolating Density Matrix...
     spin moment: S , {S} =   -0.00000       0.0       0.0  -0.00000
New grid distribution:   1
           1       1:   12    1:    6    1:    3
           2       1:   12    1:    6    4:    6
           3       1:   12    1:    6    7:    9
           4       1:   12    1:    6   10:   12
           5       1:   12    7:   12    1:    3
           6       1:   12    7:   12    4:    6
           7       1:   12    7:   12    7:    9
           8       1:   12    7:   12   10:   12

InitMesh: MESH =    24 x    24 x    24 =       13824
InitMesh: (bp) =    12 x    12 x    12 =        1728
InitMesh: Mesh cutoff (required, used) =   130.000   161.974 Ry
ExtMesh (bp) on 0 =    64 x    58 x    55 =      204160
New grid distribution:   2
           1       1:    7    1:    6    1:    6
           2       7:   12    7:   12    1:    6
           3       1:    6    1:    6    7:   12
           4       8:   12    1:    6    1:    6
           5       7:   12    1:    6    7:   12
           6       1:    6    7:   12    1:    6
           7       1:    7    7:   12    7:   12
           8       8:   12    7:   12    7:   12
New grid distribution:   3
           1       1:    6    7:   12    7:   12
           2       7:   12    1:    6    1:    6
           3       7:   12    1:    6    7:   12
           4       7:   12    7:   12    1:    6
           5       1:    6    1:    6    7:   12
           6       1:    6    1:    6    1:    6
           7       7:   12    7:   12    7:   12
           8       1:    6    7:   12    1:    6
Setting up quadratic distribution...
ExtMesh (bp) on 0 =    59 x    58 x    58 =      198476
PhiOnMesh: Number of (b)points on node 0 =                  252
PhiOnMesh: nlist on node 0 =                 6716

   scf: iscf   Eharris(eV)      E_KS(eV)   FreeEng(eV)    dDmax  Ef(eV)
   scf:    1     -194.7016     -194.6940     -194.6940  0.02860 -1.3427
     spin moment: S , {S} =    0.00000       0.0       0.0   0.00000
   scf:    2     -194.6893     -194.6893     -194.6893  0.00012 -1.3491
     spin moment: S , {S} =    0.00000       0.0       0.0   0.00000
   scf:    3     -194.6893     -194.6893     -194.6893  0.00004 -1.3491
     spin moment: S , {S} =   -0.00000       0.0       0.0  -0.00000

SCF Convergence by dMax criterion
max |DM_out - DM_in|:     0.00003603
SCF cycle converged after    3 iterations

Using DM_out to compute the final energy and forces

siesta: E_KS(eV) =             -194.6893
     spin moment: S , {S} =   -0.00000       0.0       0.0  -0.00000

siesta: Atomic forces (eV/Ang):
     1   -0.000000    0.795907   -0.000000
     2    0.000000   -0.785481    0.000000
----------------------------------------
   Tot   -0.000000    0.010426   -0.000000
----------------------------------------
   Max    0.795907
   Res    0.456517    sqrt( Sum f_i^2 / 3N )
----------------------------------------
   Max    0.795907    constrained

Stress-tensor-Voigt (kbar):     -518.41     -518.03     -518.41       -0.00       -0.00       23.81
(Free)E + p*V (eV/cell)     -181.7416
Target enthalpy (eV/cell)     -194.6893

mulliken: Atomic and Orbital Populations:

mulliken: Spin UP 

Species: Si                  
Atom  Qatom  Qorb
               3s      3py     3pz     3px     
   1  2.000   0.500   0.500   0.500   0.500
   2  2.000   0.500   0.500   0.500   0.500

mulliken: Qtot =        4.000

mulliken: Spin DOWN 

Species: Si                  
Atom  Qatom  Qorb
               3s      3py     3pz     3px     
   1  2.000   0.500   0.500   0.500   0.500
   2  2.000   0.500   0.500   0.500   0.500

mulliken: Qtot =        4.000

siesta: Calculating polarization. 

siesta: Macroscopic polarization for spin Up:

siesta: Macroscopic polarization per unit cell (a.u.):
siesta: Along the lattice vectors     10.883609    3.627929   10.883608
siesta: Along cartesian directions    10.261206   15.391747   10.261207

siesta: Macroscopic polarization per unit cell (Debye):
siesta: Along the lattice vectors     27.663393    9.221281   27.663392
siesta: Along cartesian directions    26.081403   39.121945   26.081404

siesta: Macroscopic polarization for spin Down:

siesta: Macroscopic polarization per unit cell (a.u.):
siesta: Along the lattice vectors     10.883609    3.627929   10.883608
siesta: Along cartesian directions    10.261206   15.391747   10.261207

siesta: Macroscopic polarization per unit cell (Debye):
siesta: Along the lattice vectors     27.663393    9.221281   27.663392
siesta: Along cartesian directions    26.081403   39.121945   26.081404

siesta: Sum along cartesian directions (a.u.): 
siesta:    20.522413   30.783494   20.522413

siesta: Sum along cartesian directions (Debye): 
siesta:    52.162806   78.243890   52.162807

obc: Macroscopic polarization for spin Up:

obc: Macroscopic polarization per unit cell along the lattice vectors (Bohr): 
obc:   10.883609    3.627929   10.883608

obc: Macroscopic polarization for spin Down:

obc: Macroscopic polarization per unit cell along the lattice vectors (Bohr): 
obc:   10.883609    3.627929   10.883608

                     ====================================
                        Begin FC step =     11
                         displace atom 2
                         in direction 3 by -0.021167 Ang
                     ====================================

outcoor: Atomic coordinates (fractional):                   
    0.00000000    0.00000000    0.00000000   1       1  Si
    0.24610183    0.24610183    0.25389817   1       2  Si

superc: Internal auxiliary supercell:     5 x     5 x     5  =     125
superc: Number of atoms, orbitals, and projectors:    250   1000   2250

outcell: Unit cell vectors (Ang):
        0.000000    2.715000    2.715000
        2.715000    0.000000    2.715000
        2.715000    2.715000    0.000000

outcell: Cell vector modules (Ang)   :    3.839590    3.839590    3.839590
outcell: Cell angles (23,13,12) (deg):     60.0000     60.0000     60.0000
outcell: Cell volume (Ang**3)        :     40.0258
New_DM. Step:    12
Re-using DM from previous geometry...
Extrapolating Density Matrix...
     spin moment: S , {S} =   -0.00000       0.0       0.0  -0.00000
New grid distribution:   1
           1       1:   12    1:    6    1:    3
           2       1:   12    1:    6    4:    6
           3       1:   12    1:    6    7:    9
           4       1:   12    1:    6   10:   12
           5       1:   12    7:   12    1:    3
           6       1:   12    7:   12    4:    6
           7       1:   12    7:   12    7:    9
           8       1:   12    7:   12   10:   12

InitMesh: MESH =    24 x    24 x    24 =       13824
InitMesh: (bp) =    12 x    12 x    12 =        1728
InitMesh: Mesh cutoff (required, used) =   130.000   161.974 Ry
ExtMesh (bp) on 0 =    64 x    58 x    55 =      204160
New grid distribution:   2
           1       1:    7    1:    6    1:    6
           2       7:   12    7:   12    1:    6
           3       1:    6    1:    6    7:   12
           4       8:   12    1:    6    1:    6
           5       7:   12    1:    6    7:   12
           6       1:    6    7:   12    1:    6
           7       1:    7    7:   12    7:   12
           8       8:   12    7:   12    7:   12
New grid distribution:   3
           1       1:    6    7:   12    7:   12
           2       7:   12    1:    6    1:    6
           3       7:   12    1:    6    7:   12
           4       7:   12    7:   12    1:    6
           5       1:    6    1:    6    7:   12
           6       1:    6    1:    6    1:    6
           7       7:   12    7:   12    7:   12
           8       1:    6    7:   12    1:    6
Setting up quadratic distribution...
ExtMesh (bp) on 0 =    59 x    58 x    58 =      198476
PhiOnMesh: Number of (b)points on node 0 =                  252
PhiOnMesh: nlist on node 0 =                 6717

   scf: iscf   Eharris(eV)      E_KS(eV)   FreeEng(eV)    dDmax  Ef(eV)
   scf:    1     -194.7016     -194.6827     -194.6827  0.02866 -1.3404
     spin moment: S , {S} =    0.00000       0.0       0.0   0.00000
   scf:    2     -194.6893     -194.6893     -194.6893  0.00061 -1.3491
     spin moment: S , {S} =   -0.00000       0.0       0.0  -0.00000
   scf:    3     -194.6893     -194.6893     -194.6893  0.00018 -1.3491
     spin moment: S , {S} =   -0.00000       0.0       0.0  -0.00000
   scf:    4     -194.6893     -194.6893     -194.6893  0.00004 -1.3491
     spin moment: S , {S} =   -0.00000       0.0       0.0  -0.00000

SCF Convergence by dMax criterion
max |DM_out - DM_in|:     0.00003749
SCF cycle converged after    4 iterations

Using DM_out to compute the final energy and forces

siesta: E_KS(eV) =             -194.6893
     spin moment: S , {S} =   -0.00000       0.0       0.0  -0.00000

siesta: Atomic forces (eV/Ang):
     1   -0.000000   -0.000000   -0.795907
     2    0.000000    0.000000    0.785481
----------------------------------------
   Tot   -0.000000   -0.000000   -0.010426
----------------------------------------
   Max    0.795907
   Res    0.456517    sqrt( Sum f_i^2 / 3N )
----------------------------------------
   Max    0.795907    constrained

Stress-tensor-Voigt (kbar):     -518.41     -518.41     -518.03      -23.81       -0.00       -0.00
(Free)E + p*V (eV/cell)     -181.7416
Target enthalpy (eV/cell)     -194.6893

mulliken: Atomic and Orbital Populations:

mulliken: Spin UP 

Species: Si                  
Atom  Qatom  Qorb
               3s      3py     3pz     3px     
   1  2.000   0.500   0.500   0.500   0.500
   2  2.000   0.500   0.500   0.500   0.500

mulliken: Qtot =        4.000

mulliken: Spin DOWN 

Species: Si                  
Atom  Qatom  Qorb
               3s      3py     3pz     3px     
   1  2.000   0.500   0.500   0.500   0.500
   2  2.000   0.500   0.500   0.500   0.500

mulliken: Qtot =        4.000

                     ====================================
                        Begin FC step =     12
                         displace atom 2
                         in direction 3 by  0.021167 Ang
                     ====================================

outcoor: Atomic coordinates (fractional):                   
    0.00000000    0.00000000    0.00000000   1       1  Si
    0.25389817    0.25389817    0.24610183   1       2  Si

superc: Internal auxiliary supercell:     5 x     5 x     5  =     125
superc: Number of atoms, orbitals, and projectors:    250   1000   2250

outcell: Unit cell vectors (Ang):
        0.000000    2.715000    2.715000
        2.715000    0.000000    2.715000
        2.715000    2.715000    0.000000

outcell: Cell vector modules (Ang)   :    3.839590    3.839590    3.839590
outcell: Cell angles (23,13,12) (deg):     60.0000     60.0000     60.0000
outcell: Cell volume (Ang**3)        :     40.0258
New_DM. Step:    13
Re-using DM from previous geometry...
Extrapolating Density Matrix...
     spin moment: S , {S} =    0.00000       0.0       0.0   0.00000
New grid distribution:   1
           1       1:   12    1:    6    1:    3
           2       1:   12    1:    6    4:    6
           3       1:   12    1:    6    7:    9
           4       1:   12    1:    6   10:   12
           5       1:   12    7:   12    1:    3
           6       1:   12    7:   12    4:    6
           7       1:   12    7:   12    7:    9
           8       1:   12    7:   12   10:   12

InitMesh: MESH =    24 x    24 x    24 =       13824
InitMesh: (bp) =    12 x    12 x    12 =        1728
InitMesh: Mesh cutoff (required, used) =   130.000   161.974 Ry
ExtMesh (bp) on 0 =    64 x    58 x    55 =      204160
New grid distribution:   2
           1       1:    7    1:    6    1:    6
           2       7:   12    7:   12    1:    6
           3       1:    6    1:    6    7:   12
           4       8:   12    1:    6    1:    6
           5       7:   12    1:    6    7:   12
           6       1:    6    7:   12    1:    6
           7       1:    7    7:   12    7:   12
           8       8:   12    7:   12    7:   12
New grid distribution:   3
           1       1:    6    7:   12    7:   12
           2       7:   12    1:    6    1:    6
           3       7:   12    1:    6    7:   12
           4       7:   12    7:   12    1:    6
           5       1:    6    1:    6    7:   12
           6       1:    6    1:    6    1:    6
           7       7:   12    7:   12    7:   12
           8       1:    6    7:   12    1:    6
Setting up quadratic distribution...
ExtMesh (bp) on 0 =    59 x    58 x    58 =      198476
PhiOnMesh: Number of (b)points on node 0 =                  252
PhiOnMesh: nlist on node 0 =                 6716

   scf: iscf   Eharris(eV)      E_KS(eV)   FreeEng(eV)    dDmax  Ef(eV)
   scf:    1     -194.7016     -194.6940     -194.6940  0.02860 -1.3427
     spin moment: S , {S} =   -0.00000       0.0       0.0  -0.00000
   scf:    2     -194.6893     -194.6893     -194.6893  0.00024 -1.3491
     spin moment: S , {S} =   -0.00000       0.0       0.0  -0.00000
   scf:    3     -194.6893     -194.6893     -194.6893  0.00006 -1.3491
     spin moment: S , {S} =    0.00000       0.0       0.0   0.00000

SCF Convergence by dMax criterion
max |DM_out - DM_in|:     0.00005967
SCF cycle converged after    3 iterations

Using DM_out to compute the final energy and forces

siesta: E_KS(eV) =             -194.6893
     spin moment: S , {S} =    0.00000       0.0       0.0   0.00000

siesta: Atomic forces (eV/Ang):
     1   -0.000000   -0.000000    0.795907
     2    0.000000    0.000000   -0.785482
----------------------------------------
   Tot    0.000000    0.000000    0.010425
----------------------------------------
   Max    0.795907
   Res    0.456517    sqrt( Sum f_i^2 / 3N )
----------------------------------------
   Max    0.795907    constrained

Stress-tensor-Voigt (kbar):     -518.41     -518.41     -518.03       23.81       -0.00       -0.00
(Free)E + p*V (eV/cell)     -181.7416
Target enthalpy (eV/cell)     -194.6893

mulliken: Atomic and Orbital Populations:

mulliken: Spin UP 

Species: Si                  
Atom  Qatom  Qorb
               3s      3py     3pz     3px     
   1  2.000   0.500   0.500   0.500   0.500
   2  2.000   0.500   0.500   0.500   0.500

mulliken: Qtot =        4.000

mulliken: Spin DOWN 

Species: Si                  
Atom  Qatom  Qorb
               3s      3py     3pz     3px     
   1  2.000   0.500   0.500   0.500   0.500
   2  2.000   0.500   0.500   0.500   0.500

mulliken: Qtot =        4.000

siesta: Calculating polarization. 

siesta: Macroscopic polarization for spin Up:

siesta: Macroscopic polarization per unit cell (a.u.):
siesta: Along the lattice vectors     10.883604   10.883605    3.627931
siesta: Along cartesian directions    10.261206   10.261205   15.391741

siesta: Macroscopic polarization per unit cell (Debye):
siesta: Along the lattice vectors     27.663381   27.663383    9.221288
siesta: Along cartesian directions    26.081401   26.081399   39.121930

siesta: Macroscopic polarization for spin Down:

siesta: Macroscopic polarization per unit cell (a.u.):
siesta: Along the lattice vectors     10.883604   10.883605    3.627931
siesta: Along cartesian directions    10.261206   10.261205   15.391741

siesta: Macroscopic polarization per unit cell (Debye):
siesta: Along the lattice vectors     27.663381   27.663383    9.221288
siesta: Along cartesian directions    26.081401   26.081399   39.121930

siesta: Sum along cartesian directions (a.u.): 
siesta:    20.522411   20.522410   30.783482

siesta: Sum along cartesian directions (Debye): 
siesta:    52.162802   52.162799   78.243860

obc: Macroscopic polarization for spin Up:

obc: Macroscopic polarization per unit cell along the lattice vectors (Bohr): 
obc:   10.883604   10.883605    3.627931

obc: Macroscopic polarization for spin Down:

obc: Macroscopic polarization per unit cell along the lattice vectors (Bohr): 
obc:   10.883604   10.883605    3.627931

siesta: Eigenvalues (eV):
  ik is    eps
   1  1 -15.24  -2.84  -2.71  -2.58  -0.33  -0.23  -0.12   0.52
   1  2 -15.24  -2.84  -2.71  -2.58  -0.33  -0.23  -0.12   0.52
siesta: Fermi energy =      -1.349112 eV

siesta: Program's energy decomposition (eV):
siesta: Ebs     =       -46.736530
siesta: Eions   =       380.802124
siesta: Ena     =       115.501633
siesta: Ekin    =       115.577679
siesta: Enl     =        29.935837
siesta: DEna    =        -8.120435
siesta: DUscf   =         1.765883
siesta: DUext   =         0.000000
siesta: Exc     =       -68.547791
siesta: eta*DQ  =         0.000000
siesta: Emadel  =         0.000000
siesta: Emeta   =         0.000000
siesta: Emolmec =         0.000000
siesta: Ekinion =         0.000000
siesta: Eharris =      -194.689318
siesta: Etot    =      -194.689318
siesta: FreeEng =      -194.689318

siesta: Final energy (eV):
siesta:  Band Struct. =     -46.736530
siesta:       Kinetic =     115.577679
siesta:       Hartree =      23.678106
siesta:    Ext. field =       0.000000
siesta:   Exch.-corr. =     -68.547791
siesta:  Ion-electron =    -120.258465
siesta:       Ion-ion =    -145.138846
siesta:       Ekinion =       0.000000
siesta:         Total =    -194.689318

siesta: Atomic forces (eV/Ang):
siesta:      1   -0.000000   -0.000000    0.795907
siesta:      2    0.000000    0.000000   -0.785482
siesta: ----------------------------------------
siesta:    Tot    0.000000    0.000000    0.010425

siesta: Stress tensor (static) (eV/Ang**3):
siesta:    -0.323563    0.014858   -0.000000
siesta:     0.014858   -0.323563   -0.000000
siesta:    -0.000000   -0.000000   -0.323325

siesta: Cell volume =         40.025752 Ang**3

siesta: Pressure (static):
siesta:                Solid            Molecule  Units
siesta:           0.00352315          0.00362203  Ry/Bohr**3
siesta:           0.32348385          0.33256221  eV/Ang**3
siesta:         518.28387136        532.82915450  kBar
(Free)E+ p_basis*V_orbitals  =        -194.112618
(Free)Eharris+ p_basis*V_orbitals  =        -194.112618
     spin moment: S , {S} =    0.00000       0.0       0.0   0.00000
>> End of run:  10-JUN-2018  20:57:13
Job completed
