Siesta Version: siesta-2.0.2
Architecture  : intel9-mkl8
Compiler flags: ifort -w -O2 -mp
SERIAL version

* Running in serial mode
>> Start of run:  18-MAY-2007  15:54:59

                           ***********************       
                           *  WELCOME TO SIESTA  *       
                           ***********************       

reinit: Reading from standard input
************************** Dump of input data file ****************************
Systemlabel  born_spin
Systemname   si2 Force constants + Born charges -- spin-polarized
LongOutput T
SpinPolarized T
%include FC.fdf
BornCharge T
%block PolarizationGrids
7  3  3
3  7  3
3  3  7
%endblock PolarizationGrids
NumberOfSpecies 1
%block chemicalspecieslabel
1 14 Si
%endblock chemicalspecieslabel
PAO.BasisSize SZ
MeshCutoff 130.0 Ry
# In a real calculation, a high degree of self-consistency should be achieved
#DM.MixingWeight  0.3
#DM.NumberPulay    3
#DM.Tolerance     1.0d-5
# Here we use Harris since we are just interested in testing the displacement
# logic
HarrisFunctional T
************************** End of input data file *****************************

reinit: -----------------------------------------------------------------------
reinit: System Name: si2 Force constants + Born charges -- spin-polarized       
reinit: -----------------------------------------------------------------------
reinit: System Label: born_spin                                                   
reinit: -----------------------------------------------------------------------

initatom: Reading input for the pseudopotentials and atomic orbitals ----------
 Species number:            1  Label: Si Atomic number:          14
Ground state valence configuration:   3s02  3p02
Reading pseudopotential information in formatted form from Si.psf
For Si, standard SIESTA heuristics set lmxkb to 2
 (one more than the basis l, including polarization orbitals).
Use PS.lmax or PS.KBprojectors blocks to override.

<basis_specs>
===============================================================================
Si                   Z=  14    Mass=  28.090        Charge=  0.0000    
Lmxo=1 Lmxkb=2     BasisType=split      Semic=F
L=0  Nsemic=0  Cnfigmx=3
          n=1  nzeta=1  polorb=0
               vcte:    0.0000    
               rinn:    0.0000    
                rcs:    0.0000    
            lambdas:    1.0000    
L=1  Nsemic=0  Cnfigmx=3
          n=1  nzeta=1  polorb=0
               vcte:    0.0000    
               rinn:    0.0000    
                rcs:    0.0000    
            lambdas:    1.0000    
-------------------------------------------------------------------------------
L=0  Nkbl=1  erefs: 0.17977+309
L=1  Nkbl=1  erefs: 0.17977+309
L=2  Nkbl=1  erefs: 0.17977+309
===============================================================================
</basis_specs>

atom: Called for Si  (Z =  14)

read_vps: Pseudopotential generation method:
read_vps: ATM3      Troullier-Martins                       

read_vps: Valence configuration (pseudopotential and basis set generation):
3s( 2.00) rc: 1.89
3p( 2.00) rc: 1.89
3d( 0.00) rc: 1.89
Total valence charge:    4.00000

xc_check: Exchange-correlation functional:
xc_check: Ceperley-Alder
V l=0 = -2*Zval/r beyond r=  2.5494
V l=1 = -2*Zval/r beyond r=  2.5494
V l=2 = -2*Zval/r beyond r=  2.5494
All V_l potentials equal beyond r=  1.8652
This should be close to max(r_c) in ps generation
All pots = -2*Zval/r beyond r=  2.5494
Using large-core scheme for Vlocal

atom: Estimated core radius    2.54944

atom: Including non-local core corrections could be a good idea
atom: Maximum radius for 4*pi*r*r*local-pseudopot. charge    2.85303
atom: Maximum radius for r*vlocal+2*Zval:    2.58151
GHOST: No ghost state for L =  0
GHOST: No ghost state for L =  1
GHOST: No ghost state for L =  2

KBgen: Kleinman-Bylander projectors: 
   l= 0   rc=  1.936440   el= -0.796617   Ekb=  4.661340   kbcos=  0.299756
   l= 1   rc=  1.936440   el= -0.307040   Ekb=  1.494238   kbcos=  0.301471
   l= 2   rc=  1.936440   el=  0.002313   Ekb= -2.808672   kbcos= -0.054903

KBgen: Total number of  Kleinman-Bylander projectors:    9
atom: -------------------------------------------------------------------------

atom: SANKEY-TYPE ORBITALS:

SPLIT: Orbitals with angular momentum L= 0

SPLIT: Basis orbitals for state 3s

SPLIT: PAO cut-off radius determined from an
SPLIT: energy shift=  0.020000 Ry

   izeta = 1
                 lambda =    1.000000
                     rc =    5.007352
                 energy =   -0.777669
                kinetic =    0.573829
    potential(screened) =   -1.351499
       potential(ionic) =   -3.827441

SPLIT: Orbitals with angular momentum L= 1

SPLIT: Basis orbitals for state 3p

SPLIT: PAO cut-off radius determined from an
SPLIT: energy shift=  0.020000 Ry

   izeta = 1
                 lambda =    1.000000
                     rc =    6.270866
                 energy =   -0.288955
                kinetic =    0.877930
    potential(screened) =   -1.166885
       potential(ionic) =   -3.426998
atom: Total number of Sankey-type orbitals:  4

atm_pop: Valence configuration(local Pseudopot. screening):
 3s( 2.00)                                                            
 3p( 2.00)                                                            
Vna: chval, zval:    4.00000   4.00000

Vna:  Cut-off radius for the neutral-atom potential:   6.270866

atom: _________________________________________________________________________

prinput: Basis input ----------------------------------------------------------

PAO.BasisType split     

%block ChemicalSpeciesLabel
    1   14 Si                      # Species index, atomic number, species label
%endblock ChemicalSpeciesLabel

%block PAO.Basis                 # Define Basis set
Si          2                    # Species label, number of l-shells
 n=3   0   1                         # n, l, Nzeta 
   5.007   
   1.000   
 n=3   1   1                         # n, l, Nzeta 
   6.271   
   1.000   
%endblock PAO.Basis

prinput: ----------------------------------------------------------------------


siesta: ******************** Simulation parameters ****************************
siesta:
siesta: The following are some of the parameters of the simulation.
siesta: A complete list of the parameters used, including default values,
siesta: can be found in file out.fdf
siesta:
coor:   Atomic-coordinates input format  =     Fractional
redata: Number of spin components        =     2
redata: Long output                      =     T
redata: Number of Atomic Species         =     1
redata: Charge density info will appear in .RHO file
redata: Write Mulliken Pop.              =     Atomic and Orbital charges
redata: Mesh Cutoff                      =   130.0000  Ry
redata: Net charge of the system         =     0.0000 |e|
redata: Max. number of SCF Iter          =    50
redata: Mixing is linear
redata: Mix DM in first SCF step ?       =     F
redata: Write Pulay info on disk?        =     F
redata: New DM Mixing Weight             =     0.2500
redata: New DM Occupancy tolerance       = 0.000000000001
redata: No kicks to SCF
redata: DM Mixing Weight for Kicks       =     0.5000
redata: DM Tolerance for SCF             =     0.000100
redata: Require Energy convergence for SCF =     F
redata: DM Energy tolerance for SCF      =     0.000100 eV
redata: Antiferro initial spin density   =     F
redata: Using Saved Data (generic)   =     F
redata: Use continuation files for DM    =     F
redata: Neglect nonoverlap interactions  =     F
redata: Method of Calculation            =     Diagonalization
redata: Divide and Conquer               =     T
redata: Electronic Temperature           =     0.0019  Ry
redata: Fix the spin of the system       =     F
redata: Dynamics option                  =     Force Constants Matrix Calculation
redata: Atomic displ for force constants  =     0.0400  Bohr
redata: First atom to move               =        1
redata: Last atom to move                =        2
redata: ***********************************************************************

siesta: Atomic coordinates (Bohr) and species
siesta:      0.00000   0.00000   0.00000  1        1
siesta:      2.56530   2.56530   2.56530  1        2

initatomlists: Number of atoms, orbitals, and projectors:      2     8    18

siesta: System type = bulk      

siesta: k-point coordinates (Bohr**-1) and weights:
siesta:    1    0.000000    0.000000    0.000000       1.000000

siesta: k-grid: Number of k-points =     1
siesta: k-grid: Cutoff (effective) =     1.920 Ang
siesta: k-grid: Supercell and displacements
siesta: k-grid:    1   0   0      0.000
siesta: k-grid:    0   1   0      0.000
siesta: k-grid:    0   0   1      0.000
Naive supercell factors:     5    5    5

superc: Internal auxiliary supercell:     5 x     5 x     5  =     125
superc: Number of atoms, orbitals, and projectors:    250  1000  2250

* Maximum dynamic memory allocated =     1 MB

siesta:                 ==============================
                            Begin FC step =      0
                            Undisplaced coordinates
                        ==============================

outcoor: Atomic coordinates (fractional):                   
    0.00000000    0.00000000    0.00000000   1  Si         1
    0.25000000    0.25000000    0.25000000   1  Si         2

superc: Internal auxiliary supercell:     5 x     5 x     5  =     125
superc: Number of atoms, orbitals, and projectors:    250  1000  2250

outcell: Unit cell vectors (Ang):
        0.000000    2.715000    2.715000
        2.715000    0.000000    2.715000
        2.715000    2.715000    0.000000

outcell: Cell vector modules (Ang)   :    3.839590    3.839590    3.839590
outcell: Cell angles (23,13,12) (deg):     60.0000     60.0000     60.0000
outcell: Cell volume (Ang**3)        :     40.0258

InitMesh: MESH =    24 x    24 x    24 =       13824
InitMesh: Mesh cutoff (required, used) =   130.000   161.974 Ry

* Maximum dynamic memory allocated =     7 MB

stepf: Fermi-Dirac step function

siesta: Program's energy decomposition (eV):
siesta: Eions   =       380.802124
siesta: Ena     =       115.502328
siesta: Ekin    =        78.997046
siesta: Enl     =        35.834927
siesta: DEna    =        -0.000002
siesta: DUscf   =         0.000000
siesta: DUext   =         0.000000
siesta: Exc     =       -66.512853
siesta: eta*DQ  =         0.000000
siesta: Emadel  =         0.000000
siesta: Ekinion =         0.000000
siesta: Eharris =      -193.422394
siesta: Etot    =      -216.980678
siesta: FreeEng =      -216.980678

siesta: Eharris(eV) =    -193.422394


siesta: Eharris(eV) =    -193.422394

timer: Routine,Calls,Time,% = IterSCF        1       1.167  78.96
elaps: Routine,Calls,Wall,% = IterSCF        1       1.189  73.28

siesta: E_KS - E_eggbox =      -194.6964

siesta: Atomic forces (eV/Ang):
     1    0.000000    0.000000    0.000000
     2   -0.000001    0.000000    0.000000
----------------------------------------
   Tot   -0.000001    0.000000    0.000000
----------------------------------------
   Max    0.000001
   Res    0.000000    sqrt( Sum f_i^2 / 3N )
----------------------------------------
   Max    0.000001    constrained

Stress-tensor-Voigt (kbar):     -422.60     -422.60     -422.60        0.00        0.00        0.00
Target enthalpy (eV/cell)     -194.6964
 
mulliken: Atomic and Orbital Populations:

mulliken: Spin UP 

Species: Si                  
Atom  Qatom  Qorb
               3s      3py     3pz     3px     
   1  2.000   0.500   0.500   0.500   0.500
   2  2.000   0.500   0.500   0.500   0.500

mulliken: Qtot =        4.000

mulliken: Spin DOWN 

Species: Si                  
Atom  Qatom  Qorb
               3s      3py     3pz     3px     
   1  2.000   0.500   0.500   0.500   0.500
   2  2.000   0.500   0.500   0.500   0.500

mulliken: Qtot =        4.000

siesta: Calculating polarization. 

siesta: Macroscopic polarization for spin Up:

siesta: Macroscopic polarization per unit cell (a.u.):
siesta: Along the lattice vectors      3.627888   10.883664    3.627888
siesta: Along cartesian directions    10.261217    5.130608   10.261217

siesta: Macroscopic polarization per unit cell (Debye):
siesta: Along the lattice vectors      9.221178   27.663534    9.221178
siesta: Along cartesian directions    26.081430   13.040715   26.081430

siesta: Macroscopic polarization for spin Down:

siesta: Macroscopic polarization per unit cell (a.u.):
siesta: Along the lattice vectors     10.883664   10.883664    3.627888
siesta: Along cartesian directions    10.261217   10.261217   15.391825

siesta: Macroscopic polarization per unit cell (Debye):
siesta: Along the lattice vectors     27.663534   27.663534    9.221178
siesta: Along cartesian directions    26.081430   26.081430   39.122145

siesta: Sum along cartesian directions (a.u.): 
siesta:    20.522434   15.391825   25.653042

siesta: Sum along cartesian directions (Debye): 
siesta:    52.162860   39.122145   65.203575

obc: Macroscopic polarization for spin Up:

obc: Macroscopic polarization per unit cell along the lattice vectors (Bohr): 
obc:    3.627888   10.883664    3.627888

obc: Macroscopic polarization for spin Down:

obc: Macroscopic polarization per unit cell along the lattice vectors (Bohr): 
obc:   10.883664   10.883664    3.627888

* Maximum dynamic memory allocated =     7 MB

siesta:                 ==============================
                            Begin FC step =      1
                            displace atom        1
                            in direction         1
                            by        -0.0400 Bohr
                        ==============================

outcoor: Atomic coordinates (fractional):                   
    0.00389817   -0.00389817   -0.00389817   1  Si         1
    0.25000000    0.25000000    0.25000000   1  Si         2

superc: Internal auxiliary supercell:     5 x     5 x     5  =     125
superc: Number of atoms, orbitals, and projectors:    250  1000  2250

outcell: Unit cell vectors (Ang):
        0.000000    2.715000    2.715000
        2.715000    0.000000    2.715000
        2.715000    2.715000    0.000000

outcell: Cell vector modules (Ang)   :    3.839590    3.839590    3.839590
outcell: Cell angles (23,13,12) (deg):     60.0000     60.0000     60.0000
outcell: Cell volume (Ang**3)        :     40.0258

siesta: Eharris(eV) =    -193.415804


siesta: Eharris(eV) =    -193.415804


siesta: Atomic forces (eV/Ang):
     1    0.831805    0.000000    0.000000
     2   -0.841812    0.000000    0.000000
----------------------------------------
   Tot   -0.010006    0.000000    0.000000
----------------------------------------
   Max    0.841812
   Res    0.483140    sqrt( Sum f_i^2 / 3N )
----------------------------------------
   Max    0.841812    constrained

Stress-tensor-Voigt (kbar):     -425.66     -425.79     -425.79        0.00       21.92        0.00
Target enthalpy (eV/cell)     -194.6894
 
mulliken: Atomic and Orbital Populations:

mulliken: Spin UP 

Species: Si                  
Atom  Qatom  Qorb
               3s      3py     3pz     3px     
   1  2.000   0.500   0.500   0.500   0.500
   2  2.000   0.500   0.500   0.500   0.500

mulliken: Qtot =        4.000

mulliken: Spin DOWN 

Species: Si                  
Atom  Qatom  Qorb
               3s      3py     3pz     3px     
   1  2.000   0.500   0.500   0.500   0.500
   2  2.000   0.500   0.500   0.500   0.500

mulliken: Qtot =        4.000

* Maximum dynamic memory allocated =     7 MB

siesta:                 ==============================
                            Begin FC step =      2
                            displace atom        1
                            in direction         1
                            by         0.0400 Bohr
                        ==============================

outcoor: Atomic coordinates (fractional):                   
   -0.00389817    0.00389817    0.00389817   1  Si         1
    0.25000000    0.25000000    0.25000000   1  Si         2

superc: Internal auxiliary supercell:     5 x     5 x     5  =     125
superc: Number of atoms, orbitals, and projectors:    250  1000  2250

outcell: Unit cell vectors (Ang):
        0.000000    2.715000    2.715000
        2.715000    0.000000    2.715000
        2.715000    2.715000    0.000000

outcell: Cell vector modules (Ang)   :    3.839590    3.839590    3.839590
outcell: Cell angles (23,13,12) (deg):     60.0000     60.0000     60.0000
outcell: Cell volume (Ang**3)        :     40.0258

siesta: Eharris(eV) =    -193.415804


siesta: Eharris(eV) =    -193.415804


siesta: Atomic forces (eV/Ang):
     1   -0.831805    0.000000    0.000000
     2    0.841811    0.000000    0.000000
----------------------------------------
   Tot    0.010006    0.000000   -0.000001
----------------------------------------
   Max    0.841811
   Res    0.483140    sqrt( Sum f_i^2 / 3N )
----------------------------------------
   Max    0.841811    constrained

Stress-tensor-Voigt (kbar):     -425.66     -425.79     -425.79        0.00      -21.92        0.00
Target enthalpy (eV/cell)     -194.6894
 
mulliken: Atomic and Orbital Populations:

mulliken: Spin UP 

Species: Si                  
Atom  Qatom  Qorb
               3s      3py     3pz     3px     
   1  2.000   0.500   0.500   0.500   0.500
   2  2.000   0.500   0.500   0.500   0.500

mulliken: Qtot =        4.000

mulliken: Spin DOWN 

Species: Si                  
Atom  Qatom  Qorb
               3s      3py     3pz     3px     
   1  2.000   0.500   0.500   0.500   0.500
   2  2.000   0.500   0.500   0.500   0.500

mulliken: Qtot =        4.000

siesta: Calculating polarization. 

siesta: Macroscopic polarization for spin Up:

siesta: Macroscopic polarization per unit cell (a.u.):
siesta: Along the lattice vectors      3.627908   10.883641   10.883641
siesta: Along cartesian directions    15.391793   10.261215   10.261215

siesta: Macroscopic polarization per unit cell (Debye):
siesta: Along the lattice vectors      9.221228   27.663476   27.663476
siesta: Along cartesian directions    39.122063   26.081424   26.081424

siesta: Macroscopic polarization for spin Down:

siesta: Macroscopic polarization per unit cell (a.u.):
siesta: Along the lattice vectors      3.627908   10.883641   10.883641
siesta: Along cartesian directions    15.391793   10.261214   10.261215

siesta: Macroscopic polarization per unit cell (Debye):
siesta: Along the lattice vectors      9.221228   27.663476   27.663475
siesta: Along cartesian directions    39.122062   26.081424   26.081424

siesta: Sum along cartesian directions (a.u.): 
siesta:    30.783586   20.522429   20.522429

siesta: Sum along cartesian directions (Debye): 
siesta:    78.244125   52.162848   52.162848

obc: Macroscopic polarization for spin Up:

obc: Macroscopic polarization per unit cell along the lattice vectors (Bohr): 
obc:    3.627908   10.883641   10.883641

obc: Macroscopic polarization for spin Down:

obc: Macroscopic polarization per unit cell along the lattice vectors (Bohr): 
obc:    3.627908   10.883641   10.883641

* Maximum dynamic memory allocated =     7 MB

siesta:                 ==============================
                            Begin FC step =      3
                            displace atom        1
                            in direction         2
                            by        -0.0400 Bohr
                        ==============================

outcoor: Atomic coordinates (fractional):                   
   -0.00389817    0.00389817   -0.00389817   1  Si         1
    0.25000000    0.25000000    0.25000000   1  Si         2

superc: Internal auxiliary supercell:     5 x     5 x     5  =     125
superc: Number of atoms, orbitals, and projectors:    250  1000  2250

outcell: Unit cell vectors (Ang):
        0.000000    2.715000    2.715000
        2.715000    0.000000    2.715000
        2.715000    2.715000    0.000000

outcell: Cell vector modules (Ang)   :    3.839590    3.839590    3.839590
outcell: Cell angles (23,13,12) (deg):     60.0000     60.0000     60.0000
outcell: Cell volume (Ang**3)        :     40.0258

siesta: Eharris(eV) =    -193.415804


siesta: Eharris(eV) =    -193.415804


siesta: Atomic forces (eV/Ang):
     1    0.000000    0.831805    0.000000
     2    0.000000   -0.841811   -0.000001
----------------------------------------
   Tot    0.000000   -0.010006   -0.000001
----------------------------------------
   Max    0.841811
   Res    0.483140    sqrt( Sum f_i^2 / 3N )
----------------------------------------
   Max    0.841811    constrained

Stress-tensor-Voigt (kbar):     -425.79     -425.66     -425.79        0.00        0.00       21.92
Target enthalpy (eV/cell)     -194.6894
 
mulliken: Atomic and Orbital Populations:

mulliken: Spin UP 

Species: Si                  
Atom  Qatom  Qorb
               3s      3py     3pz     3px     
   1  2.000   0.500   0.500   0.500   0.500
   2  2.000   0.500   0.500   0.500   0.500

mulliken: Qtot =        4.000

mulliken: Spin DOWN 

Species: Si                  
Atom  Qatom  Qorb
               3s      3py     3pz     3px     
   1  2.000   0.500   0.500   0.500   0.500
   2  2.000   0.500   0.500   0.500   0.500

mulliken: Qtot =        4.000

* Maximum dynamic memory allocated =     7 MB

siesta:                 ==============================
                            Begin FC step =      4
                            displace atom        1
                            in direction         2
                            by         0.0400 Bohr
                        ==============================

outcoor: Atomic coordinates (fractional):                   
    0.00389817   -0.00389817    0.00389817   1  Si         1
    0.25000000    0.25000000    0.25000000   1  Si         2

superc: Internal auxiliary supercell:     5 x     5 x     5  =     125
superc: Number of atoms, orbitals, and projectors:    250  1000  2250

outcell: Unit cell vectors (Ang):
        0.000000    2.715000    2.715000
        2.715000    0.000000    2.715000
        2.715000    2.715000    0.000000

outcell: Cell vector modules (Ang)   :    3.839590    3.839590    3.839590
outcell: Cell angles (23,13,12) (deg):     60.0000     60.0000     60.0000
outcell: Cell volume (Ang**3)        :     40.0258

siesta: Eharris(eV) =    -193.415804


siesta: Eharris(eV) =    -193.415804


siesta: Atomic forces (eV/Ang):
     1    0.000000   -0.831806   -0.000001
     2    0.000000    0.841811    0.000000
----------------------------------------
   Tot    0.000000    0.010005    0.000000
----------------------------------------
   Max    0.841811
   Res    0.483140    sqrt( Sum f_i^2 / 3N )
----------------------------------------
   Max    0.841811    constrained

Stress-tensor-Voigt (kbar):     -425.79     -425.66     -425.79        0.00        0.00      -21.92
Target enthalpy (eV/cell)     -194.6894
 
mulliken: Atomic and Orbital Populations:

mulliken: Spin UP 

Species: Si                  
Atom  Qatom  Qorb
               3s      3py     3pz     3px     
   1  2.000   0.500   0.500   0.500   0.500
   2  2.000   0.500   0.500   0.500   0.500

mulliken: Qtot =        4.000

mulliken: Spin DOWN 

Species: Si                  
Atom  Qatom  Qorb
               3s      3py     3pz     3px     
   1  2.000   0.500   0.500   0.500   0.500
   2  2.000   0.500   0.500   0.500   0.500

mulliken: Qtot =        4.000

siesta: Calculating polarization. 

siesta: Macroscopic polarization for spin Up:

siesta: Macroscopic polarization per unit cell (a.u.):
siesta: Along the lattice vectors     10.883641    3.627908   10.883641
siesta: Along cartesian directions    10.261215   15.391793   10.261215

siesta: Macroscopic polarization per unit cell (Debye):
siesta: Along the lattice vectors     27.663476    9.221228   27.663476
siesta: Along cartesian directions    26.081424   39.122063   26.081424

siesta: Macroscopic polarization for spin Down:

siesta: Macroscopic polarization per unit cell (a.u.):
siesta: Along the lattice vectors     10.883641    3.627908   10.883641
siesta: Along cartesian directions    10.261214   15.391793   10.261215

siesta: Macroscopic polarization per unit cell (Debye):
siesta: Along the lattice vectors     27.663476    9.221228   27.663475
siesta: Along cartesian directions    26.081424   39.122062   26.081424

siesta: Sum along cartesian directions (a.u.): 
siesta:    20.522429   30.783586   20.522429

siesta: Sum along cartesian directions (Debye): 
siesta:    52.162848   78.244125   52.162848

obc: Macroscopic polarization for spin Up:

obc: Macroscopic polarization per unit cell along the lattice vectors (Bohr): 
obc:   10.883641    3.627908   10.883641

obc: Macroscopic polarization for spin Down:

obc: Macroscopic polarization per unit cell along the lattice vectors (Bohr): 
obc:   10.883641    3.627908   10.883641

* Maximum dynamic memory allocated =     7 MB

siesta:                 ==============================
                            Begin FC step =      5
                            displace atom        1
                            in direction         3
                            by        -0.0400 Bohr
                        ==============================

outcoor: Atomic coordinates (fractional):                   
   -0.00389817   -0.00389817    0.00389817   1  Si         1
    0.25000000    0.25000000    0.25000000   1  Si         2

superc: Internal auxiliary supercell:     5 x     5 x     5  =     125
superc: Number of atoms, orbitals, and projectors:    250  1000  2250

outcell: Unit cell vectors (Ang):
        0.000000    2.715000    2.715000
        2.715000    0.000000    2.715000
        2.715000    2.715000    0.000000

outcell: Cell vector modules (Ang)   :    3.839590    3.839590    3.839590
outcell: Cell angles (23,13,12) (deg):     60.0000     60.0000     60.0000
outcell: Cell volume (Ang**3)        :     40.0258

siesta: Eharris(eV) =    -193.415804


siesta: Eharris(eV) =    -193.415804


siesta: Atomic forces (eV/Ang):
     1    0.000000    0.000000    0.831805
     2    0.000000   -0.000001   -0.841811
----------------------------------------
   Tot    0.000000   -0.000001   -0.010006
----------------------------------------
   Max    0.841811
   Res    0.483140    sqrt( Sum f_i^2 / 3N )
----------------------------------------
   Max    0.841811    constrained

Stress-tensor-Voigt (kbar):     -425.79     -425.79     -425.66       21.92        0.00        0.00
Target enthalpy (eV/cell)     -194.6894
 
mulliken: Atomic and Orbital Populations:

mulliken: Spin UP 

Species: Si                  
Atom  Qatom  Qorb
               3s      3py     3pz     3px     
   1  2.000   0.500   0.500   0.500   0.500
   2  2.000   0.500   0.500   0.500   0.500

mulliken: Qtot =        4.000

mulliken: Spin DOWN 

Species: Si                  
Atom  Qatom  Qorb
               3s      3py     3pz     3px     
   1  2.000   0.500   0.500   0.500   0.500
   2  2.000   0.500   0.500   0.500   0.500

mulliken: Qtot =        4.000

* Maximum dynamic memory allocated =     7 MB

siesta:                 ==============================
                            Begin FC step =      6
                            displace atom        1
                            in direction         3
                            by         0.0400 Bohr
                        ==============================

outcoor: Atomic coordinates (fractional):                   
    0.00389817    0.00389817   -0.00389817   1  Si         1
    0.25000000    0.25000000    0.25000000   1  Si         2

superc: Internal auxiliary supercell:     5 x     5 x     5  =     125
superc: Number of atoms, orbitals, and projectors:    250  1000  2250

outcell: Unit cell vectors (Ang):
        0.000000    2.715000    2.715000
        2.715000    0.000000    2.715000
        2.715000    2.715000    0.000000

outcell: Cell vector modules (Ang)   :    3.839590    3.839590    3.839590
outcell: Cell angles (23,13,12) (deg):     60.0000     60.0000     60.0000
outcell: Cell volume (Ang**3)        :     40.0258

siesta: Eharris(eV) =    -193.415804


siesta: Eharris(eV) =    -193.415804


siesta: Atomic forces (eV/Ang):
     1    0.000000    0.000000   -0.831805
     2    0.000000    0.000000    0.841811
----------------------------------------
   Tot    0.000000    0.000000    0.010006
----------------------------------------
   Max    0.841811
   Res    0.483140    sqrt( Sum f_i^2 / 3N )
----------------------------------------
   Max    0.841811    constrained

Stress-tensor-Voigt (kbar):     -425.79     -425.79     -425.66      -21.92        0.00        0.00
Target enthalpy (eV/cell)     -194.6894
 
mulliken: Atomic and Orbital Populations:

mulliken: Spin UP 

Species: Si                  
Atom  Qatom  Qorb
               3s      3py     3pz     3px     
   1  2.000   0.500   0.500   0.500   0.500
   2  2.000   0.500   0.500   0.500   0.500

mulliken: Qtot =        4.000

mulliken: Spin DOWN 

Species: Si                  
Atom  Qatom  Qorb
               3s      3py     3pz     3px     
   1  2.000   0.500   0.500   0.500   0.500
   2  2.000   0.500   0.500   0.500   0.500

mulliken: Qtot =        4.000

siesta: Calculating polarization. 

siesta: Macroscopic polarization for spin Up:

siesta: Macroscopic polarization per unit cell (a.u.):
siesta: Along the lattice vectors     10.883641   10.883641    3.627908
siesta: Along cartesian directions    10.261215   10.261215   15.391793

siesta: Macroscopic polarization per unit cell (Debye):
siesta: Along the lattice vectors     27.663476   27.663476    9.221228
siesta: Along cartesian directions    26.081424   26.081424   39.122063

siesta: Macroscopic polarization for spin Down:

siesta: Macroscopic polarization per unit cell (a.u.):
siesta: Along the lattice vectors     10.883641   10.883641    3.627908
siesta: Along cartesian directions    10.261214   10.261214   15.391793

siesta: Macroscopic polarization per unit cell (Debye):
siesta: Along the lattice vectors     27.663475   27.663475    9.221228
siesta: Along cartesian directions    26.081424   26.081424   39.122062

siesta: Sum along cartesian directions (a.u.): 
siesta:    20.522429   20.522429   30.783586

siesta: Sum along cartesian directions (Debye): 
siesta:    52.162848   52.162848   78.244125

obc: Macroscopic polarization for spin Up:

obc: Macroscopic polarization per unit cell along the lattice vectors (Bohr): 
obc:   10.883641   10.883641    3.627908

obc: Macroscopic polarization for spin Down:

obc: Macroscopic polarization per unit cell along the lattice vectors (Bohr): 
obc:   10.883641   10.883641    3.627908

* Maximum dynamic memory allocated =     7 MB

siesta:                 ==============================
                            Begin FC step =      7
                            displace atom        2
                            in direction         1
                            by        -0.0400 Bohr
                        ==============================

outcoor: Atomic coordinates (fractional):                   
    0.00000000    0.00000000    0.00000000   1  Si         1
    0.25389817    0.24610183    0.24610183   1  Si         2

superc: Internal auxiliary supercell:     5 x     5 x     5  =     125
superc: Number of atoms, orbitals, and projectors:    250  1000  2250

outcell: Unit cell vectors (Ang):
        0.000000    2.715000    2.715000
        2.715000    0.000000    2.715000
        2.715000    2.715000    0.000000

outcell: Cell vector modules (Ang)   :    3.839590    3.839590    3.839590
outcell: Cell angles (23,13,12) (deg):     60.0000     60.0000     60.0000
outcell: Cell volume (Ang**3)        :     40.0258

siesta: Eharris(eV) =    -193.415803


siesta: Eharris(eV) =    -193.415803


siesta: Atomic forces (eV/Ang):
     1   -0.841812    0.000000    0.000000
     2    0.831806    0.000000    0.000000
----------------------------------------
   Tot   -0.010007    0.000000    0.000000
----------------------------------------
   Max    0.841812
   Res    0.483141    sqrt( Sum f_i^2 / 3N )
----------------------------------------
   Max    0.841812    constrained

Stress-tensor-Voigt (kbar):     -425.66     -425.79     -425.79        0.00      -21.92        0.00
Target enthalpy (eV/cell)     -194.6894
 
mulliken: Atomic and Orbital Populations:

mulliken: Spin UP 

Species: Si                  
Atom  Qatom  Qorb
               3s      3py     3pz     3px     
   1  2.000   0.500   0.500   0.500   0.500
   2  2.000   0.500   0.500   0.500   0.500

mulliken: Qtot =        4.000

mulliken: Spin DOWN 

Species: Si                  
Atom  Qatom  Qorb
               3s      3py     3pz     3px     
   1  2.000   0.500   0.500   0.500   0.500
   2  2.000   0.500   0.500   0.500   0.500

mulliken: Qtot =        4.000

* Maximum dynamic memory allocated =     7 MB

siesta:                 ==============================
                            Begin FC step =      8
                            displace atom        2
                            in direction         1
                            by         0.0400 Bohr
                        ==============================

outcoor: Atomic coordinates (fractional):                   
    0.00000000    0.00000000    0.00000000   1  Si         1
    0.24610183    0.25389817    0.25389817   1  Si         2

superc: Internal auxiliary supercell:     5 x     5 x     5  =     125
superc: Number of atoms, orbitals, and projectors:    250  1000  2250

outcell: Unit cell vectors (Ang):
        0.000000    2.715000    2.715000
        2.715000    0.000000    2.715000
        2.715000    2.715000    0.000000

outcell: Cell vector modules (Ang)   :    3.839590    3.839590    3.839590
outcell: Cell angles (23,13,12) (deg):     60.0000     60.0000     60.0000
outcell: Cell volume (Ang**3)        :     40.0258

siesta: Eharris(eV) =    -193.415803


siesta: Eharris(eV) =    -193.415803


siesta: Atomic forces (eV/Ang):
     1    0.841812    0.000000    0.000000
     2   -0.831806    0.000000    0.000000
----------------------------------------
   Tot    0.010006    0.000000    0.000000
----------------------------------------
   Max    0.841812
   Res    0.483141    sqrt( Sum f_i^2 / 3N )
----------------------------------------
   Max    0.841812    constrained

Stress-tensor-Voigt (kbar):     -425.66     -425.79     -425.79        0.00       21.92        0.00
Target enthalpy (eV/cell)     -194.6894
 
mulliken: Atomic and Orbital Populations:

mulliken: Spin UP 

Species: Si                  
Atom  Qatom  Qorb
               3s      3py     3pz     3px     
   1  2.000   0.500   0.500   0.500   0.500
   2  2.000   0.500   0.500   0.500   0.500

mulliken: Qtot =        4.000

mulliken: Spin DOWN 

Species: Si                  
Atom  Qatom  Qorb
               3s      3py     3pz     3px     
   1  2.000   0.500   0.500   0.500   0.500
   2  2.000   0.500   0.500   0.500   0.500

mulliken: Qtot =        4.000

siesta: Calculating polarization. 

siesta: Macroscopic polarization for spin Up:

siesta: Macroscopic polarization per unit cell (a.u.):
siesta: Along the lattice vectors      3.627911   10.883644   10.883644
siesta: Along cartesian directions    15.391798   10.261219   10.261219

siesta: Macroscopic polarization per unit cell (Debye):
siesta: Along the lattice vectors      9.221236   27.663484   27.663484
siesta: Along cartesian directions    39.122074   26.081436   26.081436

siesta: Macroscopic polarization for spin Down:

siesta: Macroscopic polarization per unit cell (a.u.):
siesta: Along the lattice vectors      3.627911   10.883645   10.883645
siesta: Along cartesian directions    15.391798   10.261219   10.261219

siesta: Macroscopic polarization per unit cell (Debye):
siesta: Along the lattice vectors      9.221236   27.663484   27.663484
siesta: Along cartesian directions    39.122075   26.081436   26.081436

siesta: Sum along cartesian directions (a.u.): 
siesta:    30.783596   20.522439   20.522439

siesta: Sum along cartesian directions (Debye): 
siesta:    78.244149   52.162872   52.162872

obc: Macroscopic polarization for spin Up:

obc: Macroscopic polarization per unit cell along the lattice vectors (Bohr): 
obc:    3.627911   10.883644   10.883644

obc: Macroscopic polarization for spin Down:

obc: Macroscopic polarization per unit cell along the lattice vectors (Bohr): 
obc:    3.627911   10.883645   10.883645

* Maximum dynamic memory allocated =     7 MB

siesta:                 ==============================
                            Begin FC step =      9
                            displace atom        2
                            in direction         2
                            by        -0.0400 Bohr
                        ==============================

outcoor: Atomic coordinates (fractional):                   
    0.00000000    0.00000000    0.00000000   1  Si         1
    0.24610183    0.25389817    0.24610183   1  Si         2

superc: Internal auxiliary supercell:     5 x     5 x     5  =     125
superc: Number of atoms, orbitals, and projectors:    250  1000  2250

outcell: Unit cell vectors (Ang):
        0.000000    2.715000    2.715000
        2.715000    0.000000    2.715000
        2.715000    2.715000    0.000000

outcell: Cell vector modules (Ang)   :    3.839590    3.839590    3.839590
outcell: Cell angles (23,13,12) (deg):     60.0000     60.0000     60.0000
outcell: Cell volume (Ang**3)        :     40.0258

siesta: Eharris(eV) =    -193.415804


siesta: Eharris(eV) =    -193.415804


siesta: Atomic forces (eV/Ang):
     1    0.000000   -0.841812    0.000000
     2    0.000000    0.831806    0.000000
----------------------------------------
   Tot    0.000000   -0.010006    0.000000
----------------------------------------
   Max    0.841812
   Res    0.483141    sqrt( Sum f_i^2 / 3N )
----------------------------------------
   Max    0.841812    constrained

Stress-tensor-Voigt (kbar):     -425.79     -425.66     -425.79        0.00        0.00      -21.92
Target enthalpy (eV/cell)     -194.6894
 
mulliken: Atomic and Orbital Populations:

mulliken: Spin UP 

Species: Si                  
Atom  Qatom  Qorb
               3s      3py     3pz     3px     
   1  2.000   0.500   0.500   0.500   0.500
   2  2.000   0.500   0.500   0.500   0.500

mulliken: Qtot =        4.000

mulliken: Spin DOWN 

Species: Si                  
Atom  Qatom  Qorb
               3s      3py     3pz     3px     
   1  2.000   0.500   0.500   0.500   0.500
   2  2.000   0.500   0.500   0.500   0.500

mulliken: Qtot =        4.000

* Maximum dynamic memory allocated =     7 MB

siesta:                 ==============================
                            Begin FC step =     10
                            displace atom        2
                            in direction         2
                            by         0.0400 Bohr
                        ==============================

outcoor: Atomic coordinates (fractional):                   
    0.00000000    0.00000000    0.00000000   1  Si         1
    0.25389817    0.24610183    0.25389817   1  Si         2

superc: Internal auxiliary supercell:     5 x     5 x     5  =     125
superc: Number of atoms, orbitals, and projectors:    250  1000  2250

outcell: Unit cell vectors (Ang):
        0.000000    2.715000    2.715000
        2.715000    0.000000    2.715000
        2.715000    2.715000    0.000000

outcell: Cell vector modules (Ang)   :    3.839590    3.839590    3.839590
outcell: Cell angles (23,13,12) (deg):     60.0000     60.0000     60.0000
outcell: Cell volume (Ang**3)        :     40.0258

siesta: Eharris(eV) =    -193.415803


siesta: Eharris(eV) =    -193.415803


siesta: Atomic forces (eV/Ang):
     1    0.000000    0.841812    0.000000
     2   -0.000001   -0.831806    0.000000
----------------------------------------
   Tot    0.000000    0.010006    0.000000
----------------------------------------
   Max    0.841812
   Res    0.483141    sqrt( Sum f_i^2 / 3N )
----------------------------------------
   Max    0.841812    constrained

Stress-tensor-Voigt (kbar):     -425.79     -425.66     -425.79        0.00        0.00       21.92
Target enthalpy (eV/cell)     -194.6894
 
mulliken: Atomic and Orbital Populations:

mulliken: Spin UP 

Species: Si                  
Atom  Qatom  Qorb
               3s      3py     3pz     3px     
   1  2.000   0.500   0.500   0.500   0.500
   2  2.000   0.500   0.500   0.500   0.500

mulliken: Qtot =        4.000

mulliken: Spin DOWN 

Species: Si                  
Atom  Qatom  Qorb
               3s      3py     3pz     3px     
   1  2.000   0.500   0.500   0.500   0.500
   2  2.000   0.500   0.500   0.500   0.500

mulliken: Qtot =        4.000

siesta: Calculating polarization. 

siesta: Macroscopic polarization for spin Up:

siesta: Macroscopic polarization per unit cell (a.u.):
siesta: Along the lattice vectors     10.883644    3.627911   10.883644
siesta: Along cartesian directions    10.261219   15.391798   10.261219

siesta: Macroscopic polarization per unit cell (Debye):
siesta: Along the lattice vectors     27.663484    9.221236   27.663484
siesta: Along cartesian directions    26.081436   39.122074   26.081436

siesta: Macroscopic polarization for spin Down:

siesta: Macroscopic polarization per unit cell (a.u.):
siesta: Along the lattice vectors     10.883645    3.627911   10.883645
siesta: Along cartesian directions    10.261219   15.391798   10.261219

siesta: Macroscopic polarization per unit cell (Debye):
siesta: Along the lattice vectors     27.663484    9.221237   27.663484
siesta: Along cartesian directions    26.081436   39.122075   26.081436

siesta: Sum along cartesian directions (a.u.): 
siesta:    20.522439   30.783595   20.522439

siesta: Sum along cartesian directions (Debye): 
siesta:    52.162872   78.244149   52.162872

obc: Macroscopic polarization for spin Up:

obc: Macroscopic polarization per unit cell along the lattice vectors (Bohr): 
obc:   10.883644    3.627911   10.883644

obc: Macroscopic polarization for spin Down:

obc: Macroscopic polarization per unit cell along the lattice vectors (Bohr): 
obc:   10.883645    3.627911   10.883645

* Maximum dynamic memory allocated =     7 MB

siesta:                 ==============================
                            Begin FC step =     11
                            displace atom        2
                            in direction         3
                            by        -0.0400 Bohr
                        ==============================

outcoor: Atomic coordinates (fractional):                   
    0.00000000    0.00000000    0.00000000   1  Si         1
    0.24610183    0.24610183    0.25389817   1  Si         2

superc: Internal auxiliary supercell:     5 x     5 x     5  =     125
superc: Number of atoms, orbitals, and projectors:    250  1000  2250

outcell: Unit cell vectors (Ang):
        0.000000    2.715000    2.715000
        2.715000    0.000000    2.715000
        2.715000    2.715000    0.000000

outcell: Cell vector modules (Ang)   :    3.839590    3.839590    3.839590
outcell: Cell angles (23,13,12) (deg):     60.0000     60.0000     60.0000
outcell: Cell volume (Ang**3)        :     40.0258

siesta: Eharris(eV) =    -193.415804


siesta: Eharris(eV) =    -193.415804


siesta: Atomic forces (eV/Ang):
     1    0.000000    0.000001   -0.841813
     2    0.000000    0.000000    0.831806
----------------------------------------
   Tot    0.000000    0.000001   -0.010006
----------------------------------------
   Max    0.841813
   Res    0.483141    sqrt( Sum f_i^2 / 3N )
----------------------------------------
   Max    0.841813    constrained

Stress-tensor-Voigt (kbar):     -425.79     -425.79     -425.66      -21.92        0.00        0.00
Target enthalpy (eV/cell)     -194.6894
 
mulliken: Atomic and Orbital Populations:

mulliken: Spin UP 

Species: Si                  
Atom  Qatom  Qorb
               3s      3py     3pz     3px     
   1  2.000   0.500   0.500   0.500   0.500
   2  2.000   0.500   0.500   0.500   0.500

mulliken: Qtot =        4.000

mulliken: Spin DOWN 

Species: Si                  
Atom  Qatom  Qorb
               3s      3py     3pz     3px     
   1  2.000   0.500   0.500   0.500   0.500
   2  2.000   0.500   0.500   0.500   0.500

mulliken: Qtot =        4.000

* Maximum dynamic memory allocated =     7 MB

siesta:                 ==============================
                            Begin FC step =     12
                            displace atom        2
                            in direction         3
                            by         0.0400 Bohr
                        ==============================

outcoor: Atomic coordinates (fractional):                   
    0.00000000    0.00000000    0.00000000   1  Si         1
    0.25389817    0.25389817    0.24610183   1  Si         2

superc: Internal auxiliary supercell:     5 x     5 x     5  =     125
superc: Number of atoms, orbitals, and projectors:    250  1000  2250

outcell: Unit cell vectors (Ang):
        0.000000    2.715000    2.715000
        2.715000    0.000000    2.715000
        2.715000    2.715000    0.000000

outcell: Cell vector modules (Ang)   :    3.839590    3.839590    3.839590
outcell: Cell angles (23,13,12) (deg):     60.0000     60.0000     60.0000
outcell: Cell volume (Ang**3)        :     40.0258

siesta: Eharris(eV) =    -193.415803


siesta: Eharris(eV) =    -193.415803


siesta: Atomic forces (eV/Ang):
     1    0.000000    0.000000    0.841812
     2    0.000000    0.000000   -0.831806
----------------------------------------
   Tot    0.000000    0.000000    0.010006
----------------------------------------
   Max    0.841812
   Res    0.483141    sqrt( Sum f_i^2 / 3N )
----------------------------------------
   Max    0.841812    constrained

Stress-tensor-Voigt (kbar):     -425.79     -425.79     -425.66       21.92        0.00        0.00
Target enthalpy (eV/cell)     -194.6894
 
mulliken: Atomic and Orbital Populations:

mulliken: Spin UP 

Species: Si                  
Atom  Qatom  Qorb
               3s      3py     3pz     3px     
   1  2.000   0.500   0.500   0.500   0.500
   2  2.000   0.500   0.500   0.500   0.500

mulliken: Qtot =        4.000

mulliken: Spin DOWN 

Species: Si                  
Atom  Qatom  Qorb
               3s      3py     3pz     3px     
   1  2.000   0.500   0.500   0.500   0.500
   2  2.000   0.500   0.500   0.500   0.500

mulliken: Qtot =        4.000

siesta: Calculating polarization. 

siesta: Macroscopic polarization for spin Up:

siesta: Macroscopic polarization per unit cell (a.u.):
siesta: Along the lattice vectors     10.883644   10.883644    3.627911
siesta: Along cartesian directions    10.261219   10.261219   15.391798

siesta: Macroscopic polarization per unit cell (Debye):
siesta: Along the lattice vectors     27.663484   27.663484    9.221236
siesta: Along cartesian directions    26.081436   26.081436   39.122074

siesta: Macroscopic polarization for spin Down:

siesta: Macroscopic polarization per unit cell (a.u.):
siesta: Along the lattice vectors     10.883645   10.883645    3.627911
siesta: Along cartesian directions    10.261219   10.261219   15.391798

siesta: Macroscopic polarization per unit cell (Debye):
siesta: Along the lattice vectors     27.663484   27.663484    9.221237
siesta: Along cartesian directions    26.081436   26.081436   39.122075

siesta: Sum along cartesian directions (a.u.): 
siesta:    20.522439   20.522439   30.783596

siesta: Sum along cartesian directions (Debye): 
siesta:    52.162872   52.162872   78.244149

obc: Macroscopic polarization for spin Up:

obc: Macroscopic polarization per unit cell along the lattice vectors (Bohr): 
obc:   10.883644   10.883644    3.627911

obc: Macroscopic polarization for spin Down:

obc: Macroscopic polarization per unit cell along the lattice vectors (Bohr): 
obc:   10.883645   10.883645    3.627911

* Maximum dynamic memory allocated =     7 MB

siesta: Eigenvalues (eV):
  ik is    eps
   1  1 -17.17  -4.98  -4.86  -4.74  -2.03  -1.94  -1.84  -1.74
   1  2 -15.12  -2.89  -2.77  -2.66  -0.02   0.07   0.17   0.27
siesta: Fermi energy =      -2.347973 eV

siesta: Program's energy decomposition (eV):
siesta: Eions   =       380.802124
siesta: Ena     =       115.501483
siesta: Ekin    =       115.577905
siesta: Enl     =        29.935836
siesta: DEna    =        -8.120537
siesta: DUscf   =         1.765891
siesta: DUext   =         0.000000
siesta: Exc     =       -68.547872
siesta: eta*DQ  =         0.000000
siesta: Emadel  =         0.000000
siesta: Ekinion =         0.000000
siesta: Eharris =      -193.415803
siesta: Etot    =      -194.689419
siesta: FreeEng =      -194.689423

siesta: Final energy (eV):
siesta:       Kinetic =     115.577905
siesta:       Hartree =      23.678138
siesta:    Ext. field =       0.000000
siesta:   Exch.-corr. =     -68.547872
siesta:  Ion-electron =    -120.258591
siesta:       Ion-ion =    -145.138999
siesta:       Ekinion =       0.000000
siesta:         Total =    -194.689419

siesta: Atomic forces (eV/Ang):
siesta:      1    0.000000    0.000000    0.841812
siesta:      2    0.000000    0.000000   -0.831806
siesta: ----------------------------------------
siesta:    Tot    0.000000    0.000000    0.010006

siesta: Stress tensor (static) (eV/Ang**3):
siesta:    -0.265754    0.013680    0.000000
siesta:     0.013680   -0.265754    0.000000
siesta:     0.000000    0.000000   -0.265675

siesta: Cell volume =         40.025752 Ang**3

siesta: Pressure (static):
siesta:                Solid            Molecule  Units
siesta:           0.00289411          0.00299875  Ry/Bohr**3
siesta:           0.26572733          0.27533515  eV/Ang**3
siesta:         425.74671548        441.14031259  kBar

siesta: Total spin polarization (Qup-Qdown) =    0.000011

* Maximum dynamic memory allocated : Node    0 =     7 MB

* Maximum memory occured during ranger                        

timer: CPU execution times:
timer:  Routine       Calls   Time/call    Tot.time        %
timer:  siesta            1      23.622      23.622   100.00
timer:  Setup             1       0.232       0.232     0.98
timer:  bands             1       0.000       0.000     0.00
timer:  writewave         1       0.001       0.001     0.00
timer:  KSV_init          1       0.000       0.000     0.00
timer:  IterMD           13       1.799      23.385    99.00
timer:  hsparse          14       0.017       0.238     1.01
timer:  overfsm          26       0.003       0.083     0.35
timer:  IterSCF          26       0.798      20.738    87.79
timer:  kinefsm          26       0.002       0.065     0.28
timer:  nlefsm           26       0.164       4.255    18.01
timer:  DHSCF            26       0.628      16.317    69.07
timer:  DHSCF1            1       0.293       0.293     1.24
timer:  DHSCF2           13       0.359       4.663    19.74
timer:  REORD           390       0.000       0.022     0.09
timer:  POISON           39       0.005       0.189     0.80
timer:  DHSCF3           26       0.229       5.941    25.15
timer:  rhoofd           26       0.075       1.957     8.28
timer:  cellXC           39       0.026       1.031     4.36
timer:  vmat             26       0.120       3.114    13.18
timer:  diagon           13       0.002       0.026     0.11
timer:  cdiag          1816       0.000       0.329     1.39
timer:  cdiag1         1816       0.000       0.017     0.07
timer:  cdiag2         1816       0.000       0.035     0.15
timer:  cdiag3         1816       0.000       0.215     0.91
timer:  cdiag4         1816       0.000       0.014     0.06
timer:  DHSCF4           13       0.415       5.399    22.86
timer:  dfscf            13       0.316       4.112    17.41
timer:  KSV_pol           7       0.289       2.024     8.57
timer:  optical           1       0.000       0.000     0.00
  

elaps: ELAPSED times:
elaps:  Routine       Calls   Time/call    Tot.time        %
elaps:  siesta            1      23.893      23.893   100.00
elaps:  Setup             1       0.353       0.353     1.48
elaps:  bands             1       0.001       0.001     0.00
elaps:  writewave         1       0.002       0.002     0.01
elaps:  KSV_init          1       0.004       0.004     0.01
elaps:  IterMD           13       1.810      23.526    98.46
elaps:  hsparse          14       0.017       0.237     0.99
elaps:  overfsm          26       0.003       0.084     0.35
elaps:  IterSCF          26       0.799      20.782    86.98
elaps:  kinefsm          26       0.003       0.068     0.29
elaps:  nlefsm           26       0.164       4.260    17.83
elaps:  DHSCF            26       0.628      16.336    68.37
elaps:  DHSCF1            1       0.293       0.293     1.23
elaps:  DHSCF2           13       0.359       4.672    19.55
elaps:  REORD           390       0.000       0.022     0.09
elaps:  POISON           39       0.005       0.188     0.79
elaps:  DHSCF3           26       0.229       5.947    24.89
elaps:  rhoofd           26       0.075       1.960     8.20
elaps:  cellXC           39       0.027       1.036     4.34
elaps:  vmat             26       0.120       3.114    13.03
elaps:  diagon           13       0.002       0.031     0.13
elaps:  cdiag          1816       0.000       0.304     1.27
elaps:  cdiag1         1816       0.000       0.016     0.07
elaps:  cdiag2         1816       0.000       0.031     0.13
elaps:  cdiag3         1816       0.000       0.201     0.84
elaps:  cdiag4         1816       0.000       0.013     0.05
elaps:  DHSCF4           13       0.416       5.402    22.61
elaps:  dfscf            13       0.317       4.115    17.22
elaps:  KSV_pol           7       0.293       2.053     8.59
elaps:  optical           1       0.001       0.001     0.00
  
>> End of run:  18-MAY-2007  15:55:23
