Siesta Version:                                        siesta-3.1
Architecture  : ifort11-macosx64
Compiler flags: ifort  -O2
SERIAL version

* Running in serial mode
>> Start of run:  10-JUN-2011  14:26:12

                           ***********************       
                           *  WELCOME TO SIESTA  *       
                           ***********************       

reinit: Reading from standard input
************************** Dump of input data file ****************************
SystemName methane fcc  With vdW. Pre-packaged molecules
SystemLabel ch4
NumberOfSpecies 2
NumberOfAtoms   5
%block ChemicalSpeciesLabel
1    6 C.pbe
2    1 H.pbe
%endblock ChemicalSpeciesLabel
%block PS.lmax
   C.pbe 2
%endblock PS.lmax
PAO.BasisSize   DZP
kgrid_cutoff    10.0 Ang
MeshCutoff      200 Ry
PAO.EnergyShift 0.001 Ry
# DFT, Grid, SCF
XC.functional           GGA
XC.authors              PBE
MaxSCFIterations        80
DM.MixingWeight         0.150
DM.Tolerance            1.d-4
DM.NumberPulay          5      # Number of SCF steps between pulay mixing
# Relaxation, smearing, etc.
ElectronicTemperature   500 K
#
# Zmatrix for methane in fcc structure
#
LatticeConstant 5.96 Ang
%block LatticeVectors
          0.5    0.5   0.0
          0.5    0.0   0.5
          0.0    0.5   0.5
%endblock LatticeVectors
ZM.UnitsLength Ang
ZM.UnitsAngle rad
#
# Zmatrix block: Only the orientation of the molecule
# is allowed to vary (three angles). In particular,
# the CH bond-length is fixed to a value lower than
# the theoretically optimal, so there is an intramolecular
# contribution to the stress which is deactivated below
#
%block Zmatrix
molecule_fractional
 1   0   0   0      0.0             0.0     0.0          0   0   0
 2   1   0   0      CH      0.7             1.5          0   1   1
 2   1   2   0      CH      1.91063300      2.09439500   0   0   1
 2   1   2   3      CH      1.91063300      2.09439500   0   0   0
 2   1   2   4      CH      1.91063300      2.09439500   0   0   0
constants
CH 1.060015
%endblock Zmatrix
MD.TypeOfRun            Broyden     # Type of dynamics
MD.VariableCell         T
MD.RemoveIntraMolecularPressure T
MD.NumCGsteps           30
%block MM.Potentials
1 1 C6 25.065 2.0
2 2 C6  1.130 2.0
1 2 C6  4.900 2.0
%endblock MM.Potentials
************************** End of input data file *****************************

reinit: -----------------------------------------------------------------------
reinit: System Name: methane fcc  With vdW. Pre-packaged molecules
reinit: -----------------------------------------------------------------------
reinit: System Label: ch4                                                         
reinit: -----------------------------------------------------------------------
Reading two-body potentials
C6 - two-body potential between   1 and   1
C6 - two-body potential between   2 and   2
C6 - two-body potential between   1 and   2

initatom: Reading input for the pseudopotentials and atomic orbitals ----------
 Species number:            1  Label: C.pbe Atomic number:           6
 Species number:            2  Label: H.pbe Atomic number:           1
Ground state valence configuration:   2s02  2p02
Reading pseudopotential information in formatted form from C.pbe.psf

Valence configuration for pseudopotential generation:
2s( 2.00) rc: 1.49
2p( 2.00) rc: 1.52
3d( 0.00) rc: 1.52
Ground state valence configuration:   1s01
Reading pseudopotential information in formatted form from H.pbe.psf

Valence configuration for pseudopotential generation:
1s( 1.00) rc: 1.43
2p( 0.00) rc: 1.25
3d( 0.00) rc: 1.25
4f( 0.00) rc: 1.25
relmxkb: Read Max KB Ang. Momentum=    2 for species C.pbe
For H.pbe, standard SIESTA heuristics set lmxkb to 2
 (one more than the basis l, including polarization orbitals).
Use PS.lmax or PS.KBprojectors blocks to override.

<basis_specs>
===============================================================================
C.pbe                Z=   6    Mass=  12.010        Charge= 0.17977+309
Lmxo=1 Lmxkb=2     BasisType=split      Semic=F
L=0  Nsemic=0  Cnfigmx=2
          n=1  nzeta=2  polorb=0
            splnorm:   0.15000    
               vcte:    0.0000    
               rinn:    0.0000    
                rcs:    0.0000      0.0000    
            lambdas:    1.0000      1.0000    
L=1  Nsemic=0  Cnfigmx=2
          n=1  nzeta=2  polorb=1
            splnorm:   0.15000    
               vcte:    0.0000    
               rinn:    0.0000    
                rcs:    0.0000      0.0000    
            lambdas:    1.0000      1.0000    
-------------------------------------------------------------------------------
L=0  Nkbl=1  erefs: 0.17977+309
L=1  Nkbl=1  erefs: 0.17977+309
L=2  Nkbl=1  erefs: 0.17977+309
===============================================================================
</basis_specs>

atom: Called for C.pbe                 (Z =   6)

read_vps: Pseudopotential generation method:
read_vps: ATM 3.2.2 Troullier-Martins                       
Total valence charge:    4.00000

read_vps: Pseudopotential includes a core correction:
read_vps: Pseudo-core for xc-correction

xc_check: Exchange-correlation functional:
xc_check: GGA Perdew, Burke & Ernzerhof 1996
V l=0 = -2*Zval/r beyond r=  1.4666
V l=1 = -2*Zval/r beyond r=  1.5038
V l=2 = -2*Zval/r beyond r=  1.5038
All V_l potentials equal beyond r=  1.5038
This should be close to max(r_c) in ps generation
All pots = -2*Zval/r beyond r=  1.5038

VLOCAL1: 99.0% of the norm of Vloc inside     19.196 Ry
VLOCAL1: 99.9% of the norm of Vloc inside     43.748 Ry
atom: Maximum radius for 4*pi*r*r*local-pseudopot. charge    1.81396
atom: Maximum radius for r*vlocal+2*Zval:    1.56123
GHOST: No ghost state for L =  0
GHOST: No ghost state for L =  1
GHOST: No ghost state for L =  2

KBgen: Kleinman-Bylander projectors: 
   l= 0   rc=  1.682861   el= -1.009802   Ekb=  5.530688   kbcos=  0.309203
   l= 1   rc=  1.682861   el= -0.388707   Ekb= -3.901042   kbcos= -0.358653
   l= 2   rc=  1.769164   el=  0.001971   Ekb= -0.965319   kbcos= -0.008918

KBgen: Total number of  Kleinman-Bylander projectors:    9
atom: -------------------------------------------------------------------------

atom: SANKEY-TYPE ORBITALS:
atom: Selected multiple-zeta basis: split     

SPLIT: Orbitals with angular momentum L= 0

SPLIT: Basis orbitals for state 2s

SPLIT: PAO cut-off radius determined from an
SPLIT: energy shift=  0.001000 Ry

   izeta = 1
                 lambda =    1.000000
                     rc =    5.801806
                 energy =   -1.009004
                kinetic =    0.829165
    potential(screened) =   -1.838170
       potential(ionic) =   -5.378487

   izeta = 2
                 rmatch =    3.518811
              splitnorm =    0.150000
                 energy =   -0.885169
                kinetic =    1.273297
    potential(screened) =   -2.158466
       potential(ionic) =   -5.945214

SPLIT: Orbitals with angular momentum L= 1

SPLIT: Basis orbitals for state 2p

SPLIT: PAO cut-off radius determined from an
SPLIT: energy shift=  0.001000 Ry

   izeta = 1
                 lambda =    1.000000
                     rc =    7.449784
                 energy =   -0.387885
                kinetic =    2.312128
    potential(screened) =   -2.700012
       potential(ionic) =   -6.078394

   izeta = 2
                 rmatch =    3.792903
              splitnorm =    0.150000
                 energy =   -0.276938
                kinetic =    3.389980
    potential(screened) =   -3.666918
       potential(ionic) =   -7.425500

POLgen: Perturbative polarization orbital with L=  2

POLgen: Polarization orbital for state 2p

   izeta = 1
                     rc =    7.449784
                 energy =    0.930146
                kinetic =    1.972968
    potential(screened) =   -1.042822
       potential(ionic) =   -3.697087
atom: Total number of Sankey-type orbitals: 13

atm_pop: Valence configuration (for local Pseudopot. screening):
 2s( 2.00)                                                            
 2p( 2.00)                                                            
Vna: chval, zval:    4.00000   4.00000

Vna:  Cut-off radius for the neutral-atom potential:   7.449784
comcore: Pseudo-core radius Rcore=  1.791422

atom: _________________________________________________________________________

<basis_specs>
===============================================================================
H.pbe                Z=   1    Mass=  1.0100        Charge= 0.17977+309
Lmxo=0 Lmxkb=2     BasisType=split      Semic=F
L=0  Nsemic=0  Cnfigmx=1
          n=1  nzeta=2  polorb=1
            splnorm:   0.15000    
               vcte:    0.0000    
               rinn:    0.0000    
                rcs:    0.0000      0.0000    
            lambdas:    1.0000      1.0000    
-------------------------------------------------------------------------------
L=0  Nkbl=1  erefs: 0.17977+309
L=1  Nkbl=1  erefs: 0.17977+309
L=2  Nkbl=1  erefs: 0.17977+309
===============================================================================
</basis_specs>

atom: Called for H.pbe                 (Z =   1)

read_vps: Pseudopotential generation method:
read_vps: ATM 3.2.2 Troullier-Martins                       
Total valence charge:    1.00000

xc_check: Exchange-correlation functional:
xc_check: GGA Perdew, Burke & Ernzerhof 1996
V l=0 = -2*Zval/r beyond r=  1.4166
V l=1 = -2*Zval/r beyond r=  1.3816
V l=2 = -2*Zval/r beyond r=  1.3816
All V_l potentials equal beyond r=  1.4166
This should be close to max(r_c) in ps generation
All pots = -2*Zval/r beyond r=  1.4166

VLOCAL1: 99.0% of the norm of Vloc inside     21.631 Ry
VLOCAL1: 99.9% of the norm of Vloc inside     49.298 Ry
atom: Maximum radius for 4*pi*r*r*local-pseudopot. charge    1.66698
atom: Maximum radius for r*vlocal+2*Zval:    1.39896
GHOST: No ghost state for L =  0
GHOST: No ghost state for L =  1
GHOST: No ghost state for L =  2

KBgen: Kleinman-Bylander projectors: 
   l= 0   rc=  1.565833   el= -0.477200   Ekb= -1.851072   kbcos= -0.391986
   l= 1   rc=  1.646243   el=  0.001076   Ekb= -0.560969   kbcos= -0.025747
   l= 2   rc=  1.687980   el=  0.002010   Ekb= -0.184546   kbcos= -0.003662

KBgen: Total number of  Kleinman-Bylander projectors:    9
atom: -------------------------------------------------------------------------

atom: SANKEY-TYPE ORBITALS:
atom: Selected multiple-zeta basis: split     

SPLIT: Orbitals with angular momentum L= 0

SPLIT: Basis orbitals for state 1s

SPLIT: PAO cut-off radius determined from an
SPLIT: energy shift=  0.001000 Ry

   izeta = 1
                 lambda =    1.000000
                     rc =    7.026209
                 energy =   -0.476249
                kinetic =    0.864355
    potential(screened) =   -1.340604
       potential(ionic) =   -1.858348

   izeta = 2
                 rmatch =    4.103729
              splitnorm =    0.150000
                 energy =   -0.388115
                kinetic =    1.394286
    potential(screened) =   -1.782401
       potential(ionic) =   -2.328147

POLgen: Perturbative polarization orbital with L=  1

POLgen: Polarization orbital for state 1s

   izeta = 1
                     rc =    7.026209
                 energy =    0.513965
                kinetic =    1.105770
    potential(screened) =   -0.591806
       potential(ionic) =   -1.053548
atom: Total number of Sankey-type orbitals:  5

atm_pop: Valence configuration (for local Pseudopot. screening):
 1s( 1.00)                                                            
Vna: chval, zval:    1.00000   1.00000

Vna:  Cut-off radius for the neutral-atom potential:   7.026209

atom: _________________________________________________________________________

prinput: Basis input ----------------------------------------------------------

PAO.BasisType split     

%block ChemicalSpeciesLabel
    1    6 C.pbe                   # Species index, atomic number, species label
    2    1 H.pbe                   # Species index, atomic number, species label
%endblock ChemicalSpeciesLabel

%block PAO.Basis                 # Define Basis set
C.pbe                 2                    # Species label, number of l-shells
 n=2   0   2                         # n, l, Nzeta 
   5.802      3.519   
   1.000      1.000   
 n=2   1   2 P   1                   # n, l, Nzeta, Polarization, NzetaPol
   7.450      3.793   
   1.000      1.000   
H.pbe                 1                    # Species label, number of l-shells
 n=1   0   2 P   1                   # n, l, Nzeta, Polarization, NzetaPol
   7.026      4.104   
   1.000      1.000   
%endblock PAO.Basis

prinput: ----------------------------------------------------------------------

coor:   Atomic-coordinates input format  =     Cartesian coordinates
coor:                                            (in Bohr units)
read_Zmatrix: Length units: Ang       
read_Zmatrix: Angle  units: rad       
read_Zmatrix: Force tolerances:
read_Zmatrix:    for lengths =     0.001556 Ry/Bohr
read_Zmatrix:    for angles  =     0.003565 Ry/rad

read_Zmatrix: Maximum displacements:
read_Zmatrix:    for lengths =     0.200000 Bohr
read_Zmatrix:    for angles  =     0.003000 rad
%block Zmatrix
molecule_fractional
 1   0   0   0      0.0             0.0     0.0          0   0   0
 2   1   0   0      CH      0.7             1.5          0   1   1
 2   1   2   0      CH      1.91063300      2.09439500   0   0   1
 2   1   2   3      CH      1.91063300      2.09439500   0   0   0
 2   1   2   4      CH      1.91063300      2.09439500   0   0   0
constants
CH 1.060015
%endblock Zmatrix

zmatrix: Z-matrix coordinates: (Ang ; rad )
zmatrix: (Fractional coordinates have been converted to cartesian)
molecule    1 (     5 atoms)
      0.00000000      0.00000000      0.00000000
      1.06001500      0.70000000      1.50000000
      1.06001500      1.91063300      2.09439500
      1.06001500      1.91063300      2.09439500
      1.06001500      1.91063300      2.09439500


Z-matrix Symbol Section -------
Variables
Constants
 ch           1.06001500000000     
------------ End of Z-matrix Information


siesta: Atomic coordinates (Bohr) and species
siesta:      0.00000   0.00000   0.00000  1        1
siesta:      0.09128   1.28722   1.53209  2        2
siesta:     -1.61080   0.40704  -1.11902  2        3
siesta:      1.65212   0.17565  -1.11902  2        4
siesta:     -0.13260  -1.86992   0.70596  2        5

siesta: System type = bulk      

initatomlists: Number of atoms, orbitals, and projectors:      5    33    45

siesta: ******************** Simulation parameters ****************************
siesta:
siesta: The following are some of the parameters of the simulation.
siesta: A complete list of the parameters used, including default values,
siesta: can be found in file out.fdf
siesta:
redata: Non-Collinear-spin run           =     F
redata: SpinPolarized (Up/Down) run      =     F
redata: Number of spin components        =     1
redata: Long output                      =     F
redata: Number of Atomic Species         =        2
redata: Charge density info will appear in .RHO file
redata: Write Mulliken Pop.              =     NO
redata: Mesh Cutoff                      =   200.0000  Ry
redata: Net charge of the system         =     0.0000 |e|
redata: Max. number of SCF Iter          =       80
redata: Performing Pulay mixing using    =     5 iterations
redata: Mix DM in first SCF step ?       =     F
redata: Write Pulay info on disk?        =     F
redata: Discard 1st Pulay DM after  kick =     F
redata: New DM Mixing Weight             =     0.1500
redata: New DM Occupancy tolerance       = 0.000000000001
redata: No kicks to SCF
redata: DM Mixing Weight for Kicks       =     0.5000
redata: DM Tolerance for SCF             =     0.000100
redata: Require Energy convergence for SCF =     F
redata: DM Energy tolerance for SCF      =     0.000100 eV
redata: Require Harris convergence for SCF =     F
redata: DM Harris energy tolerance for SCF =     0.000100 eV
redata: Using Saved Data (generic)   =     F
redata: Use continuation files for DM    =     F
redata: Neglect nonoverlap interactions  =     F
redata: Method of Calculation            =     Diagonalization
redata: Divide and Conquer               =     T
redata: Electronic Temperature           =     0.0032  Ry
redata: Fix the spin of the system       =     F
redata: Dynamics option                  =     Broyden coord. optimization
redata: Variable cell                    =     T
redata: Maximum number of CG moves       =       30
redata: Force tolerance                  =     0.0016  Ry/Bohr
redata: Stress tolerance                 =     1.0000  GPa
redata: ***********************************************************************
Total number of electrons:     8.000000
Total ionic charge:     8.000000
 Kpoints in:           75 . Kpoints trimmed:           63

siesta: k-grid: Number of k-points =    63
siesta: k-grid: Cutoff (effective) =    10.536 Ang
siesta: k-grid: Supercell and displacements
siesta: k-grid:    0   5   0      0.000
siesta: k-grid:    0   0   5      0.000
siesta: k-grid:    5   0   0      0.000
Naive supercell factors:     5    5    5

superc: Internal auxiliary supercell:     5 x     5 x     5  =     125
superc: Number of atoms, orbitals, and projectors:    625   4125   5625

* Maximum dynamic memory allocated =     2 MB

siesta:                 ==============================
                            Begin CG move =      0

zmatrix: Z-matrix coordinates: (Ang ; rad )
zmatrix: (Fractional coordinates have been converted to cartesian)
molecule    1 (     5 atoms)
      0.00000000      0.00000000      0.00000000
      1.06001500      0.70000000      1.50000000
      1.06001500      1.91063300      2.09439500
      1.06001500      1.91063300      2.09439500
      1.06001500      1.91063300      2.09439500


Z-matrix Symbol Section -------
Variables
Constants
 ch           1.06001500000000     
------------ End of Z-matrix Information

                        ==============================

superc: Internal auxiliary supercell:     5 x     5 x     5  =     125
superc: Number of atoms, orbitals, and projectors:    625   4125   5625

outcell: Unit cell vectors (Ang):
        2.980000    2.980000    0.000000
        2.980000    0.000000    2.980000
        0.000000    2.980000    2.980000

outcell: Cell vector modules (Ang)   :    4.214356    4.214356    4.214356
outcell: Cell angles (23,13,12) (deg):     60.0000     60.0000     60.0000
outcell: Cell volume (Ang**3)        :     52.9272
New_DM. Step:     1
Initializing Density Matrix...

InitMesh: MESH =    30 x    30 x    30 =       27000
InitMesh: Mesh cutoff (required, used) =   200.000   210.074 Ry

* Maximum dynamic memory allocated =    32 MB

MM-Stress (kbar):        5.38        5.36        5.42        0.00        0.02        0.00

stepf: Fermi-Dirac step function

siesta: Program's energy decomposition (eV):
siesta: Ebs     =      -134.645203
siesta: Eions   =       327.497989
siesta: Ena     =        78.608453
siesta: Ekin    =       132.522543
siesta: Enl     =       -16.122252
siesta: DEna    =        -0.000011
siesta: DUscf   =         0.000000
siesta: DUext   =         0.000000
siesta: Exc     =       -81.440179
siesta: eta*DQ  =         0.000000
siesta: Emadel  =         0.000000
siesta: Emeta   =         0.000000
siesta: Emolmec =        -0.193689
siesta: Ekinion =         0.000000
siesta: Eharris =      -224.825150
siesta: Etot    =      -214.123123
siesta: FreeEng =      -214.123123

siesta: iscf   Eharris(eV)      E_KS(eV)   FreeEng(eV)   dDmax  Ef(eV)
siesta:    1     -224.8251     -214.1231     -214.1231  1.6215-11.0180
timer: Routine,Calls,Time,% = IterSCF        1       6.493  86.78
elaps: Routine,Calls,Wall,% = IterSCF        1       6.493  86.78
siesta:    2     -225.4655     -219.1003     -219.1003  0.7552 -4.5462
siesta:    3     -222.1408     -218.9865     -218.9865  0.6265 -6.9999
siesta:    4     -221.9642     -219.8211     -219.8211  0.4483 -7.2236
siesta:    5     -221.9129     -221.4947     -221.4947  0.0672 -7.4794
siesta:    6     -221.8973     -221.9435     -221.9435  0.0022 -7.2981
siesta:    7     -221.8973     -221.9328     -221.9328  0.0018 -7.3004
siesta:    8     -221.8973     -221.9005     -221.9005  0.0001 -7.3062
siesta:    9     -221.8973     -221.8976     -221.8976  0.0000 -7.3068

MM-Stress (kbar):        5.38        5.36        5.42        0.00        0.02        0.00

siesta: E_KS(eV) =             -221.8972

siesta: E_KS - E_eggbox =      -221.8972

zmatrix: Atomic forces (eV/Ang ; eV/rad )
zmatrix: (No information if symbols are used)
molecule    1 (     5 atoms)
     1    0.000000    0.000000    0.000000
     2    0.000000    0.026113    0.012698
     3    0.000000    0.000000   -0.008504
     4    0.000000    0.000000    0.000000
     5    0.000000    0.000000    0.000000


Variable forces (eV/Ang ; eV/rad )

siesta: Atomic forces (eV/Ang):
----------------------------------------
   Tot    0.002478   -0.000846   -0.001925
----------------------------------------
   Max    1.729779
   Res    0.959509    sqrt( Sum f_i^2 / 3N )
----------------------------------------
   Max    1.729779    constrained

Stress-tensor-Voigt (kbar):      -75.21      -74.93      -73.92       -0.02        0.34        0.08
(Free)E + p*V (eV/cell)     -219.4300

Inter-Molecular-Stress-Voigt (kbar):        4.29        4.56        5.58       -0.02        0.34        0.08
(Free)E + p_inter_molec * V  (eV/cell)     -222.0561
Target enthalpy (eV/cell)     -221.8972

siesta: Stress tensor (static) (eV/Ang**3):
        -0.046939   -0.000013    0.000052
        -0.000013   -0.046770    0.000214
         0.000052    0.000215   -0.046137

siesta: Pressure (static):         74.68630800  kBar

siesta: Stress tensor (total) (eV/Ang**3):
        -0.046939   -0.000013    0.000052
        -0.000013   -0.046770    0.000214
         0.000052    0.000215   -0.046137

siesta: Pressure (total):         74.68630800  kBar

siesta: Stress tensor (nonmol) (eV/Ang**3):
         0.002677   -0.000013    0.000052
        -0.000013    0.002847    0.000214
         0.000052    0.000215    0.003480

siesta: Pressure (nonmol):         -4.80865196  kBar

siesta: Stress tensor (nonmol+kin) (eV/Ang**3):
         0.002677   -0.000013    0.000052
        -0.000013    0.002847    0.000214
         0.000052    0.000215    0.003480

siesta: Pressure (nonmol+kin):         -4.80865196  kBar
 
Broyden_optim: max_history for broyden:   5
Broyden_optim: cycle on maxit: T
Broyden_optim: initial inverse jacobian:   1.0000
 
Broyden_optim: No of elements:      9

cgvc_zmatrix: No target stress found, assuming hydrostatic MD.TargetPressure.

cgvc_zmatrix: Target stress (kBar)
cgvc_zmatrix:         0.000       0.000       0.000
cgvc_zmatrix:         0.000       0.000       0.000
cgvc_zmatrix:         0.000       0.000       0.000

* Maximum dynamic memory allocated =    33 MB

outcoor: Relaxed atomic coordinates (Bohr):                 
    0.00000000    0.00000000    0.00000000   1       1  C.pbe
    0.09128335    1.28722486    1.53208509   2       2  H.pbe
   -1.61079826    0.40704258   -1.11902212   2       3  H.pbe
    1.65211978    0.17565364   -1.11902244   2       4  H.pbe
   -0.13260451   -1.86992010    0.70596038   2       5  H.pbe

zmatrix: Z-matrix coordinates: (Ang ; rad )
zmatrix: (Fractional coordinates have been converted to cartesian)
molecule    1 (     5 atoms)
      0.00000000      0.00000000      0.00000000
      1.06001500      0.70000000      1.50000000
      1.06001500      1.91063300      2.09439500
      1.06001500      1.91063300      2.09439500
      1.06001500      1.91063300      2.09439500


Z-matrix Symbol Section -------
Variables
Constants
 ch           1.06001500000000     
------------ End of Z-matrix Information


outcell: Unit cell vectors (Ang):
        2.980000    2.980000    0.000000
        2.980000    0.000000    2.980000
        0.000000    2.980000    2.980000

outcell: Cell vector modules (Ang)   :    4.214356    4.214356    4.214356
outcell: Cell angles (23,13,12) (deg):     60.0000     60.0000     60.0000
outcell: Cell volume (Ang**3)        :     52.9272

siesta: Program's energy decomposition (eV):
siesta: Ebs     =      -105.073070
siesta: Eions   =       327.497989
siesta: Ena     =        78.608453
siesta: Ekin    =       170.040223
siesta: Enl     =       -37.351423
siesta: DEna    =       -17.793243
siesta: DUscf   =         2.641658
siesta: DUext   =         0.000000
siesta: Exc     =       -90.351224
siesta: eta*DQ  =         0.000000
siesta: Emadel  =         0.000000
siesta: Emeta   =         0.000000
siesta: Emolmec =        -0.193689
siesta: Ekinion =         0.000000
siesta: Eharris =      -221.897257
siesta: Etot    =      -221.897234
siesta: FreeEng =      -221.897234

siesta: Final energy (eV):
siesta:  Band Struct. =    -105.073070
siesta:       Kinetic =     170.040223
siesta:       Hartree =     108.736638
siesta:    Ext. field =       0.000000
siesta:   Exch.-corr. =     -90.351224
siesta:  Ion-electron =    -379.220474
siesta:       Ion-ion =     -30.908707
siesta:       Ekinion =       0.000000
siesta:         Total =    -221.897234

siesta: Atomic forces (eV/Ang):
siesta:      1   -0.002487   -0.012927   -0.009357
siesta:      2    0.081009    1.208028    1.413117
siesta:      3   -1.495261    0.369761   -1.030249
siesta:      4    1.539562    0.164070   -1.035834
siesta:      5   -0.120345   -1.729779    0.660398
siesta: ----------------------------------------
siesta:    Tot    0.002478   -0.000846   -0.001925

siesta: Stress tensor (static) (eV/Ang**3):
siesta:    -0.046939   -0.000013    0.000052
siesta:    -0.000013   -0.046770    0.000214
siesta:     0.000052    0.000215   -0.046137

siesta: Constrained stress tensor (static) (eV/Ang**3):
siesta:     0.002677   -0.000013    0.000052
siesta:    -0.000013    0.002847    0.000214
siesta:     0.000052    0.000214    0.003480

siesta: Cell volume =         52.927184 Ang**3

siesta: Pressure (static):
siesta:                Solid            Molecule  Units
siesta:           0.00050770         -0.00003269  Ry/Bohr**3
siesta:           0.04661502         -0.00300129  eV/Ang**3
siesta:          74.68630800         -4.80865196  kBar
(Free)E+ p_basis*V_orbitals  =        -218.664861
(Free)Eharris+ p_basis*V_orbitals  =        -218.664542

* Maximum dynamic memory allocated : Node    0 =    33 MB

* Maximum memory occured during dfscf                         

timer: CPU execution times:
timer:  Routine       Calls   Time/call    Tot.time        %
timer:  siesta            1      34.473      34.473   100.00
timer:  Setup             1       0.385       0.385     1.12
timer:  bands             1       0.000       0.000     0.00
timer:  writewave         1       0.001       0.001     0.00
timer:  KSV_init          1       0.000       0.000     0.00
timer:  IterMD            1      34.066      34.066    98.82
timer:  hsparse           1       0.090       0.090     0.26
timer:  overlap           1       0.460       0.460     1.33
timer:  IterSCF           9       3.126      28.134    81.61
timer:  kinefsm           2       0.236       0.471     1.37
timer:  nlefsm            2       1.508       3.017     8.75
timer:  DHSCF            10       2.651      26.514    76.91
timer:  DHSCF1            1       0.113       0.113     0.33
timer:  DHSCF2            1       1.510       1.510     4.38
timer:  REORD            62       0.000       0.005     0.01
timer:  POISON           11       0.003       0.037     0.11
timer:  DHSCF3           10       2.324      23.242    67.42
timer:  rhoofd           10       1.050      10.504    30.47
timer:  cellXC           10       0.098       0.981     2.84
timer:  vmat             10       1.171      11.712    33.98
timer:  MolMec            2       0.001       0.002     0.01
timer:  diagon            9       0.367       3.307     9.59
timer:  c-eigval        567       0.002       1.022     2.97
timer:  c-buildHS       567       0.001       0.804     2.33
timer:  cdiag          1134       0.001       0.647     1.88
timer:  cdiag1         1134       0.000       0.033     0.10
timer:  cdiag2         1134       0.000       0.122     0.35
timer:  cdiag3         1134       0.000       0.457     1.33
timer:  cdiag4         1134       0.000       0.013     0.04
timer:  c-eigvec        567       0.002       1.223     3.55
timer:  c-buildD        567       0.002       1.039     3.01
timer:  DHSCF4            1       1.644       1.644     4.77
timer:  dfscf             1       1.403       1.403     4.07
timer:  overfsm           1       0.030       0.030     0.09
timer:  optical           1       0.000       0.000     0.00
  

elaps: ELAPSED times:
elaps:  Routine       Calls   Time/call    Tot.time        %
elaps:  siesta            1      34.614      34.614   100.00
elaps:  Setup             1       0.386       0.386     1.11
elaps:  bands             1       0.000       0.000     0.00
elaps:  writewave         1       0.001       0.001     0.00
elaps:  KSV_init          1       0.000       0.000     0.00
elaps:  IterMD            1      34.206      34.206    98.82
elaps:  hsparse           1       0.090       0.090     0.26
elaps:  overlap           1       0.460       0.460     1.33
elaps:  IterSCF           9       3.142      28.274    81.68
elaps:  kinefsm           2       0.236       0.471     1.36
elaps:  nlefsm            2       1.509       3.017     8.72
elaps:  DHSCF            10       2.664      26.641    76.97
elaps:  DHSCF1            1       0.113       0.113     0.33
elaps:  DHSCF2            1       1.510       1.510     4.36
elaps:  REORD            62       0.000       0.005     0.01
elaps:  POISON           11       0.003       0.037     0.11
elaps:  DHSCF3           10       2.337      23.370    67.52
elaps:  rhoofd           10       1.054      10.537    30.44
elaps:  cellXC           10       0.098       0.980     2.83
elaps:  vmat             10       1.181      11.807    34.11
elaps:  MolMec            2       0.001       0.002     0.01
elaps:  diagon            9       0.369       3.319     9.59
elaps:  c-eigval        567       0.002       1.022     2.95
elaps:  c-buildHS       567       0.001       0.804     2.32
elaps:  cdiag          1134       0.001       0.649     1.88
elaps:  cdiag1         1134       0.000       0.033     0.10
elaps:  cdiag2         1134       0.000       0.125     0.36
elaps:  cdiag3         1134       0.000       0.459     1.32
elaps:  cdiag4         1134       0.000       0.013     0.04
elaps:  c-eigvec        567       0.002       1.229     3.55
elaps:  c-buildD        567       0.002       1.045     3.02
elaps:  DHSCF4            1       1.645       1.645     4.75
elaps:  dfscf             1       1.404       1.404     4.06
elaps:  overfsm           1       0.030       0.030     0.09
elaps:  optical           1       0.000       0.000     0.00
  
>> End of run:  10-JUN-2011  14:26:47
