
                           ***********************       
                           *  WELCOME TO SIESTA  *       
                           ***********************       

reinit: Reading from standard input
reinit: Dumped input in INPUT_TMP.06365
************************** Dump of input data file ****************************
SystemName          h2o_chess
SystemLabel         h2o
NumberOfAtoms       150
NumberOfSpecies     2
SolutionMethod CheSS
MaxSCFIterations 10
CheSS.Buffer.Kernel  2.0 Bohr
CheSS.Buffer.Mult    4.0 Bohr
CheSS.Fscale         2.d-2 Hartree
CheSS.evlowH        -2.0 Hartree
CheSS.evhighH        0.5 Hartree
CheSS.evlowS         0.3
CheSS.evhighS        3.0
PAO.BasisSize SZ
MeshCutoff  50 Ry
%block ChemicalSpeciesLabel
 1  8  O      # Species index, atomic number, species label
 2  1  H
%endblock ChemicalSpeciesLabel
AtomicCoordinatesFormat  Ang
%block AtomicCoordinatesAndAtomicSpecies
     8.73360E+01    1.08882E+02    9.08855E+01    1
     8.96060E+01    1.09041E+02    9.23415E+01    1
     9.03620E+01    1.07515E+02    8.95875E+01    1
     8.72970E+01    1.06274E+02    8.99505E+01    1
     8.95130E+01    1.06405E+02    9.35005E+01    1
     9.05580E+01    1.09429E+02    8.75945E+01    1
     8.63240E+01    1.10899E+02    8.95545E+01    1
     8.58950E+01    1.08650E+02    9.29555E+01    1
     8.86610E+01    1.11331E+02    8.82295E+01    1
     9.14960E+01    1.11049E+02    9.14375E+01    1
     8.82320E+01    1.04504E+02    9.19595E+01    1
     9.29640E+01    1.07599E+02    9.01035E+01    1
     9.03110E+01    1.04966E+02    8.85375E+01    1
     8.97110E+01    1.11486E+02    9.36275E+01    1
     8.97730E+01    1.12687E+02    9.02455E+01    1
     8.80370E+01    1.05567E+02    8.70745E+01    1
     8.87020E+01    1.07800E+02    8.58955E+01    1
     9.30410E+01    1.08020E+02    9.30465E+01    1
     8.63120E+01    1.06350E+02    9.42955E+01    1
     9.30450E+01    1.10898E+02    8.89765E+01    1
     8.87020E+01    1.07800E+02    9.57605E+01    1
     9.17350E+01    1.09950E+02    9.46845E+01    1
     9.21390E+01    1.05774E+02    9.39355E+01    1
     8.46590E+01    1.05007E+02    8.97695E+01    1
     8.66740E+01    1.09706E+02    9.54715E+01    1
     9.24400E+01    1.06603E+02    8.68135E+01    1
     8.56070E+01    1.12939E+02    9.14635E+01    1
     8.66740E+01    1.09706E+02    8.56065E+01    1
     8.42020E+01    1.08915E+02    8.73855E+01    1
     8.97730E+01    1.02822E+02    9.02455E+01    1
     8.30990E+01    1.07599E+02    9.01035E+01    1
     8.82320E+01    1.14369E+02    9.19595E+01    1
     8.31760E+01    1.08020E+02    9.30465E+01    1
     8.80450E+01    1.12185E+02    8.57965E+01    1
     9.40670E+01    1.08915E+02    8.73855E+01    1
     8.56070E+01    1.03074E+02    9.14635E+01    1
     8.80450E+01    1.12185E+02    9.56615E+01    1
     8.31800E+01    1.10898E+02    8.89765E+01    1
     9.29120E+01    1.13213E+02    9.25415E+01    1
     9.17350E+01    1.09950E+02    8.48195E+01    1
     8.58530E+01    1.03675E+02    9.42975E+01    1
     9.28170E+01    1.03743E+02    8.80085E+01    1
     9.45240E+01    1.05007E+02    8.97695E+01    1
     9.29120E+01    1.03348E+02    9.25415E+01    1
     9.03110E+01    1.14831E+02    8.85375E+01    1
     8.58530E+01    1.13540E+02    9.42975E+01    1
     8.80370E+01    1.05567E+02    9.69395E+01    1
     8.63120E+01    1.06350E+02    8.44305E+01    1
     9.28170E+01    1.13608E+02    8.80085E+01    1
     9.05580E+01    1.09429E+02    9.74595E+01    1
     8.73880E+01    1.08052E+02    9.03735E+01    2
     8.87710E+01    1.09207E+02    9.18135E+01    2
     9.01520E+01    1.07708E+02    9.04845E+01    2
     8.75170E+01    1.05727E+02    9.07775E+01    2
     9.04730E+01    1.06287E+02    9.37435E+01    2
     8.99060E+01    1.08915E+02    8.70265E+01    2
     8.68150E+01    1.10126E+02    8.99175E+01    2
     8.59750E+01    1.07741E+02    9.33935E+01    2
     8.93970E+01    1.10854E+02    8.78355E+01    2
     9.09870E+01    1.10190E+02    9.15705E+01    2
     8.74090E+01    1.04126E+02    9.22215E+01    2
     9.34430E+01    1.08074E+02    8.93975E+01    2
     9.11020E+01    1.04652E+02    8.80765E+01    2
     9.05100E+01    1.11144E+02    9.41545E+01    2
     8.93310E+01    1.13227E+02    9.09285E+01    2
     8.87840E+01    1.05072E+02    8.73655E+01    2
     8.91620E+01    1.07338E+02    8.51375E+01    2
     9.29590E+01    1.07819E+02    9.20975E+01    2
     8.72520E+01    1.06301E+02    9.44765E+01    2
     9.38940E+01    1.10944E+02    8.94415E+01    2
     8.91620E+01    1.07338E+02    9.50025E+01    2
     9.19780E+01    1.09164E+02    9.41575E+01    2
     9.21920E+01    1.05015E+02    9.32855E+01    2
     8.40450E+01    1.05648E+02    9.01715E+01    2
     8.74070E+01    1.09022E+02    9.56545E+01    2
     9.14910E+01    1.06635E+02    8.71075E+01    2
     8.60230E+01    1.12226E+02    9.08725E+01    2
     8.74070E+01    1.09022E+02    8.57895E+01    2
     8.37040E+01    1.08171E+02    8.70015E+01    2
     8.93310E+01    1.03362E+02    9.09285E+01    2
     8.35780E+01    1.08074E+02    8.93975E+01    2
     8.74090E+01    1.13991E+02    9.22215E+01    2
     8.30940E+01    1.07819E+02    9.20975E+01    2
     8.83820E+01    1.12098E+02    8.66985E+01    2
     9.35690E+01    1.08171E+02    8.70015E+01    2
     8.60230E+01    1.02361E+02    9.08725E+01    2
     8.83820E+01    1.12098E+02    9.65635E+01    2
     8.40290E+01    1.10944E+02    8.94415E+01    2
     9.38070E+01    1.13011E+02    9.22625E+01    2
     9.19780E+01    1.09164E+02    8.42925E+01    2
     8.56680E+01    1.03188E+02    9.34615E+01    2
     9.30570E+01    1.03530E+02    8.70575E+01    2
     9.39100E+01    1.05648E+02    9.01715E+01    2
     9.38070E+01    1.03146E+02    9.22625E+01    2
     9.11020E+01    1.14517E+02    8.80765E+01    2
     8.56680E+01    1.13053E+02    9.34615E+01    2
     8.87840E+01    1.05072E+02    9.72305E+01    2
     8.72520E+01    1.06301E+02    8.46115E+01    2
     9.30570E+01    1.13395E+02    8.70575E+01    2
     8.99060E+01    1.08915E+02    9.68915E+01    2
     8.66830E+01    1.08673E+02    9.16235E+01    2
     8.96320E+01    1.09772E+02    9.30505E+01    2
     9.00060E+01    1.06557E+02    8.94655E+01    2
     8.63200E+01    1.06015E+02    8.97415E+01    2
     8.94310E+01    1.07276E+02    9.30055E+01    2
     9.07600E+01    1.08918E+02    8.84435E+01    2
     8.68930E+01    1.11206E+02    8.87695E+01    2
     8.63480E+01    1.09319E+02    9.36515E+01    2
     8.90500E+01    1.11949E+02    8.89145E+01    2
     9.20900E+01    1.10837E+02    9.05915E+01    2
     8.86220E+01    1.05134E+02    9.26055E+01    2
     9.20600E+01    1.07414E+02    8.97015E+01    2
     9.01380E+01    1.04239E+02    8.91895E+01    2
     8.89340E+01    1.11626E+02    9.42885E+01    2
     9.04250E+01    1.12075E+02    9.07015E+01    2
     8.76250E+01    1.05837E+02    8.79345E+01    2
     8.83540E+01    1.06979E+02    8.64345E+01    2
     9.40070E+01    1.08401E+02    9.32115E+01    2
     8.60830E+01    1.05390E+02    9.42115E+01    2
     9.31770E+01    1.10260E+02    8.82035E+01    2
     8.83540E+01    1.06979E+02    9.62995E+01    2
     9.13840E+01    1.09546E+02    9.55615E+01    2
     9.27560E+01    1.06540E+02    9.34945E+01    2
     8.40930E+01    1.04763E+02    8.89225E+01    2
     8.69600E+01    1.10672E+02    9.56935E+01    2
     9.23270E+01    1.06197E+02    8.58455E+01    2
     8.51820E+01    1.13520E+02    9.07345E+01    2
     8.69600E+01    1.10672E+02    8.58285E+01    2
     8.50080E+01    1.08913E+02    8.67685E+01    2
     9.04250E+01    1.02210E+02    9.07015E+01    2
     8.21950E+01    1.07414E+02    8.97015E+01    2
     8.86220E+01    1.14999E+02    9.26055E+01    2
     8.41420E+01    1.08401E+02    9.32115E+01    2
     8.75130E+01    1.13025E+02    8.57265E+01    2
     9.48730E+01    1.08913E+02    8.67685E+01    2
     8.51820E+01    1.03655E+02    9.07345E+01    2
     8.75130E+01    1.13025E+02    9.55915E+01    2
     8.33120E+01    1.10260E+02    8.82035E+01    2
     9.23250E+01    1.12529E+02    9.20895E+01    2
     9.13840E+01    1.09546E+02    8.56965E+01    2
     8.50800E+01    1.03445E+02    9.48955E+01    2
     9.28290E+01    1.02822E+02    8.84665E+01    2
     9.39580E+01    1.04763E+02    8.89225E+01    2
     9.23250E+01    1.02664E+02    9.20895E+01    2
     9.01380E+01    1.14104E+02    8.91895E+01    2
     8.50800E+01    1.13310E+02    9.48955E+01    2
     8.76250E+01    1.05837E+02    9.77995E+01    2
     8.60830E+01    1.05390E+02    8.43465E+01    2
     9.28290E+01    1.12687E+02    8.84665E+01    2
     9.07600E+01    1.08918E+02    9.83085E+01    2
%endblock AtomicCoordinatesAndAtomicSpecies
************************** End of input data file *****************************

reinit: -----------------------------------------------------------------------
reinit: System Name: h2o_chess
reinit: -----------------------------------------------------------------------
reinit: System Label: h2o
reinit: -----------------------------------------------------------------------
Siesta Version: trunk-601--Chess
Architecture  : x86_64-linux-Intel
Compiler flags: /home/stephan/Software/openmpi-1.10.2_gnu/bin/mpifort  -m64 -fPIC -O3 -march==native -ftree-vectorize -fexpensive-optimizations -funroll-loops -fprefetch-loop-arrays -fno-second-underscore -C -g -O0 -fbacktrace
PP flags      : -DMPI -DFC_HAVE_FLUSH -DFC_HAVE_ABORT -DSIESTA__CHESS -DSIESTA__NO_MRRR
Libraries     :  -L/usr/lib -lblacs-openmpi -lscalapack-openmpi -lblas -llapack -L/home/stephhan/Documents/SIESTA/trunk-profiling/Build -lscalapack-openmpi /home/stephan/Documents/BigDFT/stablebranch/Build-gnu_noomp/install/lib/libCheSS-1.a /home/stephan/Documents/BigDFT/stablebranch/Build-gnu_noomp/install/lib/libfutile-1.a /home/stephan/Documents/BigDFT/stablebranch/Build-gnu_noomp/install/lib/libyaml.a
PARALLEL version

* Running on 4 nodes in parallel
>> Start of run:  27-JUN-2017   9:15:02

initatom: Reading input for the pseudopotentials and atomic orbitals ----------
Species number:   1 Atomic number:    8 Label: O
Species number:   2 Atomic number:    1 Label: H

Ground state valence configuration:   2s02  2p04
Reading pseudopotential information in formatted form from O.psf

Valence configuration for pseudopotential generation:
2s( 2.00) rc: 1.14
2p( 4.00) rc: 1.14
3d( 0.00) rc: 1.14
4f( 0.00) rc: 1.14
Ground state valence configuration:   1s01
Reading pseudopotential information in formatted form from H.psf

Valence configuration for pseudopotential generation:
1s( 1.00) rc: 1.25
2p( 0.00) rc: 1.25
3d( 0.00) rc: 1.25
4f( 0.00) rc: 1.25
For O, standard SIESTA heuristics set lmxkb to 2
 (one more than the basis l, including polarization orbitals).
Use PS.lmax or PS.KBprojectors blocks to override.
For H, standard SIESTA heuristics set lmxkb to 1
 (one more than the basis l, including polarization orbitals).
Use PS.lmax or PS.KBprojectors blocks to override.

<basis_specs>
===============================================================================
O                    Z=   8    Mass=  16.000        Charge= 0.17977+309
Lmxo=1 Lmxkb= 2    BasisType=split      Semic=F
L=0  Nsemic=0  Cnfigmx=2
          n=1  nzeta=1  polorb=0
            splnorm:   0.15000    
               vcte:    0.0000    
               rinn:    0.0000    
               qcoe:    0.0000    
               qyuk:    0.0000    
               qwid:   0.10000E-01
                rcs:    0.0000    
            lambdas:    1.0000    
L=1  Nsemic=0  Cnfigmx=2
          n=1  nzeta=1  polorb=0
            splnorm:   0.15000    
               vcte:    0.0000    
               rinn:    0.0000    
               qcoe:    0.0000    
               qyuk:    0.0000    
               qwid:   0.10000E-01
                rcs:    0.0000    
            lambdas:    1.0000    
-------------------------------------------------------------------------------
L=0  Nkbl=1  erefs: 0.17977+309
L=1  Nkbl=1  erefs: 0.17977+309
L=2  Nkbl=1  erefs: 0.17977+309
===============================================================================
</basis_specs>

atom: Called for O                     (Z =   8)

read_vps: Pseudopotential generation method:
read_vps: ATM3      Troullier-Martins                       
Total valence charge:    6.00000

xc_check: Exchange-correlation functional:
xc_check: Ceperley-Alder
V l=0 = -2*Zval/r beyond r=  1.1278
V l=1 = -2*Zval/r beyond r=  1.1278
V l=2 = -2*Zval/r beyond r=  1.1278
All V_l potentials equal beyond r=  1.1278
This should be close to max(r_c) in ps generation
All pots = -2*Zval/r beyond r=  1.1278

VLOCAL1: 99.0% of the norm of Vloc inside     34.126 Ry
VLOCAL1: 99.9% of the norm of Vloc inside     77.774 Ry
atom: Maximum radius for 4*pi*r*r*local-pseudopot. charge    1.37759
atom: Maximum radius for r*vlocal+2*Zval:    1.18566
GHOST: No ghost state for L =  0
GHOST: No ghost state for L =  1
GHOST: No ghost state for L =  2

KBgen: Kleinman-Bylander projectors: 
   l= 0   rc=  1.294105   el= -1.742414   Ekb=  9.135903   kbcos=  0.326910
   l= 1   rc=  1.294105   el= -0.676589   Ekb= -8.124878   kbcos= -0.395047
   l= 2   rc=  1.448233   el=  0.002386   Ekb= -2.039267   kbcos= -0.003484

KBgen: Total number of  Kleinman-Bylander projectors:    9
atom: -------------------------------------------------------------------------

atom: SANKEY-TYPE ORBITALS:

SPLIT: Orbitals with angular momentum L= 0

SPLIT: Basis orbitals for state 2s

SPLIT: PAO cut-off radius determined from an
SPLIT: energy shift=  0.020000 Ry

   izeta = 1
                 lambda =    1.000000
                     rc =    3.305093
                 energy =   -1.723766
                kinetic =    1.614911
    potential(screened) =   -3.338677
       potential(ionic) =  -11.304675

SPLIT: Orbitals with angular momentum L= 1

SPLIT: Basis orbitals for state 2p

SPLIT: PAO cut-off radius determined from an
SPLIT: energy shift=  0.020000 Ry

   izeta = 1
                 lambda =    1.000000
                     rc =    3.937239
                 energy =   -0.658841
                kinetic =    5.005986
    potential(screened) =   -5.664827
       potential(ionic) =  -13.452360
atom: Total number of Sankey-type orbitals:  4

atm_pop: Valence configuration (for local Pseudopot. screening):
 2s( 2.00)                                                            
 2p( 4.00)                                                            
Vna: chval, zval:    6.00000   6.00000

Vna:  Cut-off radius for the neutral-atom potential:   3.937239

atom: _________________________________________________________________________

<basis_specs>
===============================================================================
H                    Z=   1    Mass=  1.0100        Charge= 0.17977+309
Lmxo=0 Lmxkb= 1    BasisType=split      Semic=F
L=0  Nsemic=0  Cnfigmx=1
          n=1  nzeta=1  polorb=0
            splnorm:   0.15000    
               vcte:    0.0000    
               rinn:    0.0000    
               qcoe:    0.0000    
               qyuk:    0.0000    
               qwid:   0.10000E-01
                rcs:    0.0000    
            lambdas:    1.0000    
-------------------------------------------------------------------------------
L=0  Nkbl=1  erefs: 0.17977+309
L=1  Nkbl=1  erefs: 0.17977+309
===============================================================================
</basis_specs>

atom: Called for H                     (Z =   1)

read_vps: Pseudopotential generation method:
read_vps: ATM3      Troullier-Martins                       
Total valence charge:    1.00000

xc_check: Exchange-correlation functional:
xc_check: Ceperley-Alder
V l=0 = -2*Zval/r beyond r=  1.2343
V l=1 = -2*Zval/r beyond r=  1.2189
All V_l potentials equal beyond r=  1.2343
This should be close to max(r_c) in ps generation
All pots = -2*Zval/r beyond r=  1.2343

VLOCAL1: 99.0% of the norm of Vloc inside     28.493 Ry
VLOCAL1: 99.9% of the norm of Vloc inside     64.935 Ry
atom: Maximum radius for 4*pi*r*r*local-pseudopot. charge    1.45251
atom: Maximum radius for r*vlocal+2*Zval:    1.21892
GHOST: No ghost state for L =  0
GHOST: No ghost state for L =  1

KBgen: Kleinman-Bylander projectors: 
   l= 0   rc=  1.364359   el= -0.467325   Ekb= -2.005361   kbcos= -0.336422
   l= 1   rc=  1.434438   el=  0.001430   Ekb= -0.501708   kbcos= -0.021697

KBgen: Total number of  Kleinman-Bylander projectors:    4
atom: -------------------------------------------------------------------------

atom: SANKEY-TYPE ORBITALS:

SPLIT: Orbitals with angular momentum L= 0

SPLIT: Basis orbitals for state 1s

SPLIT: PAO cut-off radius determined from an
SPLIT: energy shift=  0.020000 Ry

   izeta = 1
                 lambda =    1.000000
                     rc =    4.828263
                 energy =   -0.449375
                kinetic =    0.929372
    potential(screened) =   -1.378747
       potential(ionic) =   -1.915047
atom: Total number of Sankey-type orbitals:  1

atm_pop: Valence configuration (for local Pseudopot. screening):
 1s( 1.00)                                                            
Vna: chval, zval:    1.00000   1.00000

Vna:  Cut-off radius for the neutral-atom potential:   4.828263

atom: _________________________________________________________________________

prinput: Basis input ----------------------------------------------------------

PAO.BasisType split     

%block ChemicalSpeciesLabel
    1    8 O                       # Species index, atomic number, species label
    2    1 H                       # Species index, atomic number, species label
%endblock ChemicalSpeciesLabel

%block PAO.Basis                 # Define Basis set
O                     2                    # Species label, number of l-shells
 n=2   0   1                         # n, l, Nzeta 
   3.305   
   1.000   
 n=2   1   1                         # n, l, Nzeta 
   3.937   
   1.000   
H                     1                    # Species label, number of l-shells
 n=1   0   1                         # n, l, Nzeta 
   4.828   
   1.000   
%endblock PAO.Basis

prinput: ----------------------------------------------------------------------

coor:   Atomic-coordinates input format  =     Cartesian coordinates
coor:                                          (in Angstroms)

siesta: Atomic coordinates (Bohr) and species
siesta:    165.04119 205.75724 171.74877  1        1
siesta:    169.33087 206.05771 174.50021  1        2
siesta:    170.75950 203.17399 169.29591  1        3
siesta:    164.96749 200.82883 169.98188  1        4
siesta:    169.15512 201.07639 176.69041  1        5
siesta:    171.12989 206.79092 165.52968  1        6
siesta:    163.12878 209.56882 169.23355  1        7
siesta:    162.31809 205.31883 175.66051  1        8
siesta:    167.54507 210.38518 166.72966  1        9
siesta:    172.90245 209.85228 172.79190  1       10
siesta:    166.73438 197.48402 173.77834  1       11
siesta:    175.67657 203.33272 170.27101  1       12
siesta:    170.66312 198.35707 167.31169  1       13
siesta:    169.52929 210.67809 176.93040  1       14
siesta:    169.64645 212.94765 170.53935  1       15
siesta:    166.36589 199.49280 164.54702  1       16
siesta:    167.62255 203.71256 162.31904  1       17
siesta:    175.82208 204.12830 175.83247  1       18
siesta:    163.10611 200.97245 178.19274  1       19
siesta:    175.82964 209.56693 168.14128  1       20
siesta:    167.62255 203.71256 180.96119  1       21
siesta:    173.35410 207.77547 178.92784  1       22
siesta:    174.11754 199.88397 177.51244  1       23
siesta:    159.98239 198.43455 169.63984  1       24
siesta:    163.79019 207.31438 180.41506  1       25
siesta:    174.68635 201.45055 164.05380  1       26
siesta:    161.77385 213.42386 172.84103  1       27
siesta:    163.79019 207.31438 161.77290  1       28
siesta:    159.11878 205.81960 165.13473  1       29
siesta:    169.64645 194.30550 170.53935  1       30
siesta:    157.03441 203.33272 170.27101  1       31
siesta:    166.73438 216.12617 173.77834  1       32
siesta:    157.17992 204.12830 175.83247  1       33
siesta:    166.38100 211.99901 162.13195  1       34
siesta:    177.76094 205.81960 165.13473  1       35
siesta:    161.77385 194.78171 172.84103  1       36
siesta:    166.38100 211.99901 180.77411  1       37
siesta:    157.18748 209.56693 168.14128  1       38
siesta:    175.57830 213.94165 174.87816  1       39
siesta:    173.35410 207.77547 160.28569  1       40
siesta:    162.23872 195.91743 178.19652  1       41
siesta:    175.39878 196.04594 166.31203  1       42
siesta:    178.62454 198.43455 169.63984  1       43
siesta:    175.57830 195.29949 174.87816  1       44
siesta:    170.66312 216.99923 167.31169  1       45
siesta:    162.23872 214.55959 178.19652  1       46
siesta:    166.36589 199.49280 183.18918  1       47
siesta:    163.10611 200.97245 159.55059  1       48
siesta:    175.39878 214.68809 166.31203  1       49
siesta:    171.12989 206.79092 184.17184  1       50
siesta:    165.13945 204.18877 170.78123  2       51
siesta:    167.75294 206.37140 173.50244  2       52
siesta:    170.36266 203.53870 170.99099  2       53
siesta:    165.38323 199.79515 171.54468  2       54
siesta:    170.96926 200.85340 177.14961  2       55
siesta:    169.89778 205.81960 164.45632  2       56
siesta:    164.05664 208.10806 169.91952  2       57
siesta:    162.46927 203.60106 176.48821  2       58
siesta:    168.93591 209.48378 165.98511  2       59
siesta:    171.94058 208.22900 173.04324  2       60
siesta:    165.17914 196.76970 174.27345  2       61
siesta:    176.58175 204.23034 168.93686  2       62
siesta:    172.15790 197.76370 166.44053  2       63
siesta:    171.03918 210.03180 177.92629  2       64
siesta:    168.81119 213.96811 171.83003  2       65
siesta:    167.77751 198.55738 165.09693  2       66
siesta:    168.49183 202.83950 160.88662  2       67
siesta:    175.66712 203.74846 174.03912  2       68
siesta:    164.88245 200.87986 178.53478  2       69
siesta:    177.43402 209.65386 169.02001  2       70
siesta:    168.49183 202.83950 179.52878  2       71
siesta:    173.81330 206.29014 177.93196  2       72
siesta:    174.21770 198.44967 176.28412  2       73
siesta:    158.82210 199.64587 170.39951  2       74
siesta:    165.17536 206.02180 180.76088  2       75
siesta:    172.89300 201.51103 164.60938  2       76
siesta:    162.55998 212.07649 171.72421  2       77
siesta:    165.17536 206.02180 162.11872  2       78
siesta:    158.17770 204.41365 164.40907  2       79
siesta:    168.81119 195.32595 171.83003  2       80
siesta:    157.93959 204.23034 168.93686  2       81
siesta:    165.17914 215.41186 174.27345  2       82
siesta:    157.02497 203.74846 174.03912  2       83
siesta:    167.01784 211.83460 163.83649  2       84
siesta:    176.81985 204.41365 164.40907  2       85
siesta:    162.55998 193.43433 171.72421  2       86
siesta:    167.01784 211.83460 182.47864  2       87
siesta:    158.79186 209.65386 169.02001  2       88
siesta:    177.26961 213.55992 174.35093  2       89
siesta:    173.81330 206.29014 159.28980  2       90
siesta:    161.88912 194.99714 176.61671  2       91
siesta:    175.85231 195.64342 164.51490  2       92
siesta:    177.46425 199.64587 170.39951  2       93
siesta:    177.26961 194.91777 174.35093  2       94
siesta:    172.15790 216.40585 166.44053  2       95
siesta:    161.88912 213.63929 176.61671  2       96
siesta:    167.77751 198.55738 183.73909  2       97
siesta:    164.88245 200.87986 159.89263  2       98
siesta:    175.85231 214.28558 164.51490  2       99
siesta:    169.89778 205.81960 183.09847  2      100
siesta:    163.80719 205.36229 173.14339  2      101
siesta:    169.38000 207.43910 175.84003  2      102
siesta:    170.08676 201.36363 169.06536  2      103
siesta:    163.12122 200.33939 169.58692  2      104
siesta:    169.00016 202.72234 175.75499  2      105
siesta:    171.51161 205.82527 167.13406  2      106
siesta:    164.20404 210.14897 167.75011  2      107
siesta:    163.17414 206.58305 176.97576  2      108
siesta:    168.28018 211.55303 168.02412  2      109
siesta:    174.02495 209.45166 171.19319  2      110
siesta:    167.47138 198.67455 174.99910  2      111
siesta:    173.96826 202.98312 169.51134  2      112
siesta:    170.33620 196.98324 168.54380  2      113
siesta:    168.06097 210.94265 178.17951  2      114
siesta:    170.87855 211.79114 171.40106  2      115
siesta:    165.58732 200.00302 166.17219  2      116
siesta:    166.96493 202.16109 163.33760  2      117
siesta:    177.64755 204.84828 176.14428  2      118
siesta:    162.67336 199.15832 178.03400  2      119
siesta:    176.07908 208.36129 166.68052  2      120
siesta:    166.96493 202.16109 181.97975  2      121
siesta:    172.69080 207.01202 180.58514  2      122
siesta:    175.28351 201.33150 176.67907  2      123
siesta:    158.91280 197.97346 168.03924  2      124
siesta:    164.33065 209.13985 180.83458  2      125
siesta:    174.47281 200.68333 162.22455  2      126
siesta:    160.97071 214.52180 171.46342  2      127
siesta:    164.33065 209.13985 162.19242  2      128
siesta:    160.64190 205.81582 163.96877  2      129
siesta:    170.87855 193.14898 171.40106  2      130
siesta:    155.32610 202.98312 169.51134  2      131
siesta:    167.47138 217.31670 174.99910  2      132
siesta:    159.00540 204.84828 176.14428  2      133
siesta:    165.37567 213.58638 161.99967  2      134
siesta:    179.28406 205.81582 163.96877  2      135
siesta:    160.97071 195.87964 171.46342  2      136
siesta:    165.37567 213.58638 180.64183  2      137
siesta:    157.43693 208.36129 166.68052  2      138
siesta:    174.46903 212.64908 174.02400  2      139
siesta:    172.69080 207.01202 161.94298  2      140
siesta:    160.77796 195.48280 179.32658  2      141
siesta:    175.42146 194.30550 167.17752  2      142
siesta:    177.55496 197.97346 168.03924  2      143
siesta:    174.46903 194.00692 174.02400  2      144
siesta:    170.33620 215.62540 168.54380  2      145
siesta:    160.77796 214.12495 179.32658  2      146
siesta:    165.58732 200.00302 184.81434  2      147
siesta:    162.67336 199.15832 159.39185  2      148
siesta:    175.42146 212.94765 167.17752  2      149
siesta:    171.51161 205.82527 185.77621  2      150

siesta: Automatic unit cell vectors (Ang):
siesta:   19.566812    0.000000    0.000000
siesta:    0.000000   19.688912    0.000000
siesta:    0.000000    0.000000   21.038612

siesta: System type = molecule  

initatomlists: Number of atoms, orbitals, and projectors:    150   300   850

siesta: ******************** Simulation parameters ****************************
siesta:
siesta: The following are some of the parameters of the simulation.
siesta: A complete list of the parameters used, including default values,
siesta: can be found in file out.fdf
siesta:
redata: Spin configuration                          = none
redata: Number of spin components                   = 1
redata: Time-Reversal Symmetry                      = T
redata: Spin-spiral                                 = F
redata: Long output                                 =   F
redata: Number of Atomic Species                    =        2
redata: Charge density info will appear in .RHO file
redata: Write Mulliken Pop.                         = NO
redata: Mesh Cutoff                                 =    50.0000 Ry
redata: Net charge of the system                    =     0.0000 |e|
redata: Min. number of SCF Iter                     =        0
redata: Max. number of SCF Iter                     =       10
redata: SCF mix quantity                            = Hamiltonian
redata: Mix DM or H after convergence               =   F
redata: Recompute H after scf cycle                 =   F
redata: Mix DM in first SCF step                    =   T
redata: Write Pulay info on disk                    =   F
redata: New DM Mixing Weight                        =     0.2500
redata: New DM Occupancy tolerance                  = 0.000000000001
redata: No kicks to SCF
redata: DM Mixing Weight for Kicks                  =     0.5000
redata: Require Harris convergence for SCF          =   F
redata: Harris energy tolerance for SCF             =     0.000100 eV
redata: Require DM convergence for SCF              =   T
redata: DM tolerance for SCF                        =     0.0001
redata: Require EDM convergence for SCF             =   F
redata: EDM tolerance for SCF                       =     0.001000 eV
redata: Require H convergence for SCF               =   T
redata: Hamiltonian tolerance for SCF               =     0.001000 eV
redata: Require (free) Energy convergence for SCF   =   F
redata: (free) Energy tolerance for SCF             =     0.000100 eV
redata: Using Saved Data (generic)                  =   F
redata: Use continuation files for DM               =   F
redata: Neglect nonoverlap interactions             =   F
redata: Method of Calculation            =         CheSS
redata: CheSS.Buffer.Kernel                         =     2.000000
redata: CheSS.Buffer.Mult                           =     4.000000
redata: CheSS.Betax                                 = -1000.000000
redata: CheSS.Fscale                                =     0.020000
redata: CheSS.FscaleLowerbound                      =     0.005000
redata: CheSS.FscaleUpperbound                      =     0.050000
redata: CheSS.evlowH                                =    -2.000000
redata: CheSS.evhighH                               =     0.500000
redata: CheSS.evlowS                                =     0.300000
redata: CheSS.evhighS                               =     3.000000
redata: Fix the spin of the system                  =   F
redata: Max. number of TDED Iter                    =        1
redata: Write .TDWF and .DM after time steps        =      100
redata: Dynamics option                             = Single-point calculation
mix.SCF: Pulay mixing                            = Pulay
mix.SCF:    Variant                              = stable
mix.SCF:    History steps                        = 2
mix.SCF:    Linear mixing weight                 =     0.250000
mix.SCF:    Mixing weight                        =     0.250000
mix.SCF:    SVD condition                        = 0.1000E-07
redata: ***********************************************************************

%block SCF.Mixers
  Pulay
%endblock SCF.Mixers

%block SCF.Mixer.Pulay
  # Mixing method
  method pulay
  variant stable

  # Mixing options
  weight 0.2500
  weight.linear 0.2500
  history 2
%endblock SCF.Mixer.Pulay

DM_history_depth set to one: no extrapolation allowed by default for geometry relaxation
Size of DM history Fstack: 1
Total number of electrons:   400.000000
Total ionic charge:   400.000000

* ProcessorY, Blocksize:    2  24


* Orbital distribution balance (max,min):    84    72

 Kpoints in:            1 . Kpoints trimmed:            1

siesta: k-grid: Number of k-points =     1
siesta: k-grid: Cutoff (effective) =     9.783 Ang
siesta: k-grid: Supercell and displacements
siesta: k-grid:    1   0   0      0.000
siesta: k-grid:    0   1   0      0.000
siesta: k-grid:    0   0   1      0.000


                     ====================================
                        Single-point calculation
                     ====================================

outcell: Unit cell vectors (Ang):
       19.566812    0.000000    0.000000
        0.000000   19.688912    0.000000
        0.000000    0.000000   21.038612

outcell: Cell vector modules (Ang)   :   19.566812   19.688912   21.038612
outcell: Cell angles (23,13,12) (deg):     90.0000     90.0000     90.0000
outcell: Cell volume (Ang**3)        :   8105.1098
---
 Sparse matrices:
   Overlap and hamiltonian matrix:
     total elements                    :  90000
     segments                          :  7026
     non-zero elements                 :  16314
     sparsity in %                     :  81.87
     sparse matrix multiplication initialized:  No
     taskgroup summary:
       number of taskgroups            :  1
       taskgroups overview:
       -  {number of tasks:  4, start / end:  [  1,  16314 ], start / end disjoint: [ 1, 
  16314]}
   Density kernel matrix:
     total elements                    :  90000
     segments                          :  7484
     non-zero elements                 :  66612
     sparsity in %                     :  25.99
     sparse matrix multiplication initialized:  Yes
     sparse matrix multiplication setup:
       segments                        :  472
       non-zero elements               :  89680
       sparsity in %                   :  0.36
     taskgroup summary:
       number of taskgroups            :  1
       taskgroups overview:
       -  {number of tasks:  4, start / end:  [  1,  66612 ], start / end disjoint: [ 1, 
  66612]}
<dSpData1D:S at geom step 0
  <sparsity:sparsity for geom step 0
    nrows_g=300 nrows=84 sparsity=.0570 nnzs=5127, refcount: 7>
  <dData1D:(new from dSpData1D) n=5127, refcount: 1>
refcount: 1>
new_DM -- step:     1
Initializing Density Matrix...
DM filled with atomic data:
<dSpData2D:DM initialized from atoms
  <sparsity:sparsity for geom step 0
    nrows_g=300 nrows=84 sparsity=.0570 nnzs=5127, refcount: 8>
  <dData2D:DM n=5127 m=1, refcount: 1>
refcount: 1>

No. of atoms with KB's overlaping orbs in proc 0. Max # of overlaps:     143      27
New grid distribution:   1
           1       1:   45    1:   23    1:   23
           2       1:   45    1:   23   24:   45
           3       1:   45   24:   45    1:   23
           4       1:   45   24:   45   24:   45

InitMesh: MESH =    90 x    90 x    90 =      729000
InitMesh: (bp) =    45 x    45 x    45 =       91125
InitMesh: Mesh cutoff (required, used) =    50.000    50.577 Ry
ExtMesh (bp) on 0 =    69 x    47 x    47 =      152421
New grid distribution:   2
           1       1:   45    1:   23    1:   15
           2       1:   45    1:   23   16:   45
           3       1:   45   24:   45    1:   15
           4       1:   45   24:   45   16:   45
New grid distribution:   3
           1       1:   45    1:   23    1:   15
           2       1:   45    1:   23   16:   45
           3       1:   45   24:   45    1:   15
           4       1:   45   24:   45   16:   45
Setting up quadratic distribution...
ExtMesh (bp) on 0 =    69 x    47 x    39 =      126477
PhiOnMesh: Number of (b)points on node 0 =                15525
PhiOnMesh: nlist on node 0 =                49104
  #~~~~~~~~~~~~~~~~~~~~~~~~~~~~~~~~~~~~~~~~~~~~~~~~~~~~~~~~~~~~~~~ FOE calculation of kernel
 S^-1/2:
   Can take from memory                :  No
   beta for penaltyfunction            : -1000.0
   determine eigenvalue bounds:
   -  {npl:  170, npl determined by: penalty, scale:  1.00E+00, 
 bounds:  [  0.300,  3.000 ], exp accur:  [  4.51E-14 ], penalty:  2.1E+04, ok: [ No,  Yes]}
   -  {npl:  170, npl determined by: function, scale:  1.20E+00, 
 bounds:  [  0.250,  3.000 ], exp accur:  [  4.86E-14 ], penalty: -4.0E-08, ok: [ Yes, 
  Yes]}
   summary: {npl:  170, npl determined by: function, scale:  1.20E+00, 
 bounds:  [  0.250,  3.000 ], exp accur:  [  4.86E-14 ]}
 Kernel calculation:
 -  #------------------------------------------------------------------- ispin: 1, itemp: 1
   decay length of error function      :  2.000E-02
   beta for penaltyfunction            : -1000.0
   determine eigenvalue bounds:
   -  {npl:  290, npl determined by: function, 
 bounds:  [ -2.000,  0.500 ], exp accur:  [  7.07E-06 ], penalty: -8.2E+04, ok: [ Yes,  No]}
   -  {npl:  310, npl determined by: function, 
 bounds:  [ -2.000,  0.600 ], exp accur:  [  6.58E-06 ], penalty:  5.4E-15, ok: [ Yes, 
  Yes]}
   summary: {npl:  310, npl determined by: function, 
 bounds:  [ -2.000,  0.600 ], exp accur:  [  6.58E-06 ]}
   determine Fermi energy:
   -  { #------------------------------------------------------------------------ it FOE: 1
 eF: -1.000000E-01, Tr(K):  3.9999997E+02, D Tr(K): -2.57E-05, new eF: bisec bounds}
   -  { #------------------------------------------------------------------------ it FOE: 2
 eF:  1.000000E-01, Tr(K):  4.1835299E+02, D Tr(K):  1.84E+01, new eF: bisection/secant}
   -  { #------------------------------------------------------------------------ it FOE: 3
 eF: -4.999986E-02, Tr(K):  4.0008699E+02, D Tr(K):  8.70E-02, new eF: bisection/secant}
   -  { #------------------------------------------------------------------------ it FOE: 4
 eF: -8.749258E-02, Tr(K):  4.0000004E+02, D Tr(K):  3.76E-05, new eF: bisection/secant}
   -  { #------------------------------------------------------------------------ it FOE: 5
 eF: -9.433410E-02, Tr(K):  4.0000006E+02, D Tr(K):  6.42E-05, new eF: bisection/secant}
   -  { #------------------------------------------------------------------------ it FOE: 6
 eF: -9.777322E-02, Tr(K):  4.0000001E+02, D Tr(K):  1.41E-05, new eF: bisection/secant}
   -  { #------------------------------------------------------------------------ it FOE: 7
 eF: -9.872440E-02, Tr(K):  4.0000000E+02, D Tr(K): -3.29E-06, new eF: bisection/secant}
   -  { #------------------------------------------------------------------------ it FOE: 8
 eF: -9.839668E-02, Tr(K):  4.0000000E+02, D Tr(K):  2.71E-06, new eF: bisection/secant}
   -  { #------------------------------------------------------------------------ it FOE: 9
 eF: -9.855265E-02, Tr(K):  4.0000000E+02, D Tr(K): -1.49E-07, new eF: linear interpol}
   summary: {nit:  9, eF: -9.855265E-02, Tr(K):  4.0000000E+02, D Tr(K): -1.49E-07}
   Asymmetry of kernel                 :  1.04E-04
   symmetrize_kernel                   :  Yes
   EBS                                 : -4.371883212143E+02
   EBS higher temperature              : -4.371883370054E+02
   difference                          : -1.579110210059E-05
   relative difference                 :  3.611967963081E-08
   trace(Ktilde)                       :  399.9999998513089
   modify error function decay length  : increase
   need to repeat with sharper decay (new):  No
   trace(KS)                           :  4.000000002886E+02
   trace(KH)                           : -4.371883215204E+02
  #~~~~~~~~~~~~~~~~~~~~~~~~~~~~~~~~~~~~~~~~~~~~~~~~~~~~~~ FOE calculation of kernel finished

siesta: Program's energy decomposition (eV):
siesta: Ebs     =     -4076.644542
siesta: Eions   =     40792.723918
siesta: Ena     =      8726.419127
siesta: Ekin    =     18734.189560
siesta: Enl     =     -3379.976191
siesta: Eso     =         0.000000
siesta: Eldau   =         0.000000
siesta: DEna    =      -746.268928
siesta: DUscf   =       128.602890
siesta: DUext   =         0.000000
siesta: Exc     =     -5795.986628
siesta: eta*DQ  =         0.000000
siesta: Emadel  =         0.000000
siesta: Emeta   =         0.000000
siesta: Emolmec =         0.000000
siesta: Ekinion =         0.000000
siesta: Eharris =    -23037.077786
siesta: Etot    =    -23125.744088
siesta: FreeEng =    -23125.744088

        iscf     Eharris(eV)        E_KS(eV)     FreeEng(eV)     dDmax    Ef(eV) dHmax(eV)
   scf:    1   -23037.077786   -23125.744088   -23125.744088  0.719128 -1.340888 10.788355
timer: Routine,Calls,Time,% = IterSCF        1       9.920  85.43
  #~~~~~~~~~~~~~~~~~~~~~~~~~~~~~~~~~~~~~~~~~~~~~~~~~~~~~~~~~~~~~~~ FOE calculation of kernel
 S^-1/2:
   Can take from memory                :  Yes
 Kernel calculation:
 -  #------------------------------------------------------------------- ispin: 1, itemp: 1
   decay length of error function      :  2.500E-02
   beta for penaltyfunction            : -1000.0
   determine eigenvalue bounds:
   -  {npl:  270, npl determined by: function, 
 bounds:  [ -2.000,  0.600 ], exp accur:  [  5.54E-06 ], penalty: -5.6E+04, ok: [ Yes,  No]}
   -  {npl:  290, npl determined by: function, 
 bounds:  [ -2.000,  0.720 ], exp accur:  [  6.63E-06 ], penalty: -1.6E-16, ok: [ Yes, 
  Yes]}
   summary: {npl:  290, npl determined by: function, 
 bounds:  [ -2.000,  0.720 ], exp accur:  [  6.63E-06 ]}
   determine Fermi energy:
   -  { #------------------------------------------------------------------------ it FOE: 1
 eF: -1.795527E-01, Tr(K):  4.0000006E+02, D Tr(K):  5.71E-05, new eF: bisec bounds}
   -  { #------------------------------------------------------------------------ it FOE: 2
 eF: -2.605527E-01, Tr(K):  4.0000009E+02, D Tr(K):  8.61E-05, new eF: bisec bounds}
   -  { #------------------------------------------------------------------------ it FOE: 3
 eF: -3.496527E-01, Tr(K):  4.0000008E+02, D Tr(K):  8.18E-05, new eF: bisec bounds}
   -  { #------------------------------------------------------------------------ it FOE: 4
 eF: -4.476627E-01, Tr(K):  3.9544649E+02, D Tr(K): -4.55E+00, new eF: bisec bounds}
   -  { #------------------------------------------------------------------------ it FOE: 5
 eF: -1.755265E-02, Tr(K):  4.0089788E+02, D Tr(K):  8.98E-01, new eF: bisection/secant}
   -  { #------------------------------------------------------------------------ it FOE: 6
 eF: -1.605011E-01, Tr(K):  3.9999996E+02, D Tr(K): -4.26E-05, new eF: bisection/secant}
   -  { #------------------------------------------------------------------------ it FOE: 7
 eF: -1.247606E-01, Tr(K):  4.0000005E+02, D Tr(K):  4.76E-05, new eF: bisection/secant}
   -  { #------------------------------------------------------------------------ it FOE: 8
 eF: -1.431226E-01, Tr(K):  4.0000000E+02, D Tr(K): -1.24E-06, new eF: linear interpol}
   -  { #------------------------------------------------------------------------ it FOE: 9
 eF: -1.426549E-01, Tr(K):  3.9999999E+02, D Tr(K): -7.14E-06, new eF: bisection/secant}
   -  { #----------------------------------------------------------------------- it FOE: 10
 eF: -1.370139E-01, Tr(K):  3.9999995E+02, D Tr(K): -5.26E-05, new eF: bisection/secant}
   -  { #----------------------------------------------------------------------- it FOE: 11
 eF: -1.307343E-01, Tr(K):  3.9999999E+02, D Tr(K): -1.19E-05, new eF: bisection/secant}
   -  { #----------------------------------------------------------------------- it FOE: 12
 eF: -1.286436E-01, Tr(K):  4.0000001E+02, D Tr(K):  1.32E-05, new eF: bisection/secant}
   -  { #----------------------------------------------------------------------- it FOE: 13
 eF: -1.297169E-01, Tr(K):  4.0000000E+02, D Tr(K):  3.70E-07, new eF: linear interpol}
   summary: {nit:  13, eF: -1.297169E-01, Tr(K):  4.0000000E+02, D Tr(K):  3.70E-07}
   Asymmetry of kernel                 :  6.92E-05
   symmetrize_kernel                   :  Yes
   EBS                                 : -4.030765693018E+02
   EBS higher temperature              : -4.030765731907E+02
   difference                          : -3.888845867550E-06
   relative difference                 :  9.647908520920E-09
   trace(Ktilde)                       :  400.0000003695305
   modify error function decay length  : increase
   need to repeat with sharper decay (new):  No
   trace(KS)                           :  4.000000008715E+02
   trace(KH)                           : -4.030765696231E+02
  #~~~~~~~~~~~~~~~~~~~~~~~~~~~~~~~~~~~~~~~~~~~~~~~~~~~~~~ FOE calculation of kernel finished
   scf:    2   -23168.453178   -23148.917746   -23148.917746  0.132736 -1.764902  6.523294
  #~~~~~~~~~~~~~~~~~~~~~~~~~~~~~~~~~~~~~~~~~~~~~~~~~~~~~~~~~~~~~~~ FOE calculation of kernel
 S^-1/2:
   Can take from memory                :  Yes
 Kernel calculation:
 -  #------------------------------------------------------------------- ispin: 1, itemp: 1
   decay length of error function      :  3.125E-02
   beta for penaltyfunction            : -1000.0
   determine eigenvalue bounds:
   -  {npl:  230, npl determined by: function, 
 bounds:  [ -2.000,  0.720 ], exp accur:  [  6.79E-06 ], penalty: -7.6E+04, ok: [ Yes,  No]}
   -  {npl:  250, npl determined by: function, 
 bounds:  [ -2.000,  0.864 ], exp accur:  [  8.8E-06 ], penalty: -4.4E-13, ok: [ Yes,  Yes]}
   summary: {npl:  250, npl determined by: function, 
 bounds:  [ -2.000,  0.864 ], exp accur:  [  8.8E-06 ]}
   determine Fermi energy:
   -  { #------------------------------------------------------------------------ it FOE: 1
 eF: -2.170438E-01, Tr(K):  3.9452264E+02, D Tr(K): -5.48E+00, new eF: bisec bounds}
   -  { #------------------------------------------------------------------------ it FOE: 2
 eF: -4.239000E-02, Tr(K):  4.0110653E+02, D Tr(K):  1.11E+00, new eF: bisection/secant}
   -  { #------------------------------------------------------------------------ it FOE: 3
 eF: -1.007302E-01, Tr(K):  4.0000995E+02, D Tr(K):  9.95E-03, new eF: bisection/secant}
   -  { #------------------------------------------------------------------------ it FOE: 4
 eF: -1.299140E-01, Tr(K):  3.9995262E+02, D Tr(K): -4.74E-02, new eF: bisection/secant}
   -  { #------------------------------------------------------------------------ it FOE: 5
 eF: -1.105582E-01, Tr(K):  3.9999854E+02, D Tr(K): -1.46E-03, new eF: cubic interpol}
   -  { #------------------------------------------------------------------------ it FOE: 6
 eF: -1.089523E-01, Tr(K):  4.0000014E+02, D Tr(K):  1.42E-04, new eF: cubic interpol}
   -  { #------------------------------------------------------------------------ it FOE: 7
 eF: -1.090953E-01, Tr(K):  4.0000000E+02, D Tr(K): -4.54E-07, new eF: linear interpol}
   summary: {nit:  7, eF: -1.090953E-01, Tr(K):  4.0000000E+02, D Tr(K): -4.54E-07}
   Asymmetry of kernel                 :  1.39E-04
   symmetrize_kernel                   :  Yes
   EBS                                 : -3.632576362280E+02
   EBS higher temperature              : -3.632555115879E+02
   difference                          :  2.124640180455E-03
   relative difference                 :  5.848852077870E-06
   trace(Ktilde)                       :  399.9999995458141
   modify error function decay length  : increase
   need to repeat with sharper decay (new):  No
   trace(KS)                           :  4.000000000913E+02
   trace(KH)                           : -3.632576365379E+02
  #~~~~~~~~~~~~~~~~~~~~~~~~~~~~~~~~~~~~~~~~~~~~~~~~~~~~~~ FOE calculation of kernel finished
   scf:    3   -23161.524461   -23157.846799   -23157.846799  0.158112 -1.484329  0.978602
  #~~~~~~~~~~~~~~~~~~~~~~~~~~~~~~~~~~~~~~~~~~~~~~~~~~~~~~~~~~~~~~~ FOE calculation of kernel
 S^-1/2:
   Can take from memory                :  Yes
 Kernel calculation:
 -  #------------------------------------------------------------------- ispin: 1, itemp: 1
   decay length of error function      :  3.906E-02
   beta for penaltyfunction            : -1000.0
   determine eigenvalue bounds:
   -  {npl:  200, npl determined by: function, 
 bounds:  [ -2.000,  0.864 ], exp accur:  [  8.2E-06 ], penalty: -3.3E-10, ok: [ Yes,  Yes]}
   summary: {npl:  200, npl determined by: function, 
 bounds:  [ -2.000,  0.864 ], exp accur:  [  8.2E-06 ]}
   determine Fermi energy:
   -  { #------------------------------------------------------------------------ it FOE: 1
 eF: -1.798301E-01, Tr(K):  3.9725608E+02, D Tr(K): -2.74E+00, new eF: bisec bounds}
   -  { #------------------------------------------------------------------------ it FOE: 2
 eF: -3.836054E-02, Tr(K):  4.0189368E+02, D Tr(K):  1.89E+00, new eF: bisection/secant}
   -  { #------------------------------------------------------------------------ it FOE: 3
 eF: -1.026112E-01, Tr(K):  4.0005301E+02, D Tr(K):  5.30E-02, new eF: bisection/secant}
   -  { #------------------------------------------------------------------------ it FOE: 4
 eF: -1.226477E-01, Tr(K):  3.9977052E+02, D Tr(K): -2.29E-01, new eF: bisection/secant}
   -  { #------------------------------------------------------------------------ it FOE: 5
 eF: -1.095003E-01, Tr(K):  3.9996442E+02, D Tr(K): -3.56E-02, new eF: cubic interpol}
   -  { #------------------------------------------------------------------------ it FOE: 6
 eF: -1.067643E-01, Tr(K):  3.9999959E+02, D Tr(K): -4.12E-04, new eF: linear interpol}
   -  { #------------------------------------------------------------------------ it FOE: 7
 eF: -1.067323E-01, Tr(K):  4.0000000E+02, D Tr(K): -2.09E-06, new eF: linear interpol}
   -  { #------------------------------------------------------------------------ it FOE: 8
 eF: -1.067321E-01, Tr(K):  4.0000000E+02, D Tr(K): -3.48E-11, new eF: linear interpol}
   summary: {nit:  8, eF: -1.067321E-01, Tr(K):  4.0000000E+02, D Tr(K): -3.48E-11}
   Asymmetry of kernel                 :  1.62E-04
   symmetrize_kernel                   :  Yes
   EBS                                 : -3.637493390133E+02
   EBS higher temperature              : -3.637390191579E+02
   difference                          :  1.031985543011E-02
   relative difference                 :  2.837078813148E-05
   trace(Ktilde)                       :  399.9999999999652
   modify error function decay length  : increase
   need to repeat with sharper decay (new):  No
   trace(KS)                           :  4.000000004638E+02
   trace(KH)                           : -3.637493392768E+02
  #~~~~~~~~~~~~~~~~~~~~~~~~~~~~~~~~~~~~~~~~~~~~~~~~~~~~~~ FOE calculation of kernel finished
   scf:    4   -23158.040338   -23157.990561   -23157.990561  0.032477 -1.452176  0.869239
  #~~~~~~~~~~~~~~~~~~~~~~~~~~~~~~~~~~~~~~~~~~~~~~~~~~~~~~~~~~~~~~~ FOE calculation of kernel
 S^-1/2:
   Can take from memory                :  Yes
 Kernel calculation:
 -  #------------------------------------------------------------------- ispin: 1, itemp: 1
   decay length of error function      :  4.883E-02
   beta for penaltyfunction            : -1000.0
   determine eigenvalue bounds:
   -  {npl:  180, npl determined by: penalty, 
 bounds:  [ -2.000,  0.864 ], exp accur:  [  7.84E-07 ], penalty:  1.7E-06, ok: [ Yes, 
  Yes]}
   summary: {npl:  180, npl determined by: penalty, 
 bounds:  [ -2.000,  0.864 ], exp accur:  [  7.84E-07 ]}
   determine Fermi energy:
   -  { #------------------------------------------------------------------------ it FOE: 1
 eF: -1.640273E-01, Tr(K):  3.9805963E+02, D Tr(K): -1.94E+00, new eF: bisec bounds}
   -  { #------------------------------------------------------------------------ it FOE: 2
 eF: -4.943691E-02, Tr(K):  4.0184344E+02, D Tr(K):  1.84E+00, new eF: bisection/secant}
   -  { #------------------------------------------------------------------------ it FOE: 3
 eF: -1.059983E-01, Tr(K):  4.0015092E+02, D Tr(K):  1.51E-01, new eF: bisection/secant}
   -  { #------------------------------------------------------------------------ it FOE: 4
 eF: -1.225994E-01, Tr(K):  3.9984011E+02, D Tr(K): -1.60E-01, new eF: bisection/secant}
   -  { #------------------------------------------------------------------------ it FOE: 5
 eF: -1.141791E-01, Tr(K):  4.0000441E+02, D Tr(K):  4.41E-03, new eF: cubic interpol}
   -  { #------------------------------------------------------------------------ it FOE: 6
 eF: -1.144179E-01, Tr(K):  4.0000004E+02, D Tr(K):  3.53E-05, new eF: linear interpol}
   -  { #------------------------------------------------------------------------ it FOE: 7
 eF: -1.144198E-01, Tr(K):  4.0000000E+02, D Tr(K): -4.46E-08, new eF: linear interpol}
   summary: {nit:  7, eF: -1.144198E-01, Tr(K):  4.0000000E+02, D Tr(K): -4.46E-08}
   Asymmetry of kernel                 :  1.29E-04
   symmetrize_kernel                   :  Yes
   EBS                                 : -3.640956384520E+02
   EBS higher temperature              : -3.640612031220E+02
   difference                          :  3.443532993811E-02
   relative difference                 :  9.457770514504E-05
   trace(Ktilde)                       :  399.9999999554448
   modify error function decay length  : No
   need to repeat with sharper decay (new):  No
   trace(KS)                           :  4.000000003654E+02
   trace(KH)                           : -3.640956386848E+02
  #~~~~~~~~~~~~~~~~~~~~~~~~~~~~~~~~~~~~~~~~~~~~~~~~~~~~~~ FOE calculation of kernel finished
   scf:    5   -23157.961192   -23157.992568   -23157.992568  0.032558 -1.556773  0.449768
  #~~~~~~~~~~~~~~~~~~~~~~~~~~~~~~~~~~~~~~~~~~~~~~~~~~~~~~~~~~~~~~~ FOE calculation of kernel
 S^-1/2:
   Can take from memory                :  Yes
 Kernel calculation:
 -  #------------------------------------------------------------------- ispin: 1, itemp: 1
   decay length of error function      :  4.883E-02
   beta for penaltyfunction            : -1000.0
   determine eigenvalue bounds:
   -  {npl:  170, npl determined by: penalty, 
 bounds:  [ -1.800,  0.778 ], exp accur:  [  2.53E-07 ], penalty:  1.2E+05, ok: [ No,  Yes]}
   -  {npl:  180, npl determined by: penalty, 
 bounds:  [ -2.160,  0.778 ], exp accur:  [  4.58E-07 ], penalty: -4.7E+03, ok: [ Yes,  No]}
   -  {npl:  180, npl determined by: function, 
 bounds:  [ -2.160,  0.933 ], exp accur:  [  3.67E-06 ], penalty: -7.4E-09, ok: [ Yes, 
  Yes]}
   summary: {npl:  180, npl determined by: function, 
 bounds:  [ -2.160,  0.933 ], exp accur:  [  3.67E-06 ]}
   determine Fermi energy:
   -  { #------------------------------------------------------------------------ it FOE: 1
 eF: -1.608289E-01, Tr(K):  3.9849089E+02, D Tr(K): -1.51E+00, new eF: bisec bounds}
   -  { #------------------------------------------------------------------------ it FOE: 2
 eF: -6.801071E-02, Tr(K):  4.0109044E+02, D Tr(K):  1.09E+00, new eF: bisection/secant}
   -  { #------------------------------------------------------------------------ it FOE: 3
 eF: -1.106826E-01, Tr(K):  4.0009365E+02, D Tr(K):  9.37E-02, new eF: bisection/secant}
   -  { #------------------------------------------------------------------------ it FOE: 4
 eF: -1.246842E-01, Tr(K):  3.9986581E+02, D Tr(K): -1.34E-01, new eF: bisection/secant}
   -  { #------------------------------------------------------------------------ it FOE: 5
 eF: -1.170605E-01, Tr(K):  3.9999531E+02, D Tr(K): -4.69E-03, new eF: cubic interpol}
   -  { #------------------------------------------------------------------------ it FOE: 6
 eF: -1.167652E-01, Tr(K):  3.9999998E+02, D Tr(K): -2.49E-05, new eF: linear interpol}
   -  { #------------------------------------------------------------------------ it FOE: 7
 eF: -1.167636E-01, Tr(K):  4.0000000E+02, D Tr(K): -4.62E-08, new eF: linear interpol}
   summary: {nit:  7, eF: -1.167636E-01, Tr(K):  4.0000000E+02, D Tr(K): -4.62E-08}
   Asymmetry of kernel                 :  1.27E-04
   symmetrize_kernel                   :  Yes
   EBS                                 : -3.641084553241E+02
   EBS higher temperature              : -3.640721461459E+02
   difference                          :  3.630917814792E-02
   relative difference                 :  9.972077719426E-05
   trace(Ktilde)                       :  399.9999999538393
   modify error function decay length  : No
   need to repeat with sharper decay (new):  No
   trace(KS)                           :  4.000000003903E+02
   trace(KH)                           : -3.641084555918E+02
  #~~~~~~~~~~~~~~~~~~~~~~~~~~~~~~~~~~~~~~~~~~~~~~~~~~~~~~ FOE calculation of kernel finished
   scf:    6   -23158.126792   -23158.071891   -23158.071891  0.016567 -1.588662  0.459098
  #~~~~~~~~~~~~~~~~~~~~~~~~~~~~~~~~~~~~~~~~~~~~~~~~~~~~~~~~~~~~~~~ FOE calculation of kernel
 S^-1/2:
   Can take from memory                :  Yes
 Kernel calculation:
 -  #------------------------------------------------------------------- ispin: 1, itemp: 1
   decay length of error function      :  4.883E-02
   beta for penaltyfunction            : -1000.0
   determine eigenvalue bounds:
   -  {npl:  180, npl determined by: function, 
 bounds:  [ -2.160,  0.933 ], exp accur:  [  4.02E-06 ], penalty: -4.8E-09, ok: [ Yes, 
  Yes]}
   summary: {npl:  180, npl determined by: function, 
 bounds:  [ -2.160,  0.933 ], exp accur:  [  4.02E-06 ]}
   determine Fermi energy:
   -  { #------------------------------------------------------------------------ it FOE: 1
 eF: -1.543550E-01, Tr(K):  3.9864313E+02, D Tr(K): -1.36E+00, new eF: bisec bounds}
   -  { #------------------------------------------------------------------------ it FOE: 2
 eF: -7.917222E-02, Tr(K):  4.0077577E+02, D Tr(K):  7.76E-01, new eF: bisection/secant}
   -  { #------------------------------------------------------------------------ it FOE: 3
 eF: -1.116422E-01, Tr(K):  4.0005332E+02, D Tr(K):  5.33E-02, new eF: bisection/secant}
   -  { #------------------------------------------------------------------------ it FOE: 4
 eF: -1.231278E-01, Tr(K):  3.9982746E+02, D Tr(K): -1.73E-01, new eF: bisection/secant}
   -  { #------------------------------------------------------------------------ it FOE: 5
 eF: -1.158693E-01, Tr(K):  3.9997468E+02, D Tr(K): -2.53E-02, new eF: cubic interpol}
   -  { #------------------------------------------------------------------------ it FOE: 6
 eF: -1.145285E-01, Tr(K):  3.9999996E+02, D Tr(K): -4.04E-05, new eF: linear interpol}
   -  { #------------------------------------------------------------------------ it FOE: 7
 eF: -1.145264E-01, Tr(K):  4.0000000E+02, D Tr(K): -3.07E-07, new eF: linear interpol}
   summary: {nit:  7, eF: -1.145264E-01, Tr(K):  4.0000000E+02, D Tr(K): -3.07E-07}
   Asymmetry of kernel                 :  1.31E-04
   symmetrize_kernel                   :  Yes
   EBS                                 : -3.639998667158E+02
   EBS higher temperature              : -3.639631625157E+02
   difference                          :  3.670420016425E-02
   relative difference                 :  1.008357516595E-04
   trace(Ktilde)                       :  399.9999996934817
   modify error function decay length  : decrease
   need to repeat with sharper decay (new):  Yes
 -  #------------------------------------------------------------------- ispin: 1, itemp: 2
   decay length of error function      :  2.441E-02
   beta for penaltyfunction            : -1000.0
   determine eigenvalue bounds:
   -  {npl:  350, npl determined by: function, 
 bounds:  [ -2.160,  0.933 ], exp accur:  [  6.78E-06 ], penalty: -2.2E-17, ok: [ Yes, 
  Yes]}
   summary: {npl:  350, npl determined by: function, 
 bounds:  [ -2.160,  0.933 ], exp accur:  [  6.78E-06 ]}
   determine Fermi energy:
   -  { #------------------------------------------------------------------------ it FOE: 1
 eF: -1.449754E-01, Tr(K):  3.9988264E+02, D Tr(K): -1.17E-01, new eF: bisec bounds}
   -  { #------------------------------------------------------------------------ it FOE: 2
 eF: -8.407736E-02, Tr(K):  4.0023741E+02, D Tr(K):  2.37E-01, new eF: bisection/secant}
   -  { #------------------------------------------------------------------------ it FOE: 3
 eF: -1.196782E-01, Tr(K):  3.9999907E+02, D Tr(K): -9.29E-04, new eF: bisection/secant}
   -  { #------------------------------------------------------------------------ it FOE: 4
 eF: -1.107086E-01, Tr(K):  4.0000611E+02, D Tr(K):  6.11E-03, new eF: bisection/secant}
   -  { #------------------------------------------------------------------------ it FOE: 5
 eF: -1.168442E-01, Tr(K):  4.0000088E+02, D Tr(K):  8.76E-04, new eF: cubic interpol}
   -  { #------------------------------------------------------------------------ it FOE: 6
 eF: -1.182877E-01, Tr(K):  3.9999996E+02, D Tr(K): -4.09E-05, new eF: linear interpol}
   -  { #------------------------------------------------------------------------ it FOE: 7
 eF: -1.182234E-01, Tr(K):  4.0000000E+02, D Tr(K): -3.08E-07, new eF: linear interpol}
   summary: {nit:  7, eF: -1.182234E-01, Tr(K):  4.0000000E+02, D Tr(K): -3.08E-07}
   Asymmetry of kernel                 :  1.95E-04
   symmetrize_kernel                   :  Yes
   EBS                                 : -3.640177959624E+02
   EBS higher temperature              : -3.640165201619E+02
   difference                          :  1.275800536973E-03
   relative difference                 :  3.504775181664E-06
   trace(Ktilde)                       :  399.9999996920752
   modify error function decay length  : increase
   need to repeat with sharper decay (new):  No
   trace(KS)                           :  4.000000002210E+02
   trace(KH)                           : -3.640177962869E+02
  #~~~~~~~~~~~~~~~~~~~~~~~~~~~~~~~~~~~~~~~~~~~~~~~~~~~~~~ FOE calculation of kernel finished
   scf:    7   -23158.227820   -23158.181775   -23158.181775  0.031512 -1.608524  1.361716
  #~~~~~~~~~~~~~~~~~~~~~~~~~~~~~~~~~~~~~~~~~~~~~~~~~~~~~~~~~~~~~~~ FOE calculation of kernel
 S^-1/2:
   Can take from memory                :  Yes
 Kernel calculation:
 -  #------------------------------------------------------------------- ispin: 1, itemp: 1
   decay length of error function      :  3.052E-02
   beta for penaltyfunction            : -1000.0
   determine eigenvalue bounds:
   -  {npl:  250, npl determined by: function, 
 bounds:  [ -1.944,  0.840 ], exp accur:  [  6.46E-06 ], penalty:  3.5E+04, ok: [ No,  Yes]}
   -  {npl:  270, npl determined by: function, 
 bounds:  [ -2.333,  0.840 ], exp accur:  [  7.57E-06 ], penalty: -6.9E-14, ok: [ Yes, 
  Yes]}
   summary: {npl:  270, npl determined by: function, 
 bounds:  [ -2.333,  0.840 ], exp accur:  [  7.57E-06 ]}
   determine Fermi energy:
   -  { #------------------------------------------------------------------------ it FOE: 1
 eF: -1.428871E-01, Tr(K):  3.9984855E+02, D Tr(K): -1.51E-01, new eF: bisec bounds}
   -  { #------------------------------------------------------------------------ it FOE: 2
 eF: -9.355971E-02, Tr(K):  4.0014855E+02, D Tr(K):  1.49E-01, new eF: bisection/secant}
   -  { #------------------------------------------------------------------------ it FOE: 3
 eF: -1.181045E-01, Tr(K):  4.0000261E+02, D Tr(K):  2.61E-03, new eF: bisection/secant}
   -  { #------------------------------------------------------------------------ it FOE: 4
 eF: -1.245101E-01, Tr(K):  3.9998619E+02, D Tr(K): -1.38E-02, new eF: bisection/secant}
   -  { #------------------------------------------------------------------------ it FOE: 5
 eF: -1.202150E-01, Tr(K):  3.9999756E+02, D Tr(K): -2.44E-03, new eF: cubic interpol}
   -  { #------------------------------------------------------------------------ it FOE: 6
 eF: -1.191990E-01, Tr(K):  4.0000000E+02, D Tr(K):  7.09E-07, new eF: linear interpol}
   summary: {nit:  6, eF: -1.191990E-01, Tr(K):  4.0000000E+02, D Tr(K):  7.09E-07}
   Asymmetry of kernel                 :  1.93E-04
   symmetrize_kernel                   :  Yes
   EBS                                 : -3.640357585594E+02
   EBS higher temperature              : -3.640308304729E+02
   difference                          :  4.928086483687E-03
   relative difference                 :  1.353736924963E-05
   trace(Ktilde)                       :  400.0000007092611
   modify error function decay length  : increase
   need to repeat with sharper decay (new):  No
   trace(KS)                           :  4.000000012334E+02
   trace(KH)                           : -3.640357589507E+02
  #~~~~~~~~~~~~~~~~~~~~~~~~~~~~~~~~~~~~~~~~~~~~~~~~~~~~~~ FOE calculation of kernel finished
   scf:    8   -23158.176484   -23158.179255   -23158.179255  0.002934 -1.621798  1.337222
  #~~~~~~~~~~~~~~~~~~~~~~~~~~~~~~~~~~~~~~~~~~~~~~~~~~~~~~~~~~~~~~~ FOE calculation of kernel
 S^-1/2:
   Can take from memory                :  Yes
 Kernel calculation:
 -  #------------------------------------------------------------------- ispin: 1, itemp: 1
   decay length of error function      :  3.815E-02
   beta for penaltyfunction            : -1000.0
   determine eigenvalue bounds:
   -  {npl:  220, npl determined by: function, 
 bounds:  [ -2.333,  0.840 ], exp accur:  [  8.69E-06 ], penalty: -2.6E-11, ok: [ Yes, 
  Yes]}
   summary: {npl:  220, npl determined by: function, 
 bounds:  [ -2.333,  0.840 ], exp accur:  [  8.69E-06 ]}
   determine Fermi energy:
   -  { #------------------------------------------------------------------------ it FOE: 1
 eF: -1.391766E-01, Tr(K):  3.9923968E+02, D Tr(K): -7.60E-01, new eF: bisec bounds}
   -  { #------------------------------------------------------------------------ it FOE: 2
 eF: -9.922145E-02, Tr(K):  4.0024285E+02, D Tr(K):  2.43E-01, new eF: bisection/secant}
   -  { #------------------------------------------------------------------------ it FOE: 3
 eF: -1.140465E-01, Tr(K):  3.9995383E+02, D Tr(K): -4.62E-02, new eF: bisection/secant}
   -  { #------------------------------------------------------------------------ it FOE: 4
 eF: -1.091562E-01, Tr(K):  4.0004720E+02, D Tr(K):  4.72E-02, new eF: bisection/secant}
   -  { #------------------------------------------------------------------------ it FOE: 5
 eF: -1.116148E-01, Tr(K):  4.0000061E+02, D Tr(K):  6.08E-04, new eF: linear interpol}
   -  { #------------------------------------------------------------------------ it FOE: 6
 eF: -1.116469E-01, Tr(K):  4.0000000E+02, D Tr(K): -3.02E-06, new eF: linear interpol}
   -  { #------------------------------------------------------------------------ it FOE: 7
 eF: -1.116467E-01, Tr(K):  4.0000000E+02, D Tr(K):  2.99E-10, new eF: linear interpol}
   summary: {nit:  7, eF: -1.116467E-01, Tr(K):  4.0000000E+02, D Tr(K):  2.99E-10}
   Asymmetry of kernel                 :  1.51E-04
   symmetrize_kernel                   :  Yes
   EBS                                 : -3.639145732129E+02
   EBS higher temperature              : -3.638966365362E+02
   difference                          :  1.793667669961E-02
   relative difference                 :  4.928815172541E-05
   trace(Ktilde)                       :  400.0000000002988
   modify error function decay length  : increase
   need to repeat with sharper decay (new):  No
   trace(KS)                           :  4.000000004186E+02
   trace(KH)                           : -3.639145735251E+02
  #~~~~~~~~~~~~~~~~~~~~~~~~~~~~~~~~~~~~~~~~~~~~~~~~~~~~~~ FOE calculation of kernel finished
   scf:    9   -23157.803090   -23158.067722   -23158.067722  0.049317 -1.519043  1.056518
  #~~~~~~~~~~~~~~~~~~~~~~~~~~~~~~~~~~~~~~~~~~~~~~~~~~~~~~~~~~~~~~~ FOE calculation of kernel
 S^-1/2:
   Can take from memory                :  Yes
 Kernel calculation:
 -  #------------------------------------------------------------------- ispin: 1, itemp: 1
   decay length of error function      :  4.768E-02
   beta for penaltyfunction            : -1000.0
   determine eigenvalue bounds:
   -  {npl:  190, npl determined by: penalty, 
 bounds:  [ -2.333,  0.840 ], exp accur:  [  1.67E-06 ], penalty: -3.2E-10, ok: [ Yes, 
  Yes]}
   summary: {npl:  190, npl determined by: penalty, 
 bounds:  [ -2.333,  0.840 ], exp accur:  [  1.67E-06 ]}
   determine Fermi energy:
   -  { #------------------------------------------------------------------------ it FOE: 1
 eF: -1.278286E-01, Tr(K):  3.9956828E+02, D Tr(K): -4.32E-01, new eF: bisec bounds}
   -  { #------------------------------------------------------------------------ it FOE: 2
 eF: -9.546489E-02, Tr(K):  4.0042402E+02, D Tr(K):  4.24E-01, new eF: bisection/secant}
   -  { #------------------------------------------------------------------------ it FOE: 3
 eF: -1.115739E-01, Tr(K):  4.0003218E+02, D Tr(K):  3.22E-02, new eF: bisection/secant}
   -  { #------------------------------------------------------------------------ it FOE: 4
 eF: -1.162014E-01, Tr(K):  3.9991533E+02, D Tr(K): -8.47E-02, new eF: bisection/secant}
   -  { #------------------------------------------------------------------------ it FOE: 5
 eF: -1.133680E-01, Tr(K):  3.9998773E+02, D Tr(K): -1.23E-02, new eF: linear interpol}
   -  { #------------------------------------------------------------------------ it FOE: 6
 eF: -1.128879E-01, Tr(K):  3.9999972E+02, D Tr(K): -2.83E-04, new eF: linear interpol}
   -  { #------------------------------------------------------------------------ it FOE: 7
 eF: -1.128766E-01, Tr(K):  4.0000000E+02, D Tr(K): -8.51E-07, new eF: linear interpol}
   summary: {nit:  7, eF: -1.128766E-01, Tr(K):  4.0000000E+02, D Tr(K): -8.51E-07}
   Asymmetry of kernel                 :  1.34E-04
   symmetrize_kernel                   :  Yes
   EBS                                 : -3.638189311828E+02
   EBS higher temperature              : -3.637779662280E+02
   difference                          :  4.096495472311E-02
   relative difference                 :  1.125970949063E-04
   trace(Ktilde)                       :  399.9999991491261
   modify error function decay length  : decrease
   need to repeat with sharper decay (new):  Yes
 -  #------------------------------------------------------------------- ispin: 1, itemp: 2
   decay length of error function      :  2.384E-02
   beta for penaltyfunction            : -1000.0
   determine eigenvalue bounds:
   -  {npl:  350, npl determined by: function, 
 bounds:  [ -2.333,  0.840 ], exp accur:  [  8.37E-06 ], penalty:  3.0E-16, ok: [ Yes, 
  Yes]}
   summary: {npl:  350, npl determined by: function, 
 bounds:  [ -2.333,  0.840 ], exp accur:  [  8.37E-06 ]}
   determine Fermi energy:
   -  { #------------------------------------------------------------------------ it FOE: 1
 eF: -1.259839E-01, Tr(K):  3.9998299E+02, D Tr(K): -1.70E-02, new eF: bisec bounds}
   -  { #------------------------------------------------------------------------ it FOE: 2
 eF: -9.976927E-02, Tr(K):  4.0006908E+02, D Tr(K):  6.91E-02, new eF: bisection/secant}
   -  { #------------------------------------------------------------------------ it FOE: 3
 eF: -1.168400E-01, Tr(K):  4.0000129E+02, D Tr(K):  1.29E-03, new eF: bisection/secant}
   -  { #------------------------------------------------------------------------ it FOE: 4
 eF: -1.194474E-01, Tr(K):  3.9999731E+02, D Tr(K): -2.69E-03, new eF: bisection/secant}
   -  { #------------------------------------------------------------------------ it FOE: 5
 eF: -1.179133E-01, Tr(K):  3.9999967E+02, D Tr(K): -3.31E-04, new eF: linear interpol}
   -  { #------------------------------------------------------------------------ it FOE: 6
 eF: -1.176982E-01, Tr(K):  3.9999999E+02, D Tr(K): -6.90E-06, new eF: linear interpol}
   -  { #------------------------------------------------------------------------ it FOE: 7
 eF: -1.176936E-01, Tr(K):  4.0000000E+02, D Tr(K): -6.15E-09, new eF: linear interpol}
   summary: {nit:  7, eF: -1.176936E-01, Tr(K):  4.0000000E+02, D Tr(K): -6.15E-09}
   Asymmetry of kernel                 :  2.03E-04
   symmetrize_kernel                   :  Yes
   EBS                                 : -3.638409007288E+02
   EBS higher temperature              : -3.638385187606E+02
   difference                          :  2.381968115515E-03
   relative difference                 :  6.546729932626E-06
   trace(Ktilde)                       :  399.9999999938456
   modify error function decay length  : increase
   need to repeat with sharper decay (new):  No
   trace(KS)                           :  4.000000005076E+02
   trace(KH)                           : -3.638409011123E+02
  #~~~~~~~~~~~~~~~~~~~~~~~~~~~~~~~~~~~~~~~~~~~~~~~~~~~~~~ FOE calculation of kernel finished
   scf:   10   -23158.166208   -23158.192888   -23158.192888  0.048945 -1.601316  1.233730
:!: SCF did not converge in maximum number of steps.

Using DM_out to compute the final energy and forces
No. of atoms with KB's overlaping orbs in proc 0. Max # of overlaps:     143      27

siesta: E_KS(eV) =           -23158.1929

siesta: E_KS - E_eggbox =    -23158.1929

siesta: Atomic forces (eV/Ang):
----------------------------------------
   Tot   -6.267738   -9.029542    5.029096
----------------------------------------
   Max    9.714576
   Res    3.053639    sqrt( Sum f_i^2 / 3N )
----------------------------------------
   Max    9.714576    constrained

Stress-tensor-Voigt (kbar):      -16.17      -10.22      -18.26        1.48       -3.07        1.86
(Free)E + p*V (eV/cell)   -23082.9066
Target enthalpy (eV/cell)   -23158.1929

siesta: Program's energy decomposition (eV):
siesta: Ebs     =     -4944.955473
siesta: Eions   =     40792.723918
siesta: Ena     =      8726.419127
siesta: Ekin    =     17918.049632
siesta: Enl     =     -3144.256144
siesta: Eso     =         0.000000
siesta: Eldau   =         0.000000
siesta: DEna    =      -275.581990
siesta: DUscf   =        69.346608
siesta: DUext   =         0.000000
siesta: Exc     =     -5659.446203
siesta: eta*DQ  =         0.000000
siesta: Emadel  =         0.000000
siesta: Emeta   =         0.000000
siesta: Emolmec =         0.000000
siesta: Ekinion =         0.000000
siesta: Eharris =    -23158.166208
siesta: Etot    =    -23158.192888
siesta: FreeEng =    -23158.192888

siesta: Final energy (eV):
siesta:  Band Struct. =   -4944.955473
siesta:       Kinetic =   17918.049632
siesta:       Hartree =   63276.588388
siesta:       Eldau   =       0.000000
siesta:       Eso     =       0.000000
siesta:    Ext. field =       0.000000
siesta:   Exch.-corr. =   -5659.446203
siesta:  Ion-electron = -142000.700620
siesta:       Ion-ion =   43307.315915
siesta:       Ekinion =       0.000000
siesta:         Total =  -23158.192888
siesta:         Fermi =      -1.601316

siesta: Atomic forces (eV/Ang):
siesta:      1    2.722378    5.617294   -0.317029
siesta:      2    4.200379   -4.041739   -0.571861
siesta:      3    1.980304   -0.145570   -7.150427
siesta:      4    1.532311    1.859982   -4.073875
siesta:      5   -4.363918   -3.105819    0.607975
siesta:      6    1.900114    4.745790    0.682435
siesta:      7   -5.602634    4.807812    0.108789
siesta:      8   -0.618128    4.110514   -4.171626
siesta:      9   -6.614698    1.309441   -0.180596
siesta:     10    1.647937    4.410905    1.136732
siesta:     11    4.921538   -0.818344   -2.591580
siesta:     12    2.220719   -4.370346    4.952448
siesta:     13   -5.021676    5.082157   -1.673375
siesta:     14    0.864868   -2.954816   -3.060004
siesta:     15   -0.235931   -0.735974   -7.244218
siesta:     16   -3.801768    2.895807   -4.440318
siesta:     17   -0.711670    4.542795    0.865999
siesta:     18   -0.526619    0.104515    5.332400
siesta:     19   -4.265772    4.473303    4.822196
siesta:     20   -5.744226    2.197210    1.310968
siesta:     21   -0.879955    5.089352    3.584985
siesta:     22   -1.993795    4.871114   -0.538098
siesta:     23   -2.423279    2.644507   -0.457964
siesta:     24    2.978191   -3.859972   -1.343757
siesta:     25   -4.004126   -0.647750    2.593171
siesta:     26    2.690311    2.603369   -3.363560
siesta:     27   -0.646954    0.191188    4.335690
siesta:     28   -4.079905   -1.645444    9.714576
siesta:     29   -2.377756    3.674484    0.802242
siesta:     30    1.249661    0.291122   -6.862117
siesta:     31   -1.924752   -5.324379    4.220236
siesta:     32    6.147181   -1.034162   -0.981955
siesta:     33   -0.120171   -2.205304    4.989151
siesta:     34   -0.152232   -1.355076   -6.586611
siesta:     35    2.232909    3.790805    0.579338
siesta:     36    0.204713   -0.917900    4.045798
siesta:     37    0.451800   -2.691773   -6.917337
siesta:     38   -4.404646    0.867265   -0.100207
siesta:     39   -6.075826    2.939512   -1.855839
siesta:     40   -0.682851    4.634752    5.235609
siesta:     41    3.171087    3.195481   -0.899585
siesta:     42   -2.828538    1.220924    1.195679
siesta:     43    4.423815   -3.282968   -1.233075
siesta:     44   -6.623107    3.217836   -1.630122
siesta:     45   -4.293097    4.980828   -1.564467
siesta:     46    4.477008    3.276264   -0.284436
siesta:     47   -3.330125    2.693752   -4.518629
siesta:     48   -5.080805    2.415678    8.239033
siesta:     49   -2.669694    1.886175    0.803576
siesta:     50    1.904756    4.429884    0.723821
siesta:     51    0.529052   -5.220281   -3.257485
siesta:     52   -4.304182    0.303848   -3.286778
siesta:     53   -1.632164    2.692539    7.489671
siesta:     54    1.524511   -2.486997    3.140422
siesta:     55    6.056013   -1.461000    1.373281
siesta:     56   -2.886538   -2.384221   -2.050834
siesta:     57    2.434845   -4.300994    2.927538
siesta:     58    0.502356   -4.285204    2.349299
siesta:     59    4.938973   -4.376671   -1.972942
siesta:     60   -3.073255   -3.452572    1.633576
siesta:     61   -6.611834   -3.104086    1.647226
siesta:     62    2.867139    2.840678   -3.157440
siesta:     63    5.583126   -1.723067   -2.683320
siesta:     64    3.213590   -1.361472    1.359820
siesta:     65   -3.287546    3.435686    4.180676
siesta:     66    7.045632   -3.532024    2.531827
siesta:     67    2.080701   -0.996444   -2.580227
siesta:     68   -0.388881   -0.565810   -7.140229
siesta:     69    6.359650    0.463533    1.150785
siesta:     70    4.768890    0.467191    2.173220
siesta:     71    2.191736   -2.066593   -4.092440
siesta:     72    1.682153   -3.997297   -3.882008
siesta:     73    0.575511   -3.765867   -2.690930
siesta:     74   -3.517229    5.083291    3.120414
siesta:     75    2.971592   -2.243978    0.343816
siesta:     76   -4.113197    0.611068    1.793325
siesta:     77    1.819949   -3.952343   -2.718748
siesta:     78    2.583635   -1.696795    0.320895
siesta:     79   -3.062567   -3.878730   -1.987659
siesta:     80   -3.372836    3.585488    4.736012
siesta:     81    2.980300    3.610343   -3.630593
siesta:     82   -6.570448   -2.918245    1.613700
siesta:     83    0.145438   -0.605073   -5.856899
siesta:     84    1.823537   -0.818057    6.900788
siesta:     85   -4.152036   -4.913011   -1.645863
siesta:     86    1.336506   -2.225809   -0.905500
siesta:     87    2.168122   -0.507559    4.807463
siesta:     88    5.396334    0.274232    2.164939
siesta:     89    5.478694   -1.152712   -1.987734
siesta:     90    1.215903   -3.804915   -2.949817
siesta:     91   -0.501151   -2.214419   -5.029404
siesta:     92    1.130232   -0.248613   -2.989890
siesta:     93   -3.368565    4.496318    2.634022
siesta:     94    5.515615   -0.786845   -1.842520
siesta:     95    5.165933   -2.167338   -2.458526
siesta:     96   -0.462659   -2.381240   -5.073608
siesta:     97    6.123487   -3.742335    1.514350
siesta:     98    6.275420    0.251591    1.565152
siesta:     99    0.920909   -0.443270   -2.855836
siesta:    100   -2.863506   -2.774675   -2.475527
siesta:    101   -3.250000    0.071968    4.316061
siesta:    102    0.038187    3.685262    3.027802
siesta:    103   -0.360088   -2.924513   -2.005648
siesta:    104   -2.611811   -0.898872   -0.498956
siesta:    105   -0.058914    4.467270   -2.786603
siesta:    106   -0.102022   -2.332790    2.818850
siesta:    107    2.462850    0.756441   -2.456071
siesta:    108    0.317678    0.942208    2.161067
siesta:    109    1.853413    3.464055    3.822101
siesta:    110    1.004744    0.098075   -2.210012
siesta:    111    2.824097    3.997138    3.677754
siesta:    112   -4.219934   -0.656863   -0.742963
siesta:    113   -1.362853   -4.299105    3.761085
siesta:    114   -1.917273    0.802915    1.857931
siesta:    115    3.098055   -2.822080    2.254347
siesta:    116   -2.292801    1.294107    3.976349
siesta:    117   -1.468305   -2.961557    1.837658
siesta:    118    0.604564    0.263790    0.175705
siesta:    119   -1.964322   -5.395389   -0.228524
siesta:    120    0.711504   -3.272730   -2.855934
siesta:    121   -1.079493   -2.018095    1.169312
siesta:    122   -0.694798   -0.373093    2.972216
siesta:    123    0.340497    1.529808    0.188660
siesta:    124    0.156031   -0.408128   -1.434541
siesta:    125    1.382612    2.128380   -0.063641
siesta:    126    0.436558   -0.434694   -0.628005
siesta:    127   -1.041331    1.466987   -1.027720
siesta:    128    1.686893    2.523564    0.375564
siesta:    129    4.119786    1.576767   -2.545668
siesta:    130    1.957111   -1.796932    1.501856
siesta:    131   -2.741318   -0.308490   -0.618309
siesta:    132    1.253078    2.244326    2.088603
siesta:    133    1.759491    0.760774   -0.413803
siesta:    134   -1.745973    2.747219   -0.124629
siesta:    135    2.209090    0.799768   -1.174824
siesta:    136   -1.676184    3.158768   -1.779359
siesta:    137   -2.956101    3.143325   -1.503038
siesta:    138    1.093613   -2.654289   -2.031342
siesta:    139   -2.318844   -2.610346   -1.554928
siesta:    140   -0.875433   -0.432835    2.890092
siesta:    141   -2.378034   -0.340468    1.778015
siesta:    142   -0.066672   -1.643333    1.075105
siesta:    143   -0.640804   -0.726299   -1.718181
siesta:    144   -1.690335   -1.592308   -1.450376
siesta:    145   -0.873664   -3.635479    3.102611
siesta:    146   -2.580039   -0.593390    1.647545
siesta:    147   -2.375321    1.061739    2.810482
siesta:    148   -1.250049   -3.916247   -0.422191
siesta:    149   -0.212556   -3.014927    1.288649
siesta:    150    0.167463   -1.444666    2.189308
siesta: ----------------------------------------
siesta:    Tot   -6.267738   -9.029542    5.029096

siesta: Stress tensor (static) (eV/Ang**3):
siesta:    -0.010090    0.000926    0.001162
siesta:     0.000921   -0.006381   -0.001917
siesta:     0.001159   -0.001918   -0.011395

siesta: Cell volume =       8105.109819 Ang**3

siesta: Pressure (static):
siesta:                Solid            Molecule  Units
siesta:           0.00010117          0.00003041  Ry/Bohr**3
siesta:           0.00928874          0.00279247  eV/Ang**3
siesta:          14.88236530          4.47408644  kBar
(Free)E+ p_basis*V_orbitals  =      -23145.708353
(Free)Eharris+ p_basis*V_orbitals  =      -23145.681672

siesta: Electric dipole (a.u.)  =    5.104071  -18.433533    1.522576
siesta: Electric dipole (Debye) =   12.973263  -46.853400    3.870006
 Memory Consumption Report:
   Tot. No. of Allocations             :  3268
   Tot. No. of Deallocations           :  3268
   Remaining Memory (B)                :  0
   Memory occupation:
     Peak Value (MB)                   :  121.775
     for the array                     : vectors_new
     in the routine                    : chebyshev_clean
     Memory Peak of process            : 208.908 MB
 Walltime since initialization         :  00:01:07.281871412
 Max No. of dictionaries used          :  1598 #( 306 still in use)
 Number of dictionary folders allocated:  1
>> End of run:  27-JUN-2017   9:16:10
