
                           ***********************       
                           *  WELCOME TO SIESTA  *       
                           ***********************       

reinit: Reading from standard input
reinit: Dumped input in INPUT_TMP.14756
************************** Dump of input data file ****************************
SystemName          Water molecule
SystemLabel         CheSS H2O
NumberOfAtoms       150
NumberOfSpecies     2
SolutionMethod CheSS
MaxSCFIterations 10
CheSSBufferKernel 2.0
CheSSBufferMult 4.0
PAO.BasisSize SZ
MeshCutoff  50 Ry
%block ChemicalSpeciesLabel
 1  8  O      # Species index, atomic number, species label
 2  1  H
%endblock ChemicalSpeciesLabel
AtomicCoordinatesFormat  Ang
%block AtomicCoordinatesAndAtomicSpecies
     8.73360E+01    1.08882E+02    9.08855E+01    1
     8.96060E+01    1.09041E+02    9.23415E+01    1
     9.03620E+01    1.07515E+02    8.95875E+01    1
     8.72970E+01    1.06274E+02    8.99505E+01    1
     8.95130E+01    1.06405E+02    9.35005E+01    1
     9.05580E+01    1.09429E+02    8.75945E+01    1
     8.63240E+01    1.10899E+02    8.95545E+01    1
     8.58950E+01    1.08650E+02    9.29555E+01    1
     8.86610E+01    1.11331E+02    8.82295E+01    1
     9.14960E+01    1.11049E+02    9.14375E+01    1
     8.82320E+01    1.04504E+02    9.19595E+01    1
     9.29640E+01    1.07599E+02    9.01035E+01    1
     9.03110E+01    1.04966E+02    8.85375E+01    1
     8.97110E+01    1.11486E+02    9.36275E+01    1
     8.97730E+01    1.12687E+02    9.02455E+01    1
     8.80370E+01    1.05567E+02    8.70745E+01    1
     8.87020E+01    1.07800E+02    8.58955E+01    1
     9.30410E+01    1.08020E+02    9.30465E+01    1
     8.63120E+01    1.06350E+02    9.42955E+01    1
     9.30450E+01    1.10898E+02    8.89765E+01    1
     8.87020E+01    1.07800E+02    9.57605E+01    1
     9.17350E+01    1.09950E+02    9.46845E+01    1
     9.21390E+01    1.05774E+02    9.39355E+01    1
     8.46590E+01    1.05007E+02    8.97695E+01    1
     8.66740E+01    1.09706E+02    9.54715E+01    1
     9.24400E+01    1.06603E+02    8.68135E+01    1
     8.56070E+01    1.12939E+02    9.14635E+01    1
     8.66740E+01    1.09706E+02    8.56065E+01    1
     8.42020E+01    1.08915E+02    8.73855E+01    1
     8.97730E+01    1.02822E+02    9.02455E+01    1
     8.30990E+01    1.07599E+02    9.01035E+01    1
     8.82320E+01    1.14369E+02    9.19595E+01    1
     8.31760E+01    1.08020E+02    9.30465E+01    1
     8.80450E+01    1.12185E+02    8.57965E+01    1
     9.40670E+01    1.08915E+02    8.73855E+01    1
     8.56070E+01    1.03074E+02    9.14635E+01    1
     8.80450E+01    1.12185E+02    9.56615E+01    1
     8.31800E+01    1.10898E+02    8.89765E+01    1
     9.29120E+01    1.13213E+02    9.25415E+01    1
     9.17350E+01    1.09950E+02    8.48195E+01    1
     8.58530E+01    1.03675E+02    9.42975E+01    1
     9.28170E+01    1.03743E+02    8.80085E+01    1
     9.45240E+01    1.05007E+02    8.97695E+01    1
     9.29120E+01    1.03348E+02    9.25415E+01    1
     9.03110E+01    1.14831E+02    8.85375E+01    1
     8.58530E+01    1.13540E+02    9.42975E+01    1
     8.80370E+01    1.05567E+02    9.69395E+01    1
     8.63120E+01    1.06350E+02    8.44305E+01    1
     9.28170E+01    1.13608E+02    8.80085E+01    1
     9.05580E+01    1.09429E+02    9.74595E+01    1
     8.73880E+01    1.08052E+02    9.03735E+01    2
     8.87710E+01    1.09207E+02    9.18135E+01    2
     9.01520E+01    1.07708E+02    9.04845E+01    2
     8.75170E+01    1.05727E+02    9.07775E+01    2
     9.04730E+01    1.06287E+02    9.37435E+01    2
     8.99060E+01    1.08915E+02    8.70265E+01    2
     8.68150E+01    1.10126E+02    8.99175E+01    2
     8.59750E+01    1.07741E+02    9.33935E+01    2
     8.93970E+01    1.10854E+02    8.78355E+01    2
     9.09870E+01    1.10190E+02    9.15705E+01    2
     8.74090E+01    1.04126E+02    9.22215E+01    2
     9.34430E+01    1.08074E+02    8.93975E+01    2
     9.11020E+01    1.04652E+02    8.80765E+01    2
     9.05100E+01    1.11144E+02    9.41545E+01    2
     8.93310E+01    1.13227E+02    9.09285E+01    2
     8.87840E+01    1.05072E+02    8.73655E+01    2
     8.91620E+01    1.07338E+02    8.51375E+01    2
     9.29590E+01    1.07819E+02    9.20975E+01    2
     8.72520E+01    1.06301E+02    9.44765E+01    2
     9.38940E+01    1.10944E+02    8.94415E+01    2
     8.91620E+01    1.07338E+02    9.50025E+01    2
     9.19780E+01    1.09164E+02    9.41575E+01    2
     9.21920E+01    1.05015E+02    9.32855E+01    2
     8.40450E+01    1.05648E+02    9.01715E+01    2
     8.74070E+01    1.09022E+02    9.56545E+01    2
     9.14910E+01    1.06635E+02    8.71075E+01    2
     8.60230E+01    1.12226E+02    9.08725E+01    2
     8.74070E+01    1.09022E+02    8.57895E+01    2
     8.37040E+01    1.08171E+02    8.70015E+01    2
     8.93310E+01    1.03362E+02    9.09285E+01    2
     8.35780E+01    1.08074E+02    8.93975E+01    2
     8.74090E+01    1.13991E+02    9.22215E+01    2
     8.30940E+01    1.07819E+02    9.20975E+01    2
     8.83820E+01    1.12098E+02    8.66985E+01    2
     9.35690E+01    1.08171E+02    8.70015E+01    2
     8.60230E+01    1.02361E+02    9.08725E+01    2
     8.83820E+01    1.12098E+02    9.65635E+01    2
     8.40290E+01    1.10944E+02    8.94415E+01    2
     9.38070E+01    1.13011E+02    9.22625E+01    2
     9.19780E+01    1.09164E+02    8.42925E+01    2
     8.56680E+01    1.03188E+02    9.34615E+01    2
     9.30570E+01    1.03530E+02    8.70575E+01    2
     9.39100E+01    1.05648E+02    9.01715E+01    2
     9.38070E+01    1.03146E+02    9.22625E+01    2
     9.11020E+01    1.14517E+02    8.80765E+01    2
     8.56680E+01    1.13053E+02    9.34615E+01    2
     8.87840E+01    1.05072E+02    9.72305E+01    2
     8.72520E+01    1.06301E+02    8.46115E+01    2
     9.30570E+01    1.13395E+02    8.70575E+01    2
     8.99060E+01    1.08915E+02    9.68915E+01    2
     8.66830E+01    1.08673E+02    9.16235E+01    2
     8.96320E+01    1.09772E+02    9.30505E+01    2
     9.00060E+01    1.06557E+02    8.94655E+01    2
     8.63200E+01    1.06015E+02    8.97415E+01    2
     8.94310E+01    1.07276E+02    9.30055E+01    2
     9.07600E+01    1.08918E+02    8.84435E+01    2
     8.68930E+01    1.11206E+02    8.87695E+01    2
     8.63480E+01    1.09319E+02    9.36515E+01    2
     8.90500E+01    1.11949E+02    8.89145E+01    2
     9.20900E+01    1.10837E+02    9.05915E+01    2
     8.86220E+01    1.05134E+02    9.26055E+01    2
     9.20600E+01    1.07414E+02    8.97015E+01    2
     9.01380E+01    1.04239E+02    8.91895E+01    2
     8.89340E+01    1.11626E+02    9.42885E+01    2
     9.04250E+01    1.12075E+02    9.07015E+01    2
     8.76250E+01    1.05837E+02    8.79345E+01    2
     8.83540E+01    1.06979E+02    8.64345E+01    2
     9.40070E+01    1.08401E+02    9.32115E+01    2
     8.60830E+01    1.05390E+02    9.42115E+01    2
     9.31770E+01    1.10260E+02    8.82035E+01    2
     8.83540E+01    1.06979E+02    9.62995E+01    2
     9.13840E+01    1.09546E+02    9.55615E+01    2
     9.27560E+01    1.06540E+02    9.34945E+01    2
     8.40930E+01    1.04763E+02    8.89225E+01    2
     8.69600E+01    1.10672E+02    9.56935E+01    2
     9.23270E+01    1.06197E+02    8.58455E+01    2
     8.51820E+01    1.13520E+02    9.07345E+01    2
     8.69600E+01    1.10672E+02    8.58285E+01    2
     8.50080E+01    1.08913E+02    8.67685E+01    2
     9.04250E+01    1.02210E+02    9.07015E+01    2
     8.21950E+01    1.07414E+02    8.97015E+01    2
     8.86220E+01    1.14999E+02    9.26055E+01    2
     8.41420E+01    1.08401E+02    9.32115E+01    2
     8.75130E+01    1.13025E+02    8.57265E+01    2
     9.48730E+01    1.08913E+02    8.67685E+01    2
     8.51820E+01    1.03655E+02    9.07345E+01    2
     8.75130E+01    1.13025E+02    9.55915E+01    2
     8.33120E+01    1.10260E+02    8.82035E+01    2
     9.23250E+01    1.12529E+02    9.20895E+01    2
     9.13840E+01    1.09546E+02    8.56965E+01    2
     8.50800E+01    1.03445E+02    9.48955E+01    2
     9.28290E+01    1.02822E+02    8.84665E+01    2
     9.39580E+01    1.04763E+02    8.89225E+01    2
     9.23250E+01    1.02664E+02    9.20895E+01    2
     9.01380E+01    1.14104E+02    8.91895E+01    2
     8.50800E+01    1.13310E+02    9.48955E+01    2
     8.76250E+01    1.05837E+02    9.77995E+01    2
     8.60830E+01    1.05390E+02    8.43465E+01    2
     9.28290E+01    1.12687E+02    8.84665E+01    2
     9.07600E+01    1.08918E+02    9.83085E+01    2
%endblock AtomicCoordinatesAndAtomicSpecies
************************** End of input data file *****************************

reinit: -----------------------------------------------------------------------
reinit: System Name: Water molecule
reinit: -----------------------------------------------------------------------
reinit: System Label: CheSS H2O
reinit: -----------------------------------------------------------------------
Siesta Version: trunk-596
Architecture  : x86_64-linux-Intel
Compiler flags: /home/stephan/Software/openmpi-1.10.2_gnu/bin/mpifort  -m64 -fPIC -O3 -march==native -ftree-vectorize -fexpensive-optimizations -funroll-loops -fprefetch-loop-arrays -fno-second-underscore -C -g -O0 -fbacktrace
PP flags      : -DMPI -DFC_HAVE_FLUSH -DFC_HAVE_ABORT -DSIESTA__CHESS -DSIESTA__NO_MRRR
Libraries     :  -L/usr/lib -lblacs-openmpi -lscalapack-openmpi -lblas -llapack -L/home/stephhan/Documents/SIESTA/trunk-profiling/Build -lscalapack-openmpi /home/stephan/Documents/BigDFT/stablebranch/Build-gnu_noomp/install/lib/libCheSS-1.a /home/stephan/Documents/BigDFT/stablebranch/Build-gnu_noomp/install/lib/libfutile-1.a /home/stephan/Documents/BigDFT/stablebranch/Build-gnu_noomp/install/lib/libyaml.a
PARALLEL version

* Running on 2 nodes in parallel
>> Start of run:  20-JAN-2017  11:43:28

initatom: Reading input for the pseudopotentials and atomic orbitals ----------
Species number:   1 Atomic number:    8 Label: O
Species number:   2 Atomic number:    1 Label: H

Ground state valence configuration:   2s02  2p04
Reading pseudopotential information in formatted form from O.psf

Valence configuration for pseudopotential generation:
2s( 2.00) rc: 1.14
2p( 4.00) rc: 1.14
3d( 0.00) rc: 1.14
4f( 0.00) rc: 1.14
Ground state valence configuration:   1s01
Reading pseudopotential information in formatted form from H.psf

Valence configuration for pseudopotential generation:
1s( 1.00) rc: 1.25
2p( 0.00) rc: 1.25
3d( 0.00) rc: 1.25
4f( 0.00) rc: 1.25
For O, standard SIESTA heuristics set lmxkb to 2
 (one more than the basis l, including polarization orbitals).
Use PS.lmax or PS.KBprojectors blocks to override.
For H, standard SIESTA heuristics set lmxkb to 1
 (one more than the basis l, including polarization orbitals).
Use PS.lmax or PS.KBprojectors blocks to override.

<basis_specs>
===============================================================================
O                    Z=   8    Mass=  16.000        Charge= 0.17977+309
Lmxo=1 Lmxkb= 2    BasisType=split      Semic=F
L=0  Nsemic=0  Cnfigmx=2
          n=1  nzeta=1  polorb=0
            splnorm:   0.15000    
               vcte:    0.0000    
               rinn:    0.0000    
               qcoe:    0.0000    
               qyuk:    0.0000    
               qwid:   0.10000E-01
                rcs:    0.0000    
            lambdas:    1.0000    
L=1  Nsemic=0  Cnfigmx=2
          n=1  nzeta=1  polorb=0
            splnorm:   0.15000    
               vcte:    0.0000    
               rinn:    0.0000    
               qcoe:    0.0000    
               qyuk:    0.0000    
               qwid:   0.10000E-01
                rcs:    0.0000    
            lambdas:    1.0000    
-------------------------------------------------------------------------------
L=0  Nkbl=1  erefs: 0.17977+309
L=1  Nkbl=1  erefs: 0.17977+309
L=2  Nkbl=1  erefs: 0.17977+309
===============================================================================
</basis_specs>

atom: Called for O                     (Z =   8)

read_vps: Pseudopotential generation method:
read_vps: ATM3      Troullier-Martins                       
Total valence charge:    6.00000

xc_check: Exchange-correlation functional:
xc_check: Ceperley-Alder
V l=0 = -2*Zval/r beyond r=  1.1278
V l=1 = -2*Zval/r beyond r=  1.1278
V l=2 = -2*Zval/r beyond r=  1.1278
All V_l potentials equal beyond r=  1.1278
This should be close to max(r_c) in ps generation
All pots = -2*Zval/r beyond r=  1.1278

VLOCAL1: 99.0% of the norm of Vloc inside     34.126 Ry
VLOCAL1: 99.9% of the norm of Vloc inside     77.774 Ry
atom: Maximum radius for 4*pi*r*r*local-pseudopot. charge    1.37759
atom: Maximum radius for r*vlocal+2*Zval:    1.18566
GHOST: No ghost state for L =  0
GHOST: No ghost state for L =  1
GHOST: No ghost state for L =  2

KBgen: Kleinman-Bylander projectors: 
   l= 0   rc=  1.294105   el= -1.742414   Ekb=  9.135903   kbcos=  0.326910
   l= 1   rc=  1.294105   el= -0.676589   Ekb= -8.124878   kbcos= -0.395047
   l= 2   rc=  1.448233   el=  0.002386   Ekb= -2.039267   kbcos= -0.003484

KBgen: Total number of  Kleinman-Bylander projectors:    9
atom: -------------------------------------------------------------------------

atom: SANKEY-TYPE ORBITALS:

SPLIT: Orbitals with angular momentum L= 0

SPLIT: Basis orbitals for state 2s

SPLIT: PAO cut-off radius determined from an
SPLIT: energy shift=  0.020000 Ry

   izeta = 1
                 lambda =    1.000000
                     rc =    3.305093
                 energy =   -1.723766
                kinetic =    1.614911
    potential(screened) =   -3.338677
       potential(ionic) =  -11.304675

SPLIT: Orbitals with angular momentum L= 1

SPLIT: Basis orbitals for state 2p

SPLIT: PAO cut-off radius determined from an
SPLIT: energy shift=  0.020000 Ry

   izeta = 1
                 lambda =    1.000000
                     rc =    3.937239
                 energy =   -0.658841
                kinetic =    5.005986
    potential(screened) =   -5.664827
       potential(ionic) =  -13.452360
atom: Total number of Sankey-type orbitals:  4

atm_pop: Valence configuration (for local Pseudopot. screening):
 2s( 2.00)                                                            
 2p( 4.00)                                                            
Vna: chval, zval:    6.00000   6.00000

Vna:  Cut-off radius for the neutral-atom potential:   3.937239

atom: _________________________________________________________________________

<basis_specs>
===============================================================================
H                    Z=   1    Mass=  1.0100        Charge= 0.17977+309
Lmxo=0 Lmxkb= 1    BasisType=split      Semic=F
L=0  Nsemic=0  Cnfigmx=1
          n=1  nzeta=1  polorb=0
            splnorm:   0.15000    
               vcte:    0.0000    
               rinn:    0.0000    
               qcoe:    0.0000    
               qyuk:    0.0000    
               qwid:   0.10000E-01
                rcs:    0.0000    
            lambdas:    1.0000    
-------------------------------------------------------------------------------
L=0  Nkbl=1  erefs: 0.17977+309
L=1  Nkbl=1  erefs: 0.17977+309
===============================================================================
</basis_specs>

atom: Called for H                     (Z =   1)

read_vps: Pseudopotential generation method:
read_vps: ATM3      Troullier-Martins                       
Total valence charge:    1.00000

xc_check: Exchange-correlation functional:
xc_check: Ceperley-Alder
V l=0 = -2*Zval/r beyond r=  1.2343
V l=1 = -2*Zval/r beyond r=  1.2189
All V_l potentials equal beyond r=  1.2343
This should be close to max(r_c) in ps generation
All pots = -2*Zval/r beyond r=  1.2343

VLOCAL1: 99.0% of the norm of Vloc inside     28.493 Ry
VLOCAL1: 99.9% of the norm of Vloc inside     64.935 Ry
atom: Maximum radius for 4*pi*r*r*local-pseudopot. charge    1.45251
atom: Maximum radius for r*vlocal+2*Zval:    1.21892
GHOST: No ghost state for L =  0
GHOST: No ghost state for L =  1

KBgen: Kleinman-Bylander projectors: 
   l= 0   rc=  1.364359   el= -0.467325   Ekb= -2.005361   kbcos= -0.336422
   l= 1   rc=  1.434438   el=  0.001430   Ekb= -0.501708   kbcos= -0.021697

KBgen: Total number of  Kleinman-Bylander projectors:    4
atom: -------------------------------------------------------------------------

atom: SANKEY-TYPE ORBITALS:

SPLIT: Orbitals with angular momentum L= 0

SPLIT: Basis orbitals for state 1s

SPLIT: PAO cut-off radius determined from an
SPLIT: energy shift=  0.020000 Ry

   izeta = 1
                 lambda =    1.000000
                     rc =    4.828263
                 energy =   -0.449375
                kinetic =    0.929372
    potential(screened) =   -1.378747
       potential(ionic) =   -1.915047
atom: Total number of Sankey-type orbitals:  1

atm_pop: Valence configuration (for local Pseudopot. screening):
 1s( 1.00)                                                            
Vna: chval, zval:    1.00000   1.00000

Vna:  Cut-off radius for the neutral-atom potential:   4.828263

atom: _________________________________________________________________________

prinput: Basis input ----------------------------------------------------------

PAO.BasisType split     

%block ChemicalSpeciesLabel
    1    8 O                       # Species index, atomic number, species label
    2    1 H                       # Species index, atomic number, species label
%endblock ChemicalSpeciesLabel

%block PAO.Basis                 # Define Basis set
O                     2                    # Species label, number of l-shells
 n=2   0   1                         # n, l, Nzeta 
   3.305   
   1.000   
 n=2   1   1                         # n, l, Nzeta 
   3.937   
   1.000   
H                     1                    # Species label, number of l-shells
 n=1   0   1                         # n, l, Nzeta 
   4.828   
   1.000   
%endblock PAO.Basis

prinput: ----------------------------------------------------------------------

coor:   Atomic-coordinates input format  =     Cartesian coordinates
coor:                                          (in Angstroms)

siesta: Atomic coordinates (Bohr) and species
siesta:    165.04119 205.75724 171.74877  1        1
siesta:    169.33087 206.05771 174.50021  1        2
siesta:    170.75950 203.17399 169.29591  1        3
siesta:    164.96749 200.82883 169.98188  1        4
siesta:    169.15512 201.07639 176.69041  1        5
siesta:    171.12989 206.79092 165.52968  1        6
siesta:    163.12878 209.56882 169.23355  1        7
siesta:    162.31809 205.31883 175.66051  1        8
siesta:    167.54507 210.38518 166.72966  1        9
siesta:    172.90245 209.85228 172.79190  1       10
siesta:    166.73438 197.48402 173.77834  1       11
siesta:    175.67657 203.33272 170.27101  1       12
siesta:    170.66312 198.35707 167.31169  1       13
siesta:    169.52929 210.67809 176.93040  1       14
siesta:    169.64645 212.94765 170.53935  1       15
siesta:    166.36589 199.49280 164.54702  1       16
siesta:    167.62255 203.71256 162.31904  1       17
siesta:    175.82208 204.12830 175.83247  1       18
siesta:    163.10611 200.97245 178.19274  1       19
siesta:    175.82964 209.56693 168.14128  1       20
siesta:    167.62255 203.71256 180.96119  1       21
siesta:    173.35410 207.77547 178.92784  1       22
siesta:    174.11754 199.88397 177.51244  1       23
siesta:    159.98239 198.43455 169.63984  1       24
siesta:    163.79019 207.31438 180.41506  1       25
siesta:    174.68635 201.45055 164.05380  1       26
siesta:    161.77385 213.42386 172.84103  1       27
siesta:    163.79019 207.31438 161.77290  1       28
siesta:    159.11878 205.81960 165.13473  1       29
siesta:    169.64645 194.30550 170.53935  1       30
siesta:    157.03441 203.33272 170.27101  1       31
siesta:    166.73438 216.12617 173.77834  1       32
siesta:    157.17992 204.12830 175.83247  1       33
siesta:    166.38100 211.99901 162.13195  1       34
siesta:    177.76094 205.81960 165.13473  1       35
siesta:    161.77385 194.78171 172.84103  1       36
siesta:    166.38100 211.99901 180.77411  1       37
siesta:    157.18748 209.56693 168.14128  1       38
siesta:    175.57830 213.94165 174.87816  1       39
siesta:    173.35410 207.77547 160.28569  1       40
siesta:    162.23872 195.91743 178.19652  1       41
siesta:    175.39878 196.04594 166.31203  1       42
siesta:    178.62454 198.43455 169.63984  1       43
siesta:    175.57830 195.29949 174.87816  1       44
siesta:    170.66312 216.99923 167.31169  1       45
siesta:    162.23872 214.55959 178.19652  1       46
siesta:    166.36589 199.49280 183.18918  1       47
siesta:    163.10611 200.97245 159.55059  1       48
siesta:    175.39878 214.68809 166.31203  1       49
siesta:    171.12989 206.79092 184.17184  1       50
siesta:    165.13945 204.18877 170.78123  2       51
siesta:    167.75294 206.37140 173.50244  2       52
siesta:    170.36266 203.53870 170.99099  2       53
siesta:    165.38323 199.79515 171.54468  2       54
siesta:    170.96926 200.85340 177.14961  2       55
siesta:    169.89778 205.81960 164.45632  2       56
siesta:    164.05664 208.10806 169.91952  2       57
siesta:    162.46927 203.60106 176.48821  2       58
siesta:    168.93591 209.48378 165.98511  2       59
siesta:    171.94058 208.22900 173.04324  2       60
siesta:    165.17914 196.76970 174.27345  2       61
siesta:    176.58175 204.23034 168.93686  2       62
siesta:    172.15790 197.76370 166.44053  2       63
siesta:    171.03918 210.03180 177.92629  2       64
siesta:    168.81119 213.96811 171.83003  2       65
siesta:    167.77751 198.55738 165.09693  2       66
siesta:    168.49183 202.83950 160.88662  2       67
siesta:    175.66712 203.74846 174.03912  2       68
siesta:    164.88245 200.87986 178.53478  2       69
siesta:    177.43402 209.65386 169.02001  2       70
siesta:    168.49183 202.83950 179.52878  2       71
siesta:    173.81330 206.29014 177.93196  2       72
siesta:    174.21770 198.44967 176.28412  2       73
siesta:    158.82210 199.64587 170.39951  2       74
siesta:    165.17536 206.02180 180.76088  2       75
siesta:    172.89300 201.51103 164.60938  2       76
siesta:    162.55998 212.07649 171.72421  2       77
siesta:    165.17536 206.02180 162.11872  2       78
siesta:    158.17770 204.41365 164.40907  2       79
siesta:    168.81119 195.32595 171.83003  2       80
siesta:    157.93959 204.23034 168.93686  2       81
siesta:    165.17914 215.41186 174.27345  2       82
siesta:    157.02497 203.74846 174.03912  2       83
siesta:    167.01784 211.83460 163.83649  2       84
siesta:    176.81985 204.41365 164.40907  2       85
siesta:    162.55998 193.43433 171.72421  2       86
siesta:    167.01784 211.83460 182.47864  2       87
siesta:    158.79186 209.65386 169.02001  2       88
siesta:    177.26961 213.55992 174.35093  2       89
siesta:    173.81330 206.29014 159.28980  2       90
siesta:    161.88912 194.99714 176.61671  2       91
siesta:    175.85231 195.64342 164.51490  2       92
siesta:    177.46425 199.64587 170.39951  2       93
siesta:    177.26961 194.91777 174.35093  2       94
siesta:    172.15790 216.40585 166.44053  2       95
siesta:    161.88912 213.63929 176.61671  2       96
siesta:    167.77751 198.55738 183.73909  2       97
siesta:    164.88245 200.87986 159.89263  2       98
siesta:    175.85231 214.28558 164.51490  2       99
siesta:    169.89778 205.81960 183.09847  2      100
siesta:    163.80719 205.36229 173.14339  2      101
siesta:    169.38000 207.43910 175.84003  2      102
siesta:    170.08676 201.36363 169.06536  2      103
siesta:    163.12122 200.33939 169.58692  2      104
siesta:    169.00016 202.72234 175.75499  2      105
siesta:    171.51161 205.82527 167.13406  2      106
siesta:    164.20404 210.14897 167.75011  2      107
siesta:    163.17414 206.58305 176.97576  2      108
siesta:    168.28018 211.55303 168.02412  2      109
siesta:    174.02495 209.45166 171.19319  2      110
siesta:    167.47138 198.67455 174.99910  2      111
siesta:    173.96826 202.98312 169.51134  2      112
siesta:    170.33620 196.98324 168.54380  2      113
siesta:    168.06097 210.94265 178.17951  2      114
siesta:    170.87855 211.79114 171.40106  2      115
siesta:    165.58732 200.00302 166.17219  2      116
siesta:    166.96493 202.16109 163.33760  2      117
siesta:    177.64755 204.84828 176.14428  2      118
siesta:    162.67336 199.15832 178.03400  2      119
siesta:    176.07908 208.36129 166.68052  2      120
siesta:    166.96493 202.16109 181.97975  2      121
siesta:    172.69080 207.01202 180.58514  2      122
siesta:    175.28351 201.33150 176.67907  2      123
siesta:    158.91280 197.97346 168.03924  2      124
siesta:    164.33065 209.13985 180.83458  2      125
siesta:    174.47281 200.68333 162.22455  2      126
siesta:    160.97071 214.52180 171.46342  2      127
siesta:    164.33065 209.13985 162.19242  2      128
siesta:    160.64190 205.81582 163.96877  2      129
siesta:    170.87855 193.14898 171.40106  2      130
siesta:    155.32610 202.98312 169.51134  2      131
siesta:    167.47138 217.31670 174.99910  2      132
siesta:    159.00540 204.84828 176.14428  2      133
siesta:    165.37567 213.58638 161.99967  2      134
siesta:    179.28406 205.81582 163.96877  2      135
siesta:    160.97071 195.87964 171.46342  2      136
siesta:    165.37567 213.58638 180.64183  2      137
siesta:    157.43693 208.36129 166.68052  2      138
siesta:    174.46903 212.64908 174.02400  2      139
siesta:    172.69080 207.01202 161.94298  2      140
siesta:    160.77796 195.48280 179.32658  2      141
siesta:    175.42146 194.30550 167.17752  2      142
siesta:    177.55496 197.97346 168.03924  2      143
siesta:    174.46903 194.00692 174.02400  2      144
siesta:    170.33620 215.62540 168.54380  2      145
siesta:    160.77796 214.12495 179.32658  2      146
siesta:    165.58732 200.00302 184.81434  2      147
siesta:    162.67336 199.15832 159.39185  2      148
siesta:    175.42146 212.94765 167.17752  2      149
siesta:    171.51161 205.82527 185.77621  2      150

siesta: Automatic unit cell vectors (Ang):
siesta:   19.566812    0.000000    0.000000
siesta:    0.000000   19.688912    0.000000
siesta:    0.000000    0.000000   21.038612

siesta: System type = molecule  

initatomlists: Number of atoms, orbitals, and projectors:    150   300   850

siesta: ******************** Simulation parameters ****************************
siesta:
siesta: The following are some of the parameters of the simulation.
siesta: A complete list of the parameters used, including default values,
siesta: can be found in file out.fdf
siesta:
redata: Spin configuration                          = none
redata: Number of spin components                   = 1
redata: Time-Reversal Symmetry                      = T
redata: Spin-spiral                                 = F
redata: Long output                                 =   F
redata: Number of Atomic Species                    =        2
redata: Charge density info will appear in .RHO file
redata: Write Mulliken Pop.                         = NO
redata: Mesh Cutoff                                 =    50.0000 Ry
redata: Net charge of the system                    =     0.0000 |e|
redata: Min. number of SCF Iter                     =        0
redata: Max. number of SCF Iter                     =       10
redata: SCF mix quantity                            = Hamiltonian
redata: Mix DM or H after convergence               =   F
redata: Recompute H after scf cycle                 =   F
redata: Mix DM in first SCF step                    =   T
redata: Write Pulay info on disk                    =   F
redata: New DM Mixing Weight                        =     0.2500
redata: New DM Occupancy tolerance                  = 0.000000000001
redata: No kicks to SCF
redata: DM Mixing Weight for Kicks                  =     0.5000
redata: Require Harris convergence for SCF          =   F
redata: Harris energy tolerance for SCF             =     0.000100 eV
redata: Require DM convergence for SCF              =   T
redata: DM tolerance for SCF                        =     0.0001
redata: Require EDM convergence for SCF             =   F
redata: EDM tolerance for SCF                       =     0.001000 eV
redata: Require H convergence for SCF               =   T
redata: Hamiltonian tolerance for SCF               =     0.001000 eV
redata: Require (free) Energy convergence for SCF   =   F
redata: (free) Energy tolerance for SCF             =     0.000100 eV
redata: Using Saved Data (generic)                  =   F
redata: Use continuation files for DM               =   F
redata: Neglect nonoverlap interactions             =   F
redata: Method of Calculation            =         CheSS
redata: CheSSBufferKernel   =                       =     2.000000
redata: CheSSBufferMult     =                       =     4.000000
redata: CheSSBetax          =                       = -1000.000000
redata: Fix the spin of the system                  =   F
redata: Max. number of TDED Iter         =          =        1
redata: Write .TDWF and .DM after time steps=       =      100
redata: Dynamics option                             = Single-point calculation
mix.SCF: Pulay mixing                            = Pulay
mix.SCF:    Variant                              = stable
mix.SCF:    History steps                        = 2
mix.SCF:    Linear mixing weight                 =     0.250000
mix.SCF:    Mixing weight                        =     0.250000
mix.SCF:    SVD condition                        = 0.1000E-07
redata: ***********************************************************************

%block SCF.Mixers
  Pulay
%endblock SCF.Mixers

%block SCF.Mixer.Pulay
  # Mixing method
  method pulay
  variant stable

  # Mixing options
  weight 0.2500
  weight.linear 0.2500
  history 2
%endblock SCF.Mixer.Pulay

DM_history_depth set to one: no extrapolation allowed by default for geometry relaxation
Size of DM history Fstack: 1
Total number of electrons:   400.000000
Total ionic charge:   400.000000

* ProcessorY, Blocksize:    1  24


* Orbital distribution balance (max,min):   156   144

 Kpoints in:            1 . Kpoints trimmed:            1

siesta: k-grid: Number of k-points =     1
siesta: k-grid: Cutoff (effective) =     9.783 Ang
siesta: k-grid: Supercell and displacements
siesta: k-grid:    1   0   0      0.000
siesta: k-grid:    0   1   0      0.000
siesta: k-grid:    0   0   1      0.000


                     ====================================
                        Single-point calculation
                     ====================================

outcell: Unit cell vectors (Ang):
       19.566812    0.000000    0.000000
        0.000000   19.688912    0.000000
        0.000000    0.000000   21.038612

outcell: Cell vector modules (Ang)   :   19.566812   19.688912   21.038612
outcell: Cell angles (23,13,12) (deg):     90.0000     90.0000     90.0000
outcell: Cell volume (Ang**3)        :   8105.1098
---
 Sparse matrices:
   Overlap and hamiltonian matrix:
     total elements                    :  90000
     segments                          :  7026
     non-zero elements                 :  16314
     sparsity in %                     :  81.87
     sparse matrix multiplication initialized:  No
     taskgroup summary:
       number of taskgroups            :  1
       taskgroups overview:
       -  {number of tasks:  2, start / end:  [  1,  16314 ], start / end disjoint: [ 1, 
  16314]}
   Density kernel matrix:
     total elements                    :  90000
     segments                          :  7484
     non-zero elements                 :  66612
     sparsity in %                     :  25.99
     sparse matrix multiplication initialized:  Yes
     sparse matrix multiplication setup:
       segments                        :  472
       non-zero elements               :  89680
       sparsity in %                   :  0.36
     taskgroup summary:
       number of taskgroups            :  1
       taskgroups overview:
       -  {number of tasks:  2, start / end:  [  1,  66612 ], start / end disjoint: [ 1, 
  66612]}
<dSpData1D:S at geom step 0
  <sparsity:sparsity for geom step 0
    nrows_g=300 nrows=156 sparsity=.1016 nnzs=9144, refcount: 7>
  <dData1D:(new from dSpData1D) n=9144, refcount: 1>
refcount: 1>
new_DM -- step:     1
Initializing Density Matrix...
DM filled with atomic data:
<dSpData2D:DM initialized from atoms
  <sparsity:sparsity for geom step 0
    nrows_g=300 nrows=156 sparsity=.1016 nnzs=9144, refcount: 8>
  <dData2D:DM n=9144 m=1, refcount: 1>
refcount: 1>

No. of atoms with KB's overlaping orbs in proc 0. Max # of overlaps:     147      27
New grid distribution:   1
           1       1:   45    1:   45    1:   23
           2       1:   45    1:   45   24:   45

InitMesh: MESH =    90 x    90 x    90 =      729000
InitMesh: (bp) =    45 x    45 x    45 =       91125
InitMesh: Mesh cutoff (required, used) =    50.000    50.577 Ry
ExtMesh (bp) on 0 =    69 x    69 x    47 =      223767
New grid distribution:   2
           1       1:   45    1:   45    1:   15
           2       1:   45    1:   45   16:   45
New grid distribution:   3
           1       1:   45    1:   45    1:   15
           2       1:   45    1:   45   16:   45
Setting up quadratic distribution...
ExtMesh (bp) on 0 =    69 x    69 x    39 =      185679
PhiOnMesh: Number of (b)points on node 0 =                30375
PhiOnMesh: nlist on node 0 =               100360
  #~~~~~~~~~~~~~~~~~~~~~~~~~~~~~~~~~~~~~~~~~~~~~~~~~~~~~~~~~~~~~~~ FOE calculation of kernel
 S^-1/2:
   Can take from memory                :  No
   beta for penaltyfunction            : -1000.0
   determine eigenvalue bounds:
   -  {npl:  110, scale:  1.00E+00, bounds:  [  0.500,  1.500 ], exp accur:  [  5.35E-14 ], 
   penalty: -2.8E+06,                   ok:  [  Yes,  No ]}
   -  {npl:  120, scale:  5.00E-01, bounds:  [  0.500,  1.800 ], exp accur:  [  3.62E-14 ], 
   penalty:  5.1E+06,                   ok:  [  No,  Yes ]}
   -  {npl:  120, scale:  1.00E+00, bounds:  [  0.417,  1.800 ], exp accur:  [  3.91E-14 ], 
   penalty: -6.8E+05,                   ok:  [  Yes,  No ]}
   -  {npl:  140, scale:  5.00E-01, bounds:  [  0.417,  2.160 ], exp accur:  [  3.26E-14 ], 
   penalty:  3.4E+06,                   ok:  [  No,  Yes ]}
   -  {npl:  140, scale:  1.00E+00, bounds:  [  0.347,  2.160 ], exp accur:  [  3.71E-14 ], 
   penalty: -4.9E+05,                   ok:  [  Yes,  No ]}
   -  {npl:  160, scale:  5.00E-01, bounds:  [  0.347,  2.592 ], exp accur:  [  4.55E-14 ], 
   penalty:  2.5E+06,                   ok:  [  No,  Yes ]}
   -  {npl:  160, scale:  1.00E+00, bounds:  [  0.289,  2.592 ], exp accur:  [  4.8E-14 ], 
   penalty:  1.8E+03,                   ok:  [  No,  Yes ]}
   -  {npl:  160, scale:  2.00E+00, bounds:  [  0.241,  2.592 ], exp accur:  [  4.93E-14 ], 
   penalty: -3.7E+06,                   ok:  [  Yes,  No ]}
   -  {npl:  180, scale:  1.00E+00, bounds:  [  0.241,  3.110 ], exp accur:  [  5.82E-14 ], 
   penalty: -1.1E-09,                   ok:  [  Yes,  Yes ]}
   summary: {npl:  180, bounds:  [  0.241,  3.110 ], exp accur:  [  5.82E-14 ]}
 Kernel calculation:
 -  #------------------------------------------------------------------- ispin: 1, itemp: 1
   decay length of error function      :  2.000E-02
   beta for penaltyfunction            : -1000.0
   determine eigenvalue bounds:
   -  {npl:  140, bounds:  [ -0.500,  0.500 ], exp accur:  [  7.6E-06 ], penalty:  8.6E+05, ok: [
  No,  Yes]}
   -  {npl:  160, bounds:  [ -0.600,  0.500 ], exp accur:  [  6.67E-06 ], 
   penalty:  1.1E+07, ok:  [  No,  Yes ]}
   -  {npl:  180, bounds:  [ -0.720,  0.500 ], exp accur:  [  3.85E-06 ], 
   penalty:  2.3E+06, ok:  [  No,  Yes ]}
   -  {npl:  190, bounds:  [ -0.864,  0.500 ], exp accur:  [  7.29E-06 ], 
   penalty:  8.3E+06, ok:  [  No,  Yes ]}
   -  {npl:  210, bounds:  [ -1.037,  0.500 ], exp accur:  [  5.94E-06 ], 
   penalty:  7.0E+05, ok:  [  No,  Yes ]}
   -  {npl:  230, bounds:  [ -1.244,  0.500 ], exp accur:  [  5.41E-06 ], 
   penalty:  3.9E+06, ok:  [  No,  Yes ]}
   -  {npl:  250, bounds:  [ -1.493,  0.500 ], exp accur:  [  8.01E-06 ], 
   penalty:  1.2E+06, ok:  [  No,  Yes ]}
   -  {npl:  280, bounds:  [ -1.792,  0.500 ], exp accur:  [  4.63E-06 ], 
   penalty:  4.0E+05, ok:  [  No,  Yes ]}
   -  {npl:  290, bounds:  [ -2.150,  0.500 ], exp accur:  [  9.38E-06 ], 
   penalty: -6.7E+04, ok:  [  Yes,  No ]}
   -  {npl:  320, bounds:  [ -2.150,  0.600 ], exp accur:  [  8.79E-06 ], 
   penalty: -2.7E-17, ok:  [  Yes,  Yes ]}
   summary: {npl:  320, bounds:  [  0.24,  3.11 ], exp accur:  [  8.79E-06 ]}
   determine Fermi energy:
   -  { #------------------------------------------------------------------------ it FOE: 1
 eF: -1.000000E-01, Tr(K):  4.0000004E+02, D Tr(K):  4.07E-05, new eF: bisec bounds}
   -  { #------------------------------------------------------------------------ it FOE: 2
 eF: -2.000000E-01, Tr(K):  4.0000007E+02, D Tr(K):  6.63E-05, new eF: bisec bounds}
   -  { #------------------------------------------------------------------------ it FOE: 3
 eF: -3.100000E-01, Tr(K):  3.9999991E+02, D Tr(K): -9.30E-05, new eF: bisec bounds}
   -  { #------------------------------------------------------------------------ it FOE: 4
 eF:  1.000000E-01, Tr(K):  4.1835298E+02, D Tr(K):  1.84E+01, new eF: bisection/secant}
   -  { #------------------------------------------------------------------------ it FOE: 5
 eF: -2.074990E-01, Tr(K):  3.9999996E+02, D Tr(K): -4.07E-05, new eF: bisection/secant}
   -  { #------------------------------------------------------------------------ it FOE: 6
 eF: -1.306239E-01, Tr(K):  4.0000002E+02, D Tr(K):  1.84E-05, new eF: bisection/secant}
   -  { #------------------------------------------------------------------------ it FOE: 7
 eF: -1.618133E-01, Tr(K):  3.9999994E+02, D Tr(K): -5.68E-05, new eF: linear interpol}
   -  { #------------------------------------------------------------------------ it FOE: 8
 eF: -1.382559E-01, Tr(K):  3.9999995E+02, D Tr(K): -5.05E-05, new eF: cubic interpol}
   -  { #------------------------------------------------------------------------ it FOE: 9
 eF: -1.322463E-01, Tr(K):  4.0000000E+02, D Tr(K): -2.03E-06, new eF: cubic interpol}
   -  { #----------------------------------------------------------------------- it FOE: 10
 eF: -1.320722E-01, Tr(K):  4.0000000E+02, D Tr(K):  2.26E-07, new eF: linear interpol}
   summary: {nit:  10, eF: -1.320897E-01, Tr(K):  4.0000000E+02, D Tr(K):  2.26E-07}
   Asymmetry of kernel                 :  4.72E-05
   symmetrize_kernel                   :  Yes
   EBS                                 : -4.371883336029E+02
   EBS higher temperature              : -4.371883216300E+02
   difference                          :  1.197287144805E-05
   relative difference                 :  2.738607260945E-08
   trace(KS)                           :  400.0000006625791
   modify error function decay length  : increase
   need to repeat with sharper decay (new):  No
  #~~~~~~~~~~~~~~~~~~~~~~~~~~~~~~~~~~~~~~~~~~~~~~~~~~~~~~ FOE calculation of kernel finished

siesta: Program's energy decomposition (eV):
siesta: Ebs     =     -4076.645255
siesta: Eions   =     40792.723918
siesta: Ena     =      8726.419127
siesta: Ekin    =     18734.189998
siesta: Enl     =     -3379.976448
siesta: Eso     =         0.000000
siesta: Eldau   =         0.000000
siesta: DEna    =      -746.269172
siesta: DUscf   =       128.602937
siesta: DUext   =         0.000000
siesta: Exc     =     -5795.986737
siesta: eta*DQ  =         0.000000
siesta: Emadel  =         0.000000
siesta: Emeta   =         0.000000
siesta: Emolmec =         0.000000
siesta: Ekinion =         0.000000
siesta: Eharris =    -23037.078002
siesta: Etot    =    -23125.744213
siesta: FreeEng =    -23125.744213

        iscf     Eharris(eV)        E_KS(eV)     FreeEng(eV)     dDmax    Ef(eV) dHmax(eV)
   scf:    1   -23037.078002   -23125.744213   -23125.744213  0.719127 -1.797185 10.788309
timer: Routine,Calls,Time,% = IterSCF        1      18.744  90.64
  #~~~~~~~~~~~~~~~~~~~~~~~~~~~~~~~~~~~~~~~~~~~~~~~~~~~~~~~~~~~~~~~ FOE calculation of kernel
 S^-1/2:
   Can take from memory                :  Yes
 Kernel calculation:
 -  #------------------------------------------------------------------- ispin: 1, itemp: 1
   decay length of error function      :  2.500E-02
   beta for penaltyfunction            : -1000.0
   determine eigenvalue bounds:
   -  {npl:  280, bounds:  [ -2.150,  0.600 ], exp accur:  [  7.85E-06 ], 
   penalty: -5.3E+04, ok:  [  Yes,  No ]}
   -  {npl:  300, bounds:  [ -2.150,  0.720 ], exp accur:  [  7.0E-06 ], penalty: -1.4E-16, ok: [
  Yes,  Yes]}
   summary: {npl:  300, bounds:  [  0.24,  3.11 ], exp accur:  [  7.0E-06 ]}
   determine Fermi energy:
   -  { #------------------------------------------------------------------------ it FOE: 1
 eF: -2.300997E-01, Tr(K):  3.9999997E+02, D Tr(K): -3.09E-05, new eF: bisec bounds}
   -  { #------------------------------------------------------------------------ it FOE: 2
 eF: -3.407965E-02, Tr(K):  4.0028487E+02, D Tr(K):  2.85E-01, new eF: bisection/secant}
   -  { #------------------------------------------------------------------------ it FOE: 3
 eF: -1.810840E-01, Tr(K):  4.0000001E+02, D Tr(K):  6.90E-06, new eF: bisection/secant}
   -  { #------------------------------------------------------------------------ it FOE: 4
 eF: -1.978125E-01, Tr(K):  3.9999998E+02, D Tr(K): -2.18E-05, new eF: bisection/secant}
   -  { #------------------------------------------------------------------------ it FOE: 5
 eF: -1.872755E-01, Tr(K):  4.0000003E+02, D Tr(K):  2.86E-05, new eF: cubic interpol}
   -  { #------------------------------------------------------------------------ it FOE: 6
 eF: -1.968001E-01, Tr(K):  3.9999998E+02, D Tr(K): -1.69E-05, new eF: linear interpol}
   -  { #------------------------------------------------------------------------ it FOE: 7
 eF: -1.932659E-01, Tr(K):  4.0000000E+02, D Tr(K):  4.96E-06, new eF: linear interpol}
   -  { #------------------------------------------------------------------------ it FOE: 8
 eF: -1.940678E-01, Tr(K):  4.0000000E+02, D Tr(K): -2.18E-07, new eF: linear interpol}
   summary: {nit:  8, eF: -1.940341E-01, Tr(K):  4.0000000E+02, D Tr(K): -2.18E-07}
   Asymmetry of kernel                 :  5.67E-05
   symmetrize_kernel                   :  Yes
   EBS                                 : -4.030765779170E+02
   EBS higher temperature              : -4.030765890908E+02
   difference                          : -1.117375882131E-05
   relative difference                 :  2.772118111913E-08
   trace(KS)                           :  400.000000283483
   modify error function decay length  : increase
   need to repeat with sharper decay (new):  No
  #~~~~~~~~~~~~~~~~~~~~~~~~~~~~~~~~~~~~~~~~~~~~~~~~~~~~~~ FOE calculation of kernel finished
   scf:    2   -23168.452851   -23148.917643   -23148.917643  0.132736 -2.639989  6.523439
  #~~~~~~~~~~~~~~~~~~~~~~~~~~~~~~~~~~~~~~~~~~~~~~~~~~~~~~~~~~~~~~~ FOE calculation of kernel
 S^-1/2:
   Can take from memory                :  Yes
 Kernel calculation:
 -  #------------------------------------------------------------------- ispin: 1, itemp: 1
   decay length of error function      :  3.125E-02
   beta for penaltyfunction            : -1000.0
   determine eigenvalue bounds:
   -  {npl:  250, bounds:  [ -2.150,  0.720 ], exp accur:  [  6.76E-06 ], 
   penalty: -5.2E+04, ok:  [  Yes,  No ]}
   -  {npl:  260, bounds:  [ -2.150,  0.864 ], exp accur:  [  6.71E-06 ], 
   penalty:  2.4E-13, ok:  [  Yes,  Yes ]}
   summary: {npl:  260, bounds:  [  0.24,  3.11 ], exp accur:  [  6.71E-06 ]}
   determine Fermi energy:
   -  { #------------------------------------------------------------------------ it FOE: 1
 eF: -2.734222E-01, Tr(K):  3.8609813E+02, D Tr(K): -1.39E+01, new eF: bisec bounds}
   -  { #------------------------------------------------------------------------ it FOE: 2
 eF: -1.146460E-01, Tr(K):  3.9999404E+02, D Tr(K): -5.96E-03, new eF: bisec bounds}
   -  { #------------------------------------------------------------------------ it FOE: 3
 eF: -4.319669E-02, Tr(K):  4.0107461E+02, D Tr(K):  1.07E+00, new eF: bisection/secant}
   -  { #------------------------------------------------------------------------ it FOE: 4
 eF: -1.090128E-01, Tr(K):  4.0000007E+02, D Tr(K):  7.43E-05, new eF: bisection/secant}
   -  { #------------------------------------------------------------------------ it FOE: 5
 eF: -1.501156E-01, Tr(K):  3.9970579E+02, D Tr(K): -2.94E-01, new eF: bisection/secant}
   -  { #------------------------------------------------------------------------ it FOE: 6
 eF: -1.192937E-01, Tr(K):  3.9998704E+02, D Tr(K): -1.30E-02, new eF: cubic interpol}
   -  { #------------------------------------------------------------------------ it FOE: 7
 eF: -1.091011E-01, Tr(K):  3.9999999E+02, D Tr(K): -1.36E-05, new eF: linear interpol}
   -  { #------------------------------------------------------------------------ it FOE: 8
 eF: -1.090904E-01, Tr(K):  4.0000000E+02, D Tr(K): -2.96E-06, new eF: linear interpol}
   -  { #------------------------------------------------------------------------ it FOE: 9
 eF: -1.090874E-01, Tr(K):  4.0000000E+02, D Tr(K):  3.94E-11, new eF: linear interpol}
   summary: {nit:  9, eF: -1.090874E-01, Tr(K):  4.0000000E+02, D Tr(K):  3.94E-11}
   Asymmetry of kernel                 :  1.39E-04
   symmetrize_kernel                   :  Yes
   EBS                                 : -3.632573561394E+02
   EBS higher temperature              : -3.632552397210E+02
   difference                          :  2.116418375692E-03
   relative difference                 :  5.826223034229E-06
   trace(KS)                           :  400.0000005448091
   modify error function decay length  : increase
   need to repeat with sharper decay (new):  No
  #~~~~~~~~~~~~~~~~~~~~~~~~~~~~~~~~~~~~~~~~~~~~~~~~~~~~~~ FOE calculation of kernel finished
   scf:    3   -23161.523819   -23157.846472   -23157.846472  0.158113 -1.484222  0.978586
  #~~~~~~~~~~~~~~~~~~~~~~~~~~~~~~~~~~~~~~~~~~~~~~~~~~~~~~~~~~~~~~~ FOE calculation of kernel
 S^-1/2:
   Can take from memory                :  Yes
 Kernel calculation:
 -  #------------------------------------------------------------------- ispin: 1, itemp: 1
   decay length of error function      :  3.906E-02
   beta for penaltyfunction            : -1000.0
   determine eigenvalue bounds:
   -  {npl:  200, bounds:  [ -2.150,  0.864 ], exp accur:  [  9.58E-06 ], 
   penalty:  5.2E-10, ok:  [  Yes,  Yes ]}
   summary: {npl:  200, bounds:  [  0.24,  3.11 ], exp accur:  [  9.58E-06 ]}
   determine Fermi energy:
   -  { #------------------------------------------------------------------------ it FOE: 1
 eF: -1.798222E-01, Tr(K):  3.9725670E+02, D Tr(K): -2.74E+00, new eF: bisec bounds}
   -  { #------------------------------------------------------------------------ it FOE: 2
 eF: -3.835262E-02, Tr(K):  4.0189417E+02, D Tr(K):  1.89E+00, new eF: bisection/secant}
   -  { #------------------------------------------------------------------------ it FOE: 3
 eF: -1.026115E-01, Tr(K):  4.0005283E+02, D Tr(K):  5.28E-02, new eF: bisection/secant}
   -  { #------------------------------------------------------------------------ it FOE: 4
 eF: -1.226436E-01, Tr(K):  3.9977068E+02, D Tr(K): -2.29E-01, new eF: bisection/secant}
   -  { #------------------------------------------------------------------------ it FOE: 5
 eF: -1.094950E-01, Tr(K):  3.9996431E+02, D Tr(K): -3.57E-02, new eF: cubic interpol}
   -  { #------------------------------------------------------------------------ it FOE: 6
 eF: -1.067498E-01, Tr(K):  3.9999958E+02, D Tr(K): -4.22E-04, new eF: linear interpol}
   -  { #------------------------------------------------------------------------ it FOE: 7
 eF: -1.067170E-01, Tr(K):  4.0000000E+02, D Tr(K): -1.98E-06, new eF: linear interpol}
   -  { #------------------------------------------------------------------------ it FOE: 8
 eF: -1.067168E-01, Tr(K):  4.0000000E+02, D Tr(K): -2.34E-11, new eF: linear interpol}
   summary: {nit:  8, eF: -1.067168E-01, Tr(K):  4.0000000E+02, D Tr(K): -2.34E-11}
   Asymmetry of kernel                 :  1.62E-04
   symmetrize_kernel                   :  Yes
   EBS                                 : -3.637493247042E+02
   EBS higher temperature              : -3.637391289038E+02
   difference                          :  1.019580038007E-02
   relative difference                 :  2.802974380328E-05
   trace(KS)                           :  400.0000004629736
   modify error function decay length  : increase
   need to repeat with sharper decay (new):  No
  #~~~~~~~~~~~~~~~~~~~~~~~~~~~~~~~~~~~~~~~~~~~~~~~~~~~~~~ FOE calculation of kernel finished
   scf:    4   -23158.038802   -23157.989609   -23157.989609  0.032458 -1.451967  0.868494
  #~~~~~~~~~~~~~~~~~~~~~~~~~~~~~~~~~~~~~~~~~~~~~~~~~~~~~~~~~~~~~~~ FOE calculation of kernel
 S^-1/2:
   Can take from memory                :  Yes
 Kernel calculation:
 -  #------------------------------------------------------------------- ispin: 1, itemp: 1
   decay length of error function      :  4.883E-02
   beta for penaltyfunction            : -1000.0
   determine eigenvalue bounds:
   -  {npl:  180, bounds:  [ -2.150,  0.864 ], exp accur:  [  1.71E-06 ], 
   penalty:  4.0E-10, ok:  [  Yes,  Yes ]}
   summary: {npl:  180, bounds:  [  0.24,  3.11 ], exp accur:  [  1.71E-06 ]}
   determine Fermi energy:
   -  { #------------------------------------------------------------------------ it FOE: 1
 eF: -1.640120E-01, Tr(K):  3.9806031E+02, D Tr(K): -1.94E+00, new eF: bisec bounds}
   -  { #------------------------------------------------------------------------ it FOE: 2
 eF: -4.942161E-02, Tr(K):  4.0184406E+02, D Tr(K):  1.84E+00, new eF: bisection/secant}
   -  { #------------------------------------------------------------------------ it FOE: 3
 eF: -1.059927E-01, Tr(K):  4.0015090E+02, D Tr(K):  1.51E-01, new eF: bisection/secant}
   -  { #------------------------------------------------------------------------ it FOE: 4
 eF: -1.225915E-01, Tr(K):  3.9984008E+02, D Tr(K): -1.60E-01, new eF: bisection/secant}
   -  { #------------------------------------------------------------------------ it FOE: 5
 eF: -1.141718E-01, Tr(K):  4.0000439E+02, D Tr(K):  4.39E-03, new eF: cubic interpol}
   -  { #------------------------------------------------------------------------ it FOE: 6
 eF: -1.144098E-01, Tr(K):  4.0000004E+02, D Tr(K):  3.51E-05, new eF: linear interpol}
   -  { #------------------------------------------------------------------------ it FOE: 7
 eF: -1.144117E-01, Tr(K):  4.0000000E+02, D Tr(K): -4.41E-08, new eF: linear interpol}
   summary: {nit:  7, eF: -1.144117E-01, Tr(K):  4.0000000E+02, D Tr(K): -4.41E-08}
   Asymmetry of kernel                 :  1.29E-04
   symmetrize_kernel                   :  Yes
   EBS                                 : -3.640957734849E+02
   EBS higher temperature              : -3.640613435534E+02
   difference                          :  3.442993147519E-02
   relative difference                 :  9.456284302794E-05
   trace(KS)                           :  400.0000003651162
   modify error function decay length  : No
   need to repeat with sharper decay (new):  No
  #~~~~~~~~~~~~~~~~~~~~~~~~~~~~~~~~~~~~~~~~~~~~~~~~~~~~~~ FOE calculation of kernel finished
   scf:    5   -23157.962035   -23157.992482   -23157.992482  0.032512 -1.556662  0.448974
  #~~~~~~~~~~~~~~~~~~~~~~~~~~~~~~~~~~~~~~~~~~~~~~~~~~~~~~~~~~~~~~~ FOE calculation of kernel
 S^-1/2:
   Can take from memory                :  Yes
 Kernel calculation:
 -  #------------------------------------------------------------------- ispin: 1, itemp: 1
   decay length of error function      :  4.883E-02
   beta for penaltyfunction            : -1000.0
   determine eigenvalue bounds:
   -  {npl:  170, bounds:  [ -1.935,  0.778 ], exp accur:  [  6.52E-07 ], 
   penalty:  3.7E+04, ok:  [  No,  Yes ]}
   -  {npl:  180, bounds:  [ -2.322,  0.778 ], exp accur:  [  1.06E-06 ], 
   penalty: -4.6E+03, ok:  [  Yes,  No ]}
   -  {npl:  190, bounds:  [ -2.322,  0.933 ], exp accur:  [  1.9E-06 ], penalty: -1.2E-08, ok: [
  Yes,  Yes]}
   summary: {npl:  190, bounds:  [  0.24,  3.11 ], exp accur:  [  1.9E-06 ]}
   determine Fermi energy:
   -  { #------------------------------------------------------------------------ it FOE: 1
 eF: -1.608208E-01, Tr(K):  3.9849159E+02, D Tr(K): -1.51E+00, new eF: bisec bounds}
   -  { #------------------------------------------------------------------------ it FOE: 2
 eF: -6.800256E-02, Tr(K):  4.0109071E+02, D Tr(K):  1.09E+00, new eF: bisection/secant}
   -  { #------------------------------------------------------------------------ it FOE: 3
 eF: -1.106825E-01, Tr(K):  4.0009370E+02, D Tr(K):  9.37E-02, new eF: bisection/secant}
   -  { #------------------------------------------------------------------------ it FOE: 4
 eF: -1.246832E-01, Tr(K):  3.9986589E+02, D Tr(K): -1.34E-01, new eF: bisection/secant}
   -  { #------------------------------------------------------------------------ it FOE: 5
 eF: -1.170619E-01, Tr(K):  3.9999535E+02, D Tr(K): -4.65E-03, new eF: cubic interpol}
   -  { #------------------------------------------------------------------------ it FOE: 6
 eF: -1.167687E-01, Tr(K):  3.9999998E+02, D Tr(K): -2.46E-05, new eF: linear interpol}
   -  { #------------------------------------------------------------------------ it FOE: 7
 eF: -1.167672E-01, Tr(K):  4.0000000E+02, D Tr(K): -4.53E-08, new eF: linear interpol}
   summary: {nit:  7, eF: -1.167672E-01, Tr(K):  4.0000000E+02, D Tr(K): -4.53E-08}
   Asymmetry of kernel                 :  1.27E-04
   symmetrize_kernel                   :  Yes
   EBS                                 : -3.641084576316E+02
   EBS higher temperature              : -3.640721551024E+02
   difference                          :  3.630252919498E-02
   relative difference                 :  9.970251564911E-05
   trace(KS)                           :  400.0000003903174
   modify error function decay length  : No
   need to repeat with sharper decay (new):  No
  #~~~~~~~~~~~~~~~~~~~~~~~~~~~~~~~~~~~~~~~~~~~~~~~~~~~~~~ FOE calculation of kernel finished
   scf:    6   -23158.126252   -23158.071648   -23158.071648  0.016657 -1.588711  0.461979
  #~~~~~~~~~~~~~~~~~~~~~~~~~~~~~~~~~~~~~~~~~~~~~~~~~~~~~~~~~~~~~~~ FOE calculation of kernel
 S^-1/2:
   Can take from memory                :  Yes
 Kernel calculation:
 -  #------------------------------------------------------------------- ispin: 1, itemp: 1
   decay length of error function      :  4.883E-02
   beta for penaltyfunction            : -1000.0
   determine eigenvalue bounds:
   -  {npl:  190, bounds:  [ -2.322,  0.933 ], exp accur:  [  2.32E-06 ], 
   penalty: -8.9E-09, ok:  [  Yes,  Yes ]}
   summary: {npl:  190, bounds:  [  0.24,  3.11 ], exp accur:  [  2.32E-06 ]}
   determine Fermi energy:
   -  { #------------------------------------------------------------------------ it FOE: 1
 eF: -1.543586E-01, Tr(K):  3.9864302E+02, D Tr(K): -1.36E+00, new eF: bisec bounds}
   -  { #------------------------------------------------------------------------ it FOE: 2
 eF: -7.917581E-02, Tr(K):  4.0077554E+02, D Tr(K):  7.76E-01, new eF: bisection/secant}
   -  { #------------------------------------------------------------------------ it FOE: 3
 eF: -1.116424E-01, Tr(K):  4.0005330E+02, D Tr(K):  5.33E-02, new eF: bisection/secant}
   -  { #------------------------------------------------------------------------ it FOE: 4
 eF: -1.231287E-01, Tr(K):  3.9982742E+02, D Tr(K): -1.73E-01, new eF: bisection/secant}
   -  { #------------------------------------------------------------------------ it FOE: 5
 eF: -1.158693E-01, Tr(K):  3.9997467E+02, D Tr(K): -2.53E-02, new eF: cubic interpol}
   -  { #------------------------------------------------------------------------ it FOE: 6
 eF: -1.145280E-01, Tr(K):  3.9999996E+02, D Tr(K): -4.02E-05, new eF: linear interpol}
   -  { #------------------------------------------------------------------------ it FOE: 7
 eF: -1.145258E-01, Tr(K):  4.0000000E+02, D Tr(K): -3.05E-07, new eF: linear interpol}
   summary: {nit:  7, eF: -1.145258E-01, Tr(K):  4.0000000E+02, D Tr(K): -3.05E-07}
   Asymmetry of kernel                 :  1.32E-04
   symmetrize_kernel                   :  Yes
   EBS                                 : -3.639999848503E+02
   EBS higher temperature              : -3.639633008419E+02
   difference                          :  3.668400843497E-02
   relative difference                 :  1.007802471477E-04
   trace(KS)                           :  400.0000001046213
   modify error function decay length  : decrease
   need to repeat with sharper decay (new):  Yes
 -  #------------------------------------------------------------------- ispin: 1, itemp: 2
   decay length of error function      :  2.441E-02
   beta for penaltyfunction            : -1000.0
   determine eigenvalue bounds:
   -  {npl:  360, bounds:  [ -2.322,  0.933 ], exp accur:  [  7.47E-06 ], 
   penalty:  2.1E-16, ok:  [  Yes,  Yes ]}
   summary: {npl:  360, bounds:  [  0.24,  3.11 ], exp accur:  [  7.47E-06 ]}
   determine Fermi energy:
   -  { #------------------------------------------------------------------------ it FOE: 1
 eF: -1.449748E-01, Tr(K):  3.9988260E+02, D Tr(K): -1.17E-01, new eF: bisec bounds}
   -  { #------------------------------------------------------------------------ it FOE: 2
 eF: -8.407680E-02, Tr(K):  4.0023736E+02, D Tr(K):  2.37E-01, new eF: bisection/secant}
   -  { #------------------------------------------------------------------------ it FOE: 3
 eF: -1.196740E-01, Tr(K):  3.9999907E+02, D Tr(K): -9.30E-04, new eF: bisection/secant}
   -  { #------------------------------------------------------------------------ it FOE: 4
 eF: -1.107053E-01, Tr(K):  4.0000612E+02, D Tr(K):  6.12E-03, new eF: bisection/secant}
   -  { #------------------------------------------------------------------------ it FOE: 5
 eF: -1.168404E-01, Tr(K):  4.0000088E+02, D Tr(K):  8.80E-04, new eF: cubic interpol}
   -  { #------------------------------------------------------------------------ it FOE: 6
 eF: -1.182867E-01, Tr(K):  3.9999996E+02, D Tr(K): -4.11E-05, new eF: linear interpol}
   -  { #------------------------------------------------------------------------ it FOE: 7
 eF: -1.182222E-01, Tr(K):  4.0000000E+02, D Tr(K): -3.01E-07, new eF: linear interpol}
   summary: {nit:  7, eF: -1.182217E-01, Tr(K):  4.0000000E+02, D Tr(K): -3.01E-07}
   Asymmetry of kernel                 :  1.95E-04
   symmetrize_kernel                   :  Yes
   EBS                                 : -3.640179301813E+02
   EBS higher temperature              : -3.640166598648E+02
   difference                          :  1.270316517605E-03
   relative difference                 :  3.489708644220E-06
   trace(KS)                           :  400.0000002270143
   modify error function decay length  : increase
   need to repeat with sharper decay (new):  No
  #~~~~~~~~~~~~~~~~~~~~~~~~~~~~~~~~~~~~~~~~~~~~~~~~~~~~~~ FOE calculation of kernel finished
   scf:    7   -23158.228178   -23158.181752   -23158.181752  0.031489 -1.608501  1.361557
  #~~~~~~~~~~~~~~~~~~~~~~~~~~~~~~~~~~~~~~~~~~~~~~~~~~~~~~~~~~~~~~~ FOE calculation of kernel
 S^-1/2:
   Can take from memory                :  Yes
 Kernel calculation:
 -  #------------------------------------------------------------------- ispin: 1, itemp: 1
   decay length of error function      :  3.052E-02
   beta for penaltyfunction            : -1000.0
   determine eigenvalue bounds:
   -  {npl:  260, bounds:  [ -2.090,  0.840 ], exp accur:  [  6.41E-06 ], 
   penalty: -5.6E-14, ok:  [  Yes,  Yes ]}
   summary: {npl:  260, bounds:  [  0.24,  3.11 ], exp accur:  [  6.41E-06 ]}
   determine Fermi energy:
   -  { #------------------------------------------------------------------------ it FOE: 1
 eF: -1.428854E-01, Tr(K):  3.9984871E+02, D Tr(K): -1.51E-01, new eF: bisec bounds}
   -  { #------------------------------------------------------------------------ it FOE: 2
 eF: -9.355801E-02, Tr(K):  4.0014851E+02, D Tr(K):  1.49E-01, new eF: bisection/secant}
   -  { #------------------------------------------------------------------------ it FOE: 3
 eF: -1.181073E-01, Tr(K):  4.0000251E+02, D Tr(K):  2.51E-03, new eF: bisection/secant}
   -  { #------------------------------------------------------------------------ it FOE: 4
 eF: -1.245039E-01, Tr(K):  3.9998628E+02, D Tr(K): -1.37E-02, new eF: bisection/secant}
   -  { #------------------------------------------------------------------------ it FOE: 5
 eF: -1.202007E-01, Tr(K):  3.9999754E+02, D Tr(K): -2.46E-03, new eF: cubic interpol}
   -  { #------------------------------------------------------------------------ it FOE: 6
 eF: -1.191687E-01, Tr(K):  4.0000000E+02, D Tr(K):  4.24E-08, new eF: linear interpol}
   summary: {nit:  6, eF: -1.191687E-01, Tr(K):  4.0000000E+02, D Tr(K):  4.24E-08}
   Asymmetry of kernel                 :  1.93E-04
   symmetrize_kernel                   :  Yes
   EBS                                 : -3.640357059166E+02
   EBS higher temperature              : -3.640308254672E+02
   difference                          :  4.880449448819E-03
   relative difference                 :  1.340651306863E-05
   trace(KS)                           :  400.0000005677975
   modify error function decay length  : increase
   need to repeat with sharper decay (new):  No
  #~~~~~~~~~~~~~~~~~~~~~~~~~~~~~~~~~~~~~~~~~~~~~~~~~~~~~~ FOE calculation of kernel finished
   scf:    8   -23158.175481   -23158.178739   -23158.178739  0.002922 -1.621386  1.338733
  #~~~~~~~~~~~~~~~~~~~~~~~~~~~~~~~~~~~~~~~~~~~~~~~~~~~~~~~~~~~~~~~ FOE calculation of kernel
 S^-1/2:
   Can take from memory                :  Yes
 Kernel calculation:
 -  #------------------------------------------------------------------- ispin: 1, itemp: 1
   decay length of error function      :  3.815E-02
   beta for penaltyfunction            : -1000.0
   determine eigenvalue bounds:
   -  {npl:  190, bounds:  [ -1.881,  0.756 ], exp accur:  [  6.67E-06 ], 
   penalty:  8.6E+04, ok:  [  No,  Yes ]}
   -  {npl:  210, bounds:  [ -2.257,  0.756 ], exp accur:  [  5.29E-06 ], 
   penalty: -4.4E+04, ok:  [  Yes,  No ]}
   -  {npl:  220, bounds:  [ -2.257,  0.907 ], exp accur:  [  7.33E-06 ], 
   penalty:  2.7E-11, ok:  [  Yes,  Yes ]}
   summary: {npl:  220, bounds:  [  0.24,  3.11 ], exp accur:  [  7.33E-06 ]}
   determine Fermi energy:
   -  { #------------------------------------------------------------------------ it FOE: 1
 eF: -1.391463E-01, Tr(K):  3.9907279E+02, D Tr(K): -9.27E-01, new eF: bisec bounds}
   -  { #------------------------------------------------------------------------ it FOE: 2
 eF: -9.919113E-02, Tr(K):  4.0024751E+02, D Tr(K):  2.48E-01, new eF: bisection/secant}
   -  { #------------------------------------------------------------------------ it FOE: 3
 eF: -1.133892E-01, Tr(K):  3.9991857E+02, D Tr(K): -8.14E-02, new eF: bisection/secant}
   -  { #------------------------------------------------------------------------ it FOE: 4
 eF: -1.080822E-01, Tr(K):  4.0004107E+02, D Tr(K):  4.11E-02, new eF: bisection/secant}
   -  { #------------------------------------------------------------------------ it FOE: 5
 eF: -1.102985E-01, Tr(K):  3.9999042E+02, D Tr(K): -9.58E-03, new eF: linear interpol}
   -  { #------------------------------------------------------------------------ it FOE: 6
 eF: -1.098792E-01, Tr(K):  4.0000003E+02, D Tr(K):  3.47E-05, new eF: linear interpol}
   -  { #------------------------------------------------------------------------ it FOE: 7
 eF: -1.098807E-01, Tr(K):  4.0000000E+02, D Tr(K):  3.82E-08, new eF: linear interpol}
   summary: {nit:  7, eF: -1.098807E-01, Tr(K):  4.0000000E+02, D Tr(K):  3.82E-08}
   Asymmetry of kernel                 :  1.57E-04
   symmetrize_kernel                   :  Yes
   EBS                                 : -3.638906156760E+02
   EBS higher temperature              : -3.638731478507E+02
   difference                          :  1.746782530711E-02
   relative difference                 :  4.800295625832E-05
   trace(KS)                           :  400.0000004285324
   modify error function decay length  : increase
   need to repeat with sharper decay (new):  No
  #~~~~~~~~~~~~~~~~~~~~~~~~~~~~~~~~~~~~~~~~~~~~~~~~~~~~~~ FOE calculation of kernel finished
   scf:    9   -23157.491619   -23157.968552   -23157.968552  0.065490 -1.495015  1.828883
  #~~~~~~~~~~~~~~~~~~~~~~~~~~~~~~~~~~~~~~~~~~~~~~~~~~~~~~~~~~~~~~~ FOE calculation of kernel
 S^-1/2:
   Can take from memory                :  Yes
 Kernel calculation:
 -  #------------------------------------------------------------------- ispin: 1, itemp: 1
   decay length of error function      :  4.768E-02
   beta for penaltyfunction            : -1000.0
   determine eigenvalue bounds:
   -  {npl:  190, bounds:  [ -2.257,  0.907 ], exp accur:  [  1.5E-06 ], penalty: -3.6E-09, ok: [
  Yes,  Yes]}
   summary: {npl:  190, bounds:  [  0.24,  3.11 ], exp accur:  [  1.5E-06 ]}
   determine Fermi energy:
   -  { #------------------------------------------------------------------------ it FOE: 1
 eF: -1.260625E-01, Tr(K):  3.9963830E+02, D Tr(K): -3.62E-01, new eF: bisec bounds}
   -  { #------------------------------------------------------------------------ it FOE: 2
 eF: -9.369884E-02, Tr(K):  4.0046768E+02, D Tr(K):  4.68E-01, new eF: bisection/secant}
   -  { #------------------------------------------------------------------------ it FOE: 3
 eF: -1.109146E-01, Tr(K):  4.0005167E+02, D Tr(K):  5.17E-02, new eF: bisection/secant}
   -  { #------------------------------------------------------------------------ it FOE: 4
 eF: -1.156483E-01, Tr(K):  3.9993504E+02, D Tr(K): -6.50E-02, new eF: bisection/secant}
   -  { #------------------------------------------------------------------------ it FOE: 5
 eF: -1.131466E-01, Tr(K):  3.9999753E+02, D Tr(K): -2.47E-03, new eF: linear interpol}
   -  { #------------------------------------------------------------------------ it FOE: 6
 eF: -1.130478E-01, Tr(K):  3.9999996E+02, D Tr(K): -4.34E-05, new eF: linear interpol}
   -  { #------------------------------------------------------------------------ it FOE: 7
 eF: -1.130461E-01, Tr(K):  4.0000000E+02, D Tr(K): -2.65E-08, new eF: linear interpol}
   summary: {nit:  7, eF: -1.130461E-01, Tr(K):  4.0000000E+02, D Tr(K): -2.65E-08}
   Asymmetry of kernel                 :  1.34E-04
   symmetrize_kernel                   :  Yes
   EBS                                 : -3.638277138350E+02
   EBS higher temperature              : -3.637868111731E+02
   difference                          :  4.090266187831E-02
   relative difference                 :  1.124231616310E-04
   trace(KS)                           :  400.0000003371759
   modify error function decay length  : decrease
   need to repeat with sharper decay (new):  Yes
 -  #------------------------------------------------------------------- ispin: 1, itemp: 2
   decay length of error function      :  2.384E-02
   beta for penaltyfunction            : -1000.0
   determine eigenvalue bounds:
   -  {npl:  360, bounds:  [ -2.257,  0.907 ], exp accur:  [  7.52E-06 ], 
   penalty: -5.5E-16, ok:  [  Yes,  Yes ]}
   summary: {npl:  360, bounds:  [  0.24,  3.11 ], exp accur:  [  7.52E-06 ]}
   determine Fermi energy:
   -  { #------------------------------------------------------------------------ it FOE: 1
 eF: -1.261534E-01, Tr(K):  3.9998451E+02, D Tr(K): -1.55E-02, new eF: bisec bounds}
   -  { #------------------------------------------------------------------------ it FOE: 2
 eF: -9.993877E-02, Tr(K):  4.0006585E+02, D Tr(K):  6.59E-02, new eF: bisection/secant}
   -  { #------------------------------------------------------------------------ it FOE: 3
 eF: -1.171041E-01, Tr(K):  4.0000123E+02, D Tr(K):  1.23E-03, new eF: bisection/secant}
   -  { #------------------------------------------------------------------------ it FOE: 4
 eF: -1.196984E-01, Tr(K):  3.9999758E+02, D Tr(K): -2.42E-03, new eF: bisection/secant}
   -  { #------------------------------------------------------------------------ it FOE: 5
 eF: -1.181885E-01, Tr(K):  3.9999972E+02, D Tr(K): -2.80E-04, new eF: linear interpol}
   -  { #------------------------------------------------------------------------ it FOE: 6
 eF: -1.179914E-01, Tr(K):  3.9999999E+02, D Tr(K): -5.94E-06, new eF: linear interpol}
   -  { #------------------------------------------------------------------------ it FOE: 7
 eF: -1.179871E-01, Tr(K):  4.0000000E+02, D Tr(K): -5.46E-09, new eF: linear interpol}
   summary: {nit:  7, eF: -1.179871E-01, Tr(K):  4.0000000E+02, D Tr(K): -5.46E-09}
   Asymmetry of kernel                 :  2.02E-04
   symmetrize_kernel                   :  Yes
   EBS                                 : -3.638494552067E+02
   EBS higher temperature              : -3.638471137727E+02
   difference                          :  2.341433977904E-03
   relative difference                 :  6.435172416497E-06
   trace(KS)                           :  400.0000005098761
   modify error function decay length  : increase
   need to repeat with sharper decay (new):  No
  #~~~~~~~~~~~~~~~~~~~~~~~~~~~~~~~~~~~~~~~~~~~~~~~~~~~~~~ FOE calculation of kernel finished
   scf:   10   -23158.147105   -23158.191908   -23158.191908  0.065517 -1.605309  1.260209
:!: SCF did not converge in maximum number of steps.

Using DM_out to compute the final energy and forces
No. of atoms with KB's overlaping orbs in proc 0. Max # of overlaps:     147      27

siesta: E_KS(eV) =           -23158.1919

siesta: E_KS - E_eggbox =    -23158.1919

siesta: Atomic forces (eV/Ang):
----------------------------------------
   Tot   -6.267490   -9.032935    5.019793
----------------------------------------
   Max    9.714264
   Res    3.053016    sqrt( Sum f_i^2 / 3N )
----------------------------------------
   Max    9.714264    constrained

Stress-tensor-Voigt (kbar):      -16.16      -10.22      -18.25        1.48       -3.07        1.86
(Free)E + p*V (eV/cell)   -23082.9215
Target enthalpy (eV/cell)   -23158.1919

siesta: Program's energy decomposition (eV):
siesta: Ebs     =     -4945.006141
siesta: Eions   =     40792.723918
siesta: Ena     =      8726.419127
siesta: Ekin    =     17918.078477
siesta: Enl     =     -3144.304781
siesta: Eso     =         0.000000
siesta: Eldau   =         0.000000
siesta: DEna    =      -275.570885
siesta: DUscf   =        69.357231
siesta: DUext   =         0.000000
siesta: Exc     =     -5659.447159
siesta: eta*DQ  =         0.000000
siesta: Emadel  =         0.000000
siesta: Emeta   =         0.000000
siesta: Emolmec =         0.000000
siesta: Ekinion =         0.000000
siesta: Eharris =    -23158.147105
siesta: Etot    =    -23158.191908
siesta: FreeEng =    -23158.191908

siesta: Final energy (eV):
siesta:  Band Struct. =   -4945.006141
siesta:       Kinetic =   17918.078477
siesta:       Hartree =   63276.537031
siesta:       Eldau   =       0.000000
siesta:       Eso     =       0.000000
siesta:    Ext. field =       0.000000
siesta:   Exch.-corr. =   -5659.447159
siesta:  Ion-electron = -142000.676172
siesta:       Ion-ion =   43307.315915
siesta:       Ekinion =       0.000000
siesta:         Total =  -23158.191908
siesta:         Fermi =      -1.605309

siesta: Atomic forces (eV/Ang):
siesta:      1    2.721811    5.616243   -0.317024
siesta:      2    4.200082   -4.040847   -0.571840
siesta:      3    1.979475   -0.146709   -7.149885
siesta:      4    1.531537    1.858905   -4.073190
siesta:      5   -4.362978   -3.105111    0.607745
siesta:      6    1.899899    4.744198    0.682849
siesta:      7   -5.602441    4.806845    0.108488
siesta:      8   -0.617586    4.110220   -4.170565
siesta:      9   -6.614014    1.308539   -0.180429
siesta:     10    1.647857    4.409436    1.136219
siesta:     11    4.920992   -0.818051   -2.590547
siesta:     12    2.220273   -4.370129    4.950411
siesta:     13   -5.020390    5.081082   -1.673250
siesta:     14    0.864739   -2.954407   -3.059069
siesta:     15   -0.235358   -0.735698   -7.244088
siesta:     16   -3.801285    2.895133   -4.438783
siesta:     17   -0.711185    4.541045    0.865327
siesta:     18   -0.525321    0.104911    5.331050
siesta:     19   -4.265184    4.472196    4.822664
siesta:     20   -5.742803    2.196210    1.310191
siesta:     21   -0.879688    5.088215    3.584664
siesta:     22   -1.993304    4.869448   -0.537713
siesta:     23   -2.422420    2.644086   -0.458816
siesta:     24    2.975960   -3.859107   -1.344403
siesta:     25   -4.003538   -0.647616    2.594334
siesta:     26    2.688150    2.602092   -3.366825
siesta:     27   -0.647330    0.190805    4.334654
siesta:     28   -4.078905   -1.645323    9.714264
siesta:     29   -2.377259    3.673158    0.800544
siesta:     30    1.249842    0.290797   -6.860879
siesta:     31   -1.925472   -5.323885    4.217848
siesta:     32    6.146094   -1.033786   -0.981031
siesta:     33   -0.119380   -2.204987    4.988855
siesta:     34   -0.151733   -1.354718   -6.586825
siesta:     35    2.233076    3.789122    0.577934
siesta:     36    0.204581   -0.917978    4.043951
siesta:     37    0.451607   -2.690667   -6.915689
siesta:     38   -4.403820    0.866813   -0.100567
siesta:     39   -6.074742    2.938595   -1.856850
siesta:     40   -0.682850    4.631992    5.235611
siesta:     41    3.169837    3.194198   -0.899737
siesta:     42   -2.828001    1.218766    1.194045
siesta:     43    4.421730   -3.282279   -1.233999
siesta:     44   -6.622132    3.216101   -1.631407
siesta:     45   -4.288318    4.974235   -1.571180
siesta:     46    4.475513    3.275645   -0.284913
siesta:     47   -3.329499    2.693090   -4.516407
siesta:     48   -5.079333    2.413969    8.239175
siesta:     49   -2.668819    1.885195    0.802450
siesta:     50    1.904059    4.428584    0.724453
siesta:     51    0.528999   -5.219510   -3.257128
siesta:     52   -4.303517    0.303889   -3.286268
siesta:     53   -1.631929    2.692625    7.488932
siesta:     54    1.524506   -2.486295    3.139731
siesta:     55    6.055099   -1.460881    1.373179
siesta:     56   -2.885998   -2.383437   -2.050419
siesta:     57    2.434633   -4.300334    2.927076
siesta:     58    0.502242   -4.284287    2.348654
siesta:     59    4.938492   -4.375766   -1.972730
siesta:     60   -3.072875   -3.451670    1.633512
siesta:     61   -6.611137   -3.103847    1.646961
siesta:     62    2.867072    2.840487   -3.156405
siesta:     63    5.582500   -1.722567   -2.683098
siesta:     64    3.212665   -1.361080    1.359403
siesta:     65   -3.287105    3.435608    4.180398
siesta:     66    7.045224   -3.531703    2.531189
siesta:     67    2.080229   -0.995585   -2.579574
siesta:     68   -0.389121   -0.565590   -7.138876
siesta:     69    6.359064    0.463790    1.150631
siesta:     70    4.768043    0.467456    2.173014
siesta:     71    2.191552   -2.066016   -4.091861
siesta:     72    1.681843   -3.996376   -3.881538
siesta:     73    0.575233   -3.764971   -2.690073
siesta:     74   -3.516042    5.082371    3.120554
siesta:     75    2.970966   -2.243394    0.343583
siesta:     76   -4.112355    0.611565    1.793411
siesta:     77    1.819741   -3.951409   -2.718124
siesta:     78    2.582952   -1.696121    0.320831
siesta:     79   -3.062137   -3.877854   -1.987098
siesta:     80   -3.372446    3.584896    4.735151
siesta:     81    2.980040    3.609558   -3.629216
siesta:     82   -6.569478   -2.917907    1.613461
siesta:     83    0.145373   -0.605025   -5.856477
siesta:     84    1.823370   -0.817733    6.900044
siesta:     85   -4.152112   -4.912339   -1.645123
siesta:     86    1.336343   -2.225553   -0.904805
siesta:     87    2.167898   -0.507644    4.806471
siesta:     88    5.395227    0.274287    2.164527
siesta:     89    5.477497   -1.152382   -1.987263
siesta:     90    1.215628   -3.803297   -2.949372
siesta:     91   -0.500648   -2.213835   -5.028497
siesta:     92    1.130009   -0.247899   -2.988229
siesta:     93   -3.367546    4.495695    2.634126
siesta:     94    5.514641   -0.786240   -1.841802
siesta:     95    5.161539   -2.166019   -2.454776
siesta:     96   -0.462265   -2.380697   -5.072284
siesta:     97    6.122836   -3.741802    1.513279
siesta:     98    6.274090    0.252210    1.564843
siesta:     99    0.920159   -0.442605   -2.854631
siesta:    100   -2.862753   -2.773927   -2.475182
siesta:    101   -3.249390    0.072160    4.315447
siesta:    102    0.038084    3.684296    3.027374
siesta:    103   -0.359703   -2.923732   -2.005871
siesta:    104   -2.611087   -0.898478   -0.499018
siesta:    105   -0.059038    4.466304   -2.786228
siesta:    106   -0.102179   -2.331936    2.818025
siesta:    107    2.462364    0.756455   -2.455694
siesta:    108    0.317557    0.941850    2.160124
siesta:    109    1.853135    3.463628    3.821182
siesta:    110    1.004335    0.098331   -2.209325
siesta:    111    2.823805    3.996462    3.677017
siesta:    112   -4.219274   -0.656835   -0.742218
siesta:    113   -1.363188   -4.298223    3.760853
siesta:    114   -1.916539    0.802717    1.857279
siesta:    115    3.097855   -2.821499    2.254038
siesta:    116   -2.292961    1.294142    3.975512
siesta:    117   -1.468233   -2.960585    1.837502
siesta:    118    0.603639    0.263459    0.175859
siesta:    119   -1.964453   -5.394505   -0.228655
siesta:    120    0.711063   -3.271915   -2.855310
siesta:    121   -1.079327   -2.017494    1.169161
siesta:    122   -0.694590   -0.372666    2.971292
siesta:    123    0.339935    1.529065    0.189204
siesta:    124    0.156989   -0.408269   -1.434034
siesta:    125    1.382394    2.127761   -0.063783
siesta:    126    0.437452   -0.433851   -0.626324
siesta:    127   -1.041088    1.466770   -1.027691
siesta:    128    1.686467    2.522731    0.375629
siesta:    129    4.118508    1.576707   -2.544626
siesta:    130    1.956588   -1.796544    1.501370
siesta:    131   -2.740499   -0.308485   -0.617587
siesta:    132    1.253007    2.244009    2.088278
siesta:    133    1.758414    0.760483   -0.413571
siesta:    134   -1.745832    2.747123   -0.124334
siesta:    135    2.208765    0.800352   -1.174177
siesta:    136   -1.675961    3.158438   -1.778410
siesta:    137   -2.955352    3.142528   -1.502934
siesta:    138    1.093396   -2.653491   -2.030694
siesta:    139   -2.318342   -2.609531   -1.554446
siesta:    140   -0.875108   -0.431846    2.888999
siesta:    141   -2.377226   -0.340055    1.777671
siesta:    142   -0.066914   -1.642457    1.074943
siesta:    143   -0.639951   -0.726579   -1.717431
siesta:    144   -1.690123   -1.591479   -1.449757
siesta:    145   -0.872600   -3.633152    3.099991
siesta:    146   -2.579307   -0.593147    1.647140
siesta:    147   -2.375435    1.061731    2.809237
siesta:    148   -1.250322   -3.915080   -0.422226
siesta:    149   -0.212895   -3.013963    1.288495
siesta:    150    0.167407   -1.444054    2.188593
siesta: ----------------------------------------
siesta:    Tot   -6.267490   -9.032935    5.019793

siesta: Stress tensor (static) (eV/Ang**3):
siesta:    -0.010088    0.000926    0.001162
siesta:     0.000921   -0.006379   -0.001917
siesta:     0.001159   -0.001918   -0.011393

siesta: Cell volume =       8105.109819 Ang**3

siesta: Pressure (static):
siesta:                Solid            Molecule  Units
siesta:           0.00010114          0.00003041  Ry/Bohr**3
siesta:           0.00928678          0.00279185  eV/Ang**3
siesta:          14.87922810          4.47309119  kBar
(Free)E+ p_basis*V_orbitals  =      -23145.707373
(Free)Eharris+ p_basis*V_orbitals  =      -23145.662570

siesta: Electric dipole (a.u.)  =    5.105541  -18.442721    1.522433
siesta: Electric dipole (Debye) =   12.976999  -46.876754    3.869641
 Memory Consumption Report:
   Tot. No. of Allocations             :  3593
   Tot. No. of Deallocations           :  3593
   Remaining Memory (B)                :  0
   Memory occupation:
     Peak Value (MB)                   :  230.381
     for the array                     : windows
     in the routine                    : compress_matrix_distributed_core
     Memory Peak of process            : 312.460 MB
 Walltime since initialization         :  00:01:26.571104978
 Max No. of dictionaries used          :  1438 #( 267 still in use)
 Number of dictionary folders allocated:  1
>> End of run:  20-JAN-2017  11:44:55
