Siesta Version:                                        siesta-3.1
Architecture  : ifort11-macosx64
Compiler flags: ifort  -O2
SERIAL version

* Running in serial mode
>> Start of run:  10-JUN-2011  14:26:47

                           ***********************       
                           *  WELCOME TO SIESTA  *       
                           ***********************       

reinit: Reading from standard input
************************** Dump of input data file ****************************
#
# MgCO3 in primitive cell. SZ. Variable cell -- constant volume
#
SystemName	MgCo3 R-3c test -- SZ, 100 R
SystemLabel	constant_volume
NumberOfSpecies		3
NumberOfAtoms	       10
%block ChemicalSpeciesLabel
      1      12     Mg
      2       6     C
      3       8     O
%endblock ChemicalSpeciesLabel
PAO.BasisSize  SZ
# Rhombohedral primitive cell
# (HEX 3-fold cell had A=4.635 and C=15.023, so alpha=48.179 degrees
#  and a=5.67783 Ang)
LatticeConstant     5.67783 Ang
%block LatticeParameters
1.0 1.0 1.0 48.179 50.179 48.179
%endblock LatticeParameters
AtomicCoordinatesFormat    Fractional
%block AtomicCoordinatesAndAtomicSpecies
  0.0         0.0         0.0      1
  0.5         0.5         0.5      1
  0.25        0.25        0.25     2
 -0.25       -0.25       -0.25     2
  0.5274     -0.0274      0.25     3
  0.25        0.5274     -0.0274   3
 -0.0274      0.25        0.5274   3
 -0.5274      0.0274     -0.25     3
 -0.25       -0.5274      0.0274   3
  0.0274     -0.25       -0.5274   3
%endblock AtomicCoordinatesAndAtomicSpecies
kgrid_cutoff 10.0 Ang
Solution.Method       diagon
MeshCutoff             100 Ry
DM.NumberBroyden       4
DM.UseSaveDM           T
DM.MixingWeight        0.1         # New DM amount for next SCF cycle
DM.Tolerance           1.d-3       # Tolerance in maximum difference
                                   # between input and output DM
MaxSCFIterations       20
WriteCoorStep      .true.
WriteForces        .true.
#
#  Note "variable cell with constant volume" keywords
#
MD.TypeOfRun         CG
MD.Variable-Cell      T
MD.constant-volume   T
MD.Target-pressure   0.0 GPa
MD.Num-CG-steps	     10
************************** End of input data file *****************************

reinit: -----------------------------------------------------------------------
reinit: System Name: MgCo3 R-3c test -- SZ, 100 R
reinit: -----------------------------------------------------------------------
reinit: System Label: constant_volume                                             
reinit: -----------------------------------------------------------------------

initatom: Reading input for the pseudopotentials and atomic orbitals ----------
 Species number:            1  Label: Mg Atomic number:          12
 Species number:            2  Label: C Atomic number:           6
 Species number:            3  Label: O Atomic number:           8
Ground state valence configuration:   3s02
Reading pseudopotential information in formatted form from Mg.psf

Valence configuration for pseudopotential generation:
3s( 2.00) rc: 2.59
3p( 0.00) rc: 2.59
3d( 0.00) rc: 2.59
4f( 0.00) rc: 2.59
Ground state valence configuration:   2s02  2p02
Reading pseudopotential information in formatted form from C.psf

Valence configuration for pseudopotential generation:
2s( 2.00) rc: 1.49
2p( 2.00) rc: 1.52
3d( 0.00) rc: 1.58
Ground state valence configuration:   2s02  2p04
Reading pseudopotential information in formatted form from O.psf

Valence configuration for pseudopotential generation:
2s( 2.00) rc: 1.14
2p( 4.00) rc: 1.14
3d( 0.00) rc: 1.14
4f( 0.00) rc: 1.14
For Mg, standard SIESTA heuristics set lmxkb to 1
 (one more than the basis l, including polarization orbitals).
Use PS.lmax or PS.KBprojectors blocks to override.
For C, standard SIESTA heuristics set lmxkb to 2
 (one more than the basis l, including polarization orbitals).
Use PS.lmax or PS.KBprojectors blocks to override.
For O, standard SIESTA heuristics set lmxkb to 2
 (one more than the basis l, including polarization orbitals).
Use PS.lmax or PS.KBprojectors blocks to override.

<basis_specs>
===============================================================================
Mg                   Z=  12    Mass=  24.310        Charge= 0.17977+309
Lmxo=0 Lmxkb=1     BasisType=split      Semic=F
L=0  Nsemic=0  Cnfigmx=3
          n=1  nzeta=1  polorb=0
            splnorm:   0.15000    
               vcte:    0.0000    
               rinn:    0.0000    
                rcs:    0.0000    
            lambdas:    1.0000    
-------------------------------------------------------------------------------
L=0  Nkbl=1  erefs: 0.17977+309
L=1  Nkbl=1  erefs: 0.17977+309
===============================================================================
</basis_specs>

atom: Called for Mg                    (Z =  12)

read_vps: Pseudopotential generation method:
read_vps: ATM3      Troullier-Martins                       
Total valence charge:    2.00000

xc_check: Exchange-correlation functional:
xc_check: Ceperley-Alder
V l=0 = -2*Zval/r beyond r=  3.5878
V l=1 = -2*Zval/r beyond r=  3.5878
All V_l potentials equal beyond r=  2.5600
This should be close to max(r_c) in ps generation
All pots = -2*Zval/r beyond r=  3.5878
Using large-core scheme for Vlocal

atom: Estimated core radius    3.58779

atom: Including non-local core corrections could be a good idea
atom: Maximum radius for 4*pi*r*r*local-pseudopot. charge    3.91588
atom: Maximum radius for r*vlocal+2*Zval:    3.63292
GHOST: No ghost state for L =  0
GHOST: No ghost state for L =  1

KBgen: Kleinman-Bylander projectors: 
   l= 0   rc=  2.657845   el= -0.351328   Ekb=  2.184400   kbcos=  0.257081
   l= 1   rc=  2.657845   el= -0.101748   Ekb=  0.525536   kbcos=  0.270508

KBgen: Total number of  Kleinman-Bylander projectors:    4
atom: -------------------------------------------------------------------------

atom: SANKEY-TYPE ORBITALS:

SPLIT: Orbitals with angular momentum L= 0

SPLIT: Basis orbitals for state 3s

SPLIT: PAO cut-off radius determined from an
SPLIT: energy shift=  0.020000 Ry

   izeta = 1
                 lambda =    1.000000
                     rc =    6.619780
                 energy =   -0.332103
                kinetic =    0.289627
    potential(screened) =   -0.621729
       potential(ionic) =   -1.387191
atom: Total number of Sankey-type orbitals:  1

atm_pop: Valence configuration (for local Pseudopot. screening):
 3s( 2.00)                                                            
Vna: chval, zval:    2.00000   2.00000

Vna:  Cut-off radius for the neutral-atom potential:   6.619780

atom: _________________________________________________________________________

<basis_specs>
===============================================================================
C                    Z=   6    Mass=  12.010        Charge= 0.17977+309
Lmxo=1 Lmxkb=2     BasisType=split      Semic=F
L=0  Nsemic=0  Cnfigmx=2
          n=1  nzeta=1  polorb=0
            splnorm:   0.15000    
               vcte:    0.0000    
               rinn:    0.0000    
                rcs:    0.0000    
            lambdas:    1.0000    
L=1  Nsemic=0  Cnfigmx=2
          n=1  nzeta=1  polorb=0
            splnorm:   0.15000    
               vcte:    0.0000    
               rinn:    0.0000    
                rcs:    0.0000    
            lambdas:    1.0000    
-------------------------------------------------------------------------------
L=0  Nkbl=1  erefs: 0.17977+309
L=1  Nkbl=1  erefs: 0.17977+309
L=2  Nkbl=1  erefs: 0.17977+309
===============================================================================
</basis_specs>

atom: Called for C                     (Z =   6)

read_vps: Pseudopotential generation method:
read_vps: ATM3      Troullier-Martins                       
Total valence charge:    4.00000

xc_check: Exchange-correlation functional:
xc_check: Ceperley-Alder
V l=0 = -2*Zval/r beyond r=  1.4666
V l=1 = -2*Zval/r beyond r=  1.5038
V l=2 = -2*Zval/r beyond r=  1.5612
All V_l potentials equal beyond r=  1.5612
This should be close to max(r_c) in ps generation
All pots = -2*Zval/r beyond r=  1.5612

VLOCAL1: 99.0% of the norm of Vloc inside     17.809 Ry
VLOCAL1: 99.9% of the norm of Vloc inside     40.586 Ry
atom: Maximum radius for 4*pi*r*r*local-pseudopot. charge    1.88329
atom: Maximum radius for r*vlocal+2*Zval:    1.62091
GHOST: No ghost state for L =  0
GHOST: No ghost state for L =  1
GHOST: No ghost state for L =  2

KBgen: Kleinman-Bylander projectors: 
   l= 0   rc=  1.747182   el= -1.001947   Ekb=  5.181700   kbcos=  0.300603
   l= 1   rc=  1.747182   el= -0.398598   Ekb= -4.328763   kbcos= -0.367074
   l= 2   rc=  1.955272   el=  0.002326   Ekb= -1.016175   kbcos= -0.009979

KBgen: Total number of  Kleinman-Bylander projectors:    9
atom: -------------------------------------------------------------------------

atom: SANKEY-TYPE ORBITALS:

SPLIT: Orbitals with angular momentum L= 0

SPLIT: Basis orbitals for state 2s

SPLIT: PAO cut-off radius determined from an
SPLIT: energy shift=  0.020000 Ry

   izeta = 1
                 lambda =    1.000000
                     rc =    4.191849
                 energy =   -0.983897
                kinetic =    0.886956
    potential(screened) =   -1.870853
       potential(ionic) =   -5.479661

SPLIT: Orbitals with angular momentum L= 1

SPLIT: Basis orbitals for state 2p

SPLIT: PAO cut-off radius determined from an
SPLIT: energy shift=  0.020000 Ry

   izeta = 1
                 lambda =    1.000000
                     rc =    4.870301
                 energy =   -0.379093
                kinetic =    2.545357
    potential(screened) =   -2.924450
       potential(ionic) =   -6.433151
atom: Total number of Sankey-type orbitals:  4

atm_pop: Valence configuration (for local Pseudopot. screening):
 2s( 2.00)                                                            
 2p( 2.00)                                                            
Vna: chval, zval:    4.00000   4.00000

Vna:  Cut-off radius for the neutral-atom potential:   4.870301

atom: _________________________________________________________________________

<basis_specs>
===============================================================================
O                    Z=   8    Mass=  16.000        Charge= 0.17977+309
Lmxo=1 Lmxkb=2     BasisType=split      Semic=F
L=0  Nsemic=0  Cnfigmx=2
          n=1  nzeta=1  polorb=0
            splnorm:   0.15000    
               vcte:    0.0000    
               rinn:    0.0000    
                rcs:    0.0000    
            lambdas:    1.0000    
L=1  Nsemic=0  Cnfigmx=2
          n=1  nzeta=1  polorb=0
            splnorm:   0.15000    
               vcte:    0.0000    
               rinn:    0.0000    
                rcs:    0.0000    
            lambdas:    1.0000    
-------------------------------------------------------------------------------
L=0  Nkbl=1  erefs: 0.17977+309
L=1  Nkbl=1  erefs: 0.17977+309
L=2  Nkbl=1  erefs: 0.17977+309
===============================================================================
</basis_specs>

atom: Called for O                     (Z =   8)

read_vps: Pseudopotential generation method:
read_vps: ATM3      Troullier-Martins                       
Total valence charge:    6.00000

xc_check: Exchange-correlation functional:
xc_check: Ceperley-Alder
V l=0 = -2*Zval/r beyond r=  1.1278
V l=1 = -2*Zval/r beyond r=  1.1278
V l=2 = -2*Zval/r beyond r=  1.1278
All V_l potentials equal beyond r=  1.1278
This should be close to max(r_c) in ps generation
All pots = -2*Zval/r beyond r=  1.1278

VLOCAL1: 99.0% of the norm of Vloc inside     34.126 Ry
VLOCAL1: 99.9% of the norm of Vloc inside     77.774 Ry
atom: Maximum radius for 4*pi*r*r*local-pseudopot. charge    1.37759
atom: Maximum radius for r*vlocal+2*Zval:    1.18566
GHOST: No ghost state for L =  0
GHOST: No ghost state for L =  1
GHOST: No ghost state for L =  2

KBgen: Kleinman-Bylander projectors: 
   l= 0   rc=  1.294105   el= -1.742414   Ekb=  9.135903   kbcos=  0.326910
   l= 1   rc=  1.294105   el= -0.676589   Ekb= -8.124878   kbcos= -0.395047
   l= 2   rc=  1.448233   el=  0.002386   Ekb= -2.039267   kbcos= -0.003484

KBgen: Total number of  Kleinman-Bylander projectors:    9
atom: -------------------------------------------------------------------------

atom: SANKEY-TYPE ORBITALS:

SPLIT: Orbitals with angular momentum L= 0

SPLIT: Basis orbitals for state 2s

SPLIT: PAO cut-off radius determined from an
SPLIT: energy shift=  0.020000 Ry

   izeta = 1
                 lambda =    1.000000
                     rc =    3.305093
                 energy =   -1.723766
                kinetic =    1.614911
    potential(screened) =   -3.338677
       potential(ionic) =  -11.304675

SPLIT: Orbitals with angular momentum L= 1

SPLIT: Basis orbitals for state 2p

SPLIT: PAO cut-off radius determined from an
SPLIT: energy shift=  0.020000 Ry

   izeta = 1
                 lambda =    1.000000
                     rc =    3.937239
                 energy =   -0.658841
                kinetic =    5.005986
    potential(screened) =   -5.664827
       potential(ionic) =  -13.452360
atom: Total number of Sankey-type orbitals:  4

atm_pop: Valence configuration (for local Pseudopot. screening):
 2s( 2.00)                                                            
 2p( 4.00)                                                            
Vna: chval, zval:    6.00000   6.00000

Vna:  Cut-off radius for the neutral-atom potential:   3.937239

atom: _________________________________________________________________________

prinput: Basis input ----------------------------------------------------------

PAO.BasisType split     

%block ChemicalSpeciesLabel
    1   12 Mg                      # Species index, atomic number, species label
    2    6 C                       # Species index, atomic number, species label
    3    8 O                       # Species index, atomic number, species label
%endblock ChemicalSpeciesLabel

%block PAO.Basis                 # Define Basis set
Mg                    1                    # Species label, number of l-shells
 n=3   0   1                         # n, l, Nzeta 
   6.620   
   1.000   
C                     2                    # Species label, number of l-shells
 n=2   0   1                         # n, l, Nzeta 
   4.192   
   1.000   
 n=2   1   1                         # n, l, Nzeta 
   4.870   
   1.000   
O                     2                    # Species label, number of l-shells
 n=2   0   1                         # n, l, Nzeta 
   3.305   
   1.000   
 n=2   1   1                         # n, l, Nzeta 
   3.937   
   1.000   
%endblock PAO.Basis

prinput: ----------------------------------------------------------------------

coor:   Atomic-coordinates input format  =     Fractional

siesta: Atomic coordinates (Bohr) and species
siesta:      0.00000   0.00000   0.00000  1        1
siesta:     12.37759   5.72419   3.74139  1        2
siesta:      6.18879   2.86210   1.87070  2        3
siesta:     -6.18879  -2.86210  -1.87070  2        4
siesta:      7.18051   0.64401   1.87070  3        5
siesta:      6.26741   4.12249  -0.20503  3        6
siesta:      5.11846   3.81979   3.94642  3        7
siesta:     -7.18051  -0.64401  -1.87070  3        8
siesta:     -6.26741  -4.12249   0.20503  3        9
siesta:     -5.11846  -3.81979  -3.94642  3       10

siesta: System type = bulk      

initatomlists: Number of atoms, orbitals, and projectors:     10    34    80

siesta: ******************** Simulation parameters ****************************
siesta:
siesta: The following are some of the parameters of the simulation.
siesta: A complete list of the parameters used, including default values,
siesta: can be found in file out.fdf
siesta:
redata: Non-Collinear-spin run           =     F
redata: SpinPolarized (Up/Down) run      =     F
redata: Number of spin components        =     1
redata: Long output                      =     F
redata: Number of Atomic Species         =        3
redata: Charge density info will appear in .RHO file
redata: Write Mulliken Pop.              =     NO
redata: Mesh Cutoff                      =   100.0000  Ry
redata: Net charge of the system         =     0.0000 |e|
redata: Max. number of SCF Iter          =       20
redata: Broyden mixing with     4 saved histories.
redata: Mix DM in first SCF step ?       =     F
redata: Write Pulay info on disk?        =     F
redata: Discard 1st Pulay DM after  kick =     F
redata: New DM Mixing Weight             =     0.1000
redata: New DM Occupancy tolerance       = 0.000000000001
redata: No kicks to SCF
redata: DM Mixing Weight for Kicks       =     0.5000
redata: DM Tolerance for SCF             =     0.001000
redata: Require Energy convergence for SCF =     F
redata: DM Energy tolerance for SCF      =     0.000100 eV
redata: Require Harris convergence for SCF =     F
redata: DM Harris energy tolerance for SCF =     0.000100 eV
redata: Using Saved Data (generic)   =     F
redata: Use continuation files for DM    =     T
redata: Neglect nonoverlap interactions  =     F
redata: Method of Calculation            =     Diagonalization
redata: Divide and Conquer               =     T
redata: Electronic Temperature           =     0.0019  Ry
redata: Fix the spin of the system       =     F
redata: Dynamics option                  =     CG coord. optimization
redata: Variable cell                    =     T
redata: Use continuation files for CG    =     F
redata: Max atomic displ per move        =     0.2000  Bohr
redata: Maximum number of CG moves       =       10
redata: Force tolerance                  =     0.0016  Ry/Bohr
redata: Stress tolerance                 =     1.0000  GPa
redata: ***********************************************************************
Total number of electrons:    48.000000
Total ionic charge:    48.000000
 Kpoints in:          100 . Kpoints trimmed:           62

siesta: k-grid: Number of k-points =    62
siesta: k-grid: Cutoff (effective) =    11.356 Ang
siesta: k-grid: Supercell and displacements
siesta: k-grid:    5  -5   0      0.500
siesta: k-grid:    0  -5   5      0.000
siesta: k-grid:    0   0   4      0.000
Naive supercell factors:     4    4    4
Auxiliary supercell needs to be larger than naive one...

superc: Internal auxiliary supercell:     5 x     5 x     4  =     100
superc: Number of atoms, orbitals, and projectors:   1000   3400   8000

* Maximum dynamic memory allocated =     3 MB

siesta:                 ==============================
                            Begin CG move =      0
                        ==============================

outcoor: Atomic coordinates (fractional):                   
    0.00000000    0.00000000    0.00000000   1       1  Mg
    0.50000000    0.50000000    0.50000000   1       2  Mg
    0.25000000    0.25000000    0.25000000   2       3  C
   -0.25000000   -0.25000000   -0.25000000   2       4  C
    0.52740000   -0.02740000    0.25000000   3       5  O
    0.25000000    0.52740000   -0.02740000   3       6  O
   -0.02740000    0.25000000    0.52740000   3       7  O
   -0.52740000    0.02740000   -0.25000000   3       8  O
   -0.25000000   -0.52740000    0.02740000   3       9  O
    0.02740000   -0.25000000   -0.52740000   3      10  O

superc: Internal auxiliary supercell:     5 x     5 x     4  =     100
superc: Number of atoms, orbitals, and projectors:   1000   3400   8000

outcell: Unit cell vectors (Ang):
        5.677830    0.000000    0.000000
        3.786009    4.231299    0.000000
        3.636033    1.826925    3.959718

outcell: Cell vector modules (Ang)   :    5.677830    5.677830    5.677830
outcell: Cell angles (23,13,12) (deg):     48.1790     50.1790     48.1790
outcell: Cell volume (Ang**3)        :     95.1306
New_DM. Step:     1
Initializing Density Matrix...

InitMesh: MESH =    32 x    32 x    32 =       32768
InitMesh: Mesh cutoff (required, used) =   100.000   113.739 Ry

* Maximum dynamic memory allocated =    12 MB

stepf: Fermi-Dirac step function
 Broyden: No of relevant DM elements:         9718
 maxit for broyden:            4
 cycle on maxit:  T
 variable weight:  T
 initial alpha:   0.100000000000000     

siesta: Program's energy decomposition (eV):
siesta: Ebs     =      -692.855195
siesta: Eions   =      5228.674091
siesta: Ena     =      1094.137208
siesta: Ekin    =      2100.835149
siesta: Enl     =      -258.862835
siesta: DEna    =        -0.000162
siesta: DUscf   =         0.000000
siesta: DUext   =         0.000000
siesta: Exc     =      -682.142452
siesta: eta*DQ  =         0.000000
siesta: Emadel  =         0.000000
siesta: Emeta   =         0.000000
siesta: Emolmec =         0.000000
siesta: Ekinion =         0.000000
siesta: Eharris =     -2966.454986
siesta: Etot    =     -2974.707183
siesta: FreeEng =     -2974.707183

siesta: iscf   Eharris(eV)      E_KS(eV)   FreeEng(eV)   dDmax  Ef(eV)
siesta:    1    -2966.4550    -2974.7072    -2974.7072  1.7486 -2.8753
timer: Routine,Calls,Time,% = IterSCF        1       1.398  67.95
elaps: Routine,Calls,Wall,% = IterSCF        1       1.397  67.93
siesta:    2    -2967.9629    -2949.8933    -2949.8933  0.8244 -2.0897
siesta:    3    -2963.9014    -2951.4718    -2951.4718  0.6368 -1.9635
siesta:    4    -2957.8627    -2954.2196    -2954.2196  0.0536 -2.7334
siesta:    5    -2957.8284    -2954.7988    -2954.7988  0.0397 -2.7470
siesta:    6    -2957.8196    -2956.0871    -2956.0871  0.0238 -2.8238
Cycling the Broyden process...
siesta:    7    -2957.8157    -2957.7334    -2957.7334  0.0054 -2.8862
Cycling the Broyden process...
siesta:    8    -2957.8153    -2957.5811    -2957.5811  0.0035 -2.8781
Cycling the Broyden process...
siesta:    9    -2957.8153    -2957.8030    -2957.8030  0.0002 -2.8743

siesta: E_KS(eV) =            -2957.8119

siesta: E_KS - E_eggbox =     -2957.8119

siesta: Atomic forces (eV/Ang):
     1    0.000000    0.000000    0.000000
     2    0.000000    0.000000    0.000000
     3   -1.138370    1.018585    2.207645
     4    1.138373   -1.018591   -2.207647
     5    2.893470   -7.217925    0.547149
     6    0.087953    4.550227   -6.329042
     7   -1.878605    1.680926    3.643241
     8   -2.893468    7.217922   -0.547140
     9   -0.087956   -4.550226    6.329036
    10    1.878602   -1.680917   -3.643246
----------------------------------------
   Tot    0.000000    0.000001   -0.000004
----------------------------------------
   Max    7.217925
   Res    3.145091    sqrt( Sum f_i^2 / 3N )
----------------------------------------
   Max    7.217925    constrained

Stress-tensor-Voigt (kbar):      118.98     -203.33     -122.76      139.76      126.40       40.99
(Free)E + p*V (eV/cell)    -2953.7128
Target enthalpy (eV/cell)    -2957.8119

siesta: Stress tensor (static) (eV/Ang**3):
         0.074258    0.087232    0.025583
         0.087232   -0.126906    0.078890
         0.025584    0.078890   -0.076617

siesta: Pressure (static):         69.03609720  kBar

siesta: Stress tensor (total) (eV/Ang**3):
         0.074258    0.087232    0.025583
         0.087232   -0.126906    0.078890
         0.025584    0.078890   -0.076617

siesta: Pressure (total):         69.03609720  kBar

cgvc: No target stress found, assuming hydrostatic MD.TargetPressure.
***Target stress set to zero for constant-volume calculation

cgvc: Target stress (kBar)
cgvc:         0.000       0.000       0.000
cgvc:         0.000       0.000       0.000
cgvc:         0.000       0.000       0.000
Volume before coercion:      95.1272

* Maximum dynamic memory allocated =    13 MB

siesta:                 ==============================
                            Begin CG move =      1
                        ==============================

outcoor: Atomic coordinates (fractional):                   
    0.00000000    0.00000000    0.00000000   1       1  Mg
    0.50000000    0.50000000    0.50000000   1       2  Mg
    0.24800912    0.25000002    0.25199086   2       3  C
   -0.24800911   -0.25000002   -0.25199086   2       4  C
    0.53246036   -0.03343305    0.24984621   3       5  O
    0.25015382    0.53343300   -0.03246032   3       6  O
   -0.03068547    0.25000003    0.53068549   3       7  O
   -0.53246035    0.03343304   -0.24984619   3       8  O
   -0.25015382   -0.53343301    0.03246031   3       9  O
    0.03068547   -0.25000002   -0.53068550   3      10  O
 Kpoints in:           60 . Kpoints trimmed:           60

siesta: k-grid: Number of k-points =    60
siesta: k-grid: Cutoff (effective) =    11.306 Ang
siesta: k-grid: Supercell and displacements
siesta: k-grid:    5  -5   0      0.500
siesta: k-grid:    0  -5   5      0.000
siesta: k-grid:    4   0   0      0.000
Naive supercell factors:     4    4    4
Auxiliary supercell needs to be larger than naive one...

superc: Internal auxiliary supercell:     5 x     5 x     4  =     100
superc: Number of atoms, orbitals, and projectors:   1000   3400   8000

outcell: Unit cell vectors (Ang):
        5.652723   -0.018715   -0.005489
        3.755321    4.232272   -0.016273
        3.610105    1.808944    3.955822

outcell: Cell vector modules (Ang)   :    5.652757    5.658164    5.652757
outcell: Cell angles (23,13,12) (deg):     48.6069     50.4388     48.6069
outcell: Cell volume (Ang**3)        :     95.1306
New_DM. Step:     2
Re-using DM from previous geometry...
Re-using DM without extrapolation (not allowed)
Density Matrix sparsity pattern changed.

InitMesh: MESH =    30 x    30 x    30 =       27000
InitMesh: Mesh cutoff (required, used) =   100.000   101.217 Ry

siesta: iscf   Eharris(eV)      E_KS(eV)   FreeEng(eV)   dDmax  Ef(eV)
siesta:    1    -2958.6907    -2956.6876    -2956.6876  0.0653 -3.4373
siesta:    2    -2958.7422    -2958.5811    -2958.5811  0.0682 -3.2182
siesta:    3    -2958.6943    -2958.5944    -2958.5944  0.0519 -3.2439
siesta:    4    -2958.6436    -2958.6119    -2958.6119  0.0081 -3.3021
siesta:    5    -2958.6422    -2958.6235    -2958.6235  0.0043 -3.3162
siesta:    6    -2958.6419    -2958.6249    -2958.6249  0.0019 -3.3190
Cycling the Broyden process...
siesta:    7    -2958.6419    -2958.6384    -2958.6384  0.0001 -3.3230

siesta: E_KS(eV) =            -2958.6389

siesta: Atomic forces (eV/Ang):
     1    0.000000    0.000000    0.000000
     2    0.000000    0.000000    0.000000
     3   -0.310453    0.277789    0.602049
     4    0.310449   -0.277789   -0.602044
     5    1.677542   -4.591951    0.376724
     6    0.140510    2.965187   -3.902504
     7   -1.597444    1.429352    3.097959
     8   -1.677537    4.591956   -0.376706
     9   -0.140516   -2.965183    3.902496
    10    1.597427   -1.429339   -3.097976
----------------------------------------
   Tot   -0.000022    0.000023   -0.000002
----------------------------------------
   Max    4.591956
   Res    2.046328    sqrt( Sum f_i^2 / 3N )
----------------------------------------
   Max    4.591956    constrained

Stress-tensor-Voigt (kbar):      144.59      -75.25      -34.72      100.34       78.14       37.56
(Free)E + p*V (eV/cell)    -2959.3240
Target enthalpy (eV/cell)    -2958.6389

siesta: Stress tensor (static) (eV/Ang**3):
         0.090243    0.062628    0.023441
         0.062629   -0.046967    0.048771
         0.023441    0.048771   -0.021672

siesta: Pressure (static):        -11.53785382  kBar

siesta: Stress tensor (total) (eV/Ang**3):
         0.090243    0.062628    0.023441
         0.062629   -0.046967    0.048771
         0.023441    0.048771   -0.021672

siesta: Pressure (total):        -11.53785382  kBar
Volume before coercion:      95.1072

* Maximum dynamic memory allocated =    13 MB

siesta:                 ==============================
                            Begin CG move =      2
                        ==============================

outcoor: Atomic coordinates (fractional):                   
    0.00000000    0.00000000    0.00000000   1       1  Mg
    0.50000000    0.50000000    0.50000000   1       2  Mg
    0.24482371    0.25000005    0.25517622   2       3  C
   -0.24482369   -0.25000006   -0.25517623   2       4  C
    0.54055693   -0.04308592    0.24960013   3       5  O
    0.25039993    0.54308581   -0.04055683   3       6  O
   -0.03594223    0.25000007    0.53594228   3       7  O
   -0.54055692    0.04308592   -0.24960010   3       8  O
   -0.25039994   -0.54308582    0.04055680   3       9  O
    0.03594221   -0.25000005   -0.53594229   3      10  O
 Kpoints in:           60 . Kpoints trimmed:           60

siesta: k-grid: Number of k-points =    60
siesta: k-grid: Cutoff (effective) =    11.226 Ang
siesta: k-grid: Supercell and displacements
siesta: k-grid:    5  -5   0      0.500
siesta: k-grid:    0  -5   5      0.000
siesta: k-grid:    4   0   0      0.000
Naive supercell factors:     4    4    4
Auxiliary supercell needs to be larger than naive one...

superc: Internal auxiliary supercell:     5 x     5 x     4  =     100
superc: Number of atoms, orbitals, and projectors:   1000   3400   8000

outcell: Unit cell vectors (Ang):
        5.612834   -0.048662   -0.014272
        3.706405    4.234042   -0.042313
        3.568799    1.780265    3.949787

outcell: Cell vector modules (Ang)   :    5.613063    5.627285    5.613064
outcell: Cell angles (23,13,12) (deg):     49.2985     50.8585     49.2985
outcell: Cell volume (Ang**3)        :     95.1306
New_DM. Step:     3
Re-using DM from previous geometry...
Re-using DM without extrapolation (not allowed)

InitMesh: MESH =    30 x    30 x    30 =       27000
InitMesh: Mesh cutoff (required, used) =   100.000   103.259 Ry

siesta: iscf   Eharris(eV)      E_KS(eV)   FreeEng(eV)   dDmax  Ef(eV)
siesta:    1    -2959.5758    -2956.6507    -2956.6507  0.1083 -3.8039
siesta:    2    -2959.7727    -2959.2564    -2959.2564  0.1199 -3.6141
siesta:    3    -2959.6121    -2959.2988    -2959.2988  0.0902 -3.6181
siesta:    4    -2959.4457    -2959.3495    -2959.3495  0.0107 -3.6382
siesta:    5    -2959.4435    -2959.3755    -2959.3755  0.0084 -3.6603
siesta:    6    -2959.4420    -2959.3896    -2959.3896  0.0035 -3.6695
Cycling the Broyden process...
siesta:    7    -2959.4417    -2959.4290    -2959.4290  0.0002 -3.6743

siesta: E_KS(eV) =            -2959.4308

siesta: Atomic forces (eV/Ang):
     1    0.000000    0.000000    0.000000
     2    0.000000    0.000000    0.000000
     3    0.628912   -0.562727   -1.219665
     4   -0.628913    0.562731    1.219664
     5    0.314837   -1.564965    0.187879
     6    0.170898    1.130313   -1.129840
     7   -1.026861    0.918816    1.991431
     8   -0.314842    1.564965   -0.187869
     9   -0.170912   -1.130316    1.129843
    10    1.026863   -0.918814   -1.991416
----------------------------------------
   Tot   -0.000018    0.000003    0.000026
----------------------------------------
   Max    1.991431
   Res    0.939188    sqrt( Sum f_i^2 / 3N )
----------------------------------------
   Max    1.991431    constrained

Stress-tensor-Voigt (kbar):      150.21       75.69       79.05       39.25       22.20       18.12
(Free)E + p*V (eV/cell)    -2965.4665
Target enthalpy (eV/cell)    -2959.4308

siesta: Stress tensor (static) (eV/Ang**3):
         0.093754    0.024489    0.011313
         0.024495    0.047245    0.013857
         0.011310    0.013854    0.049340

siesta: Pressure (static):       -101.65337010  kBar

siesta: Stress tensor (total) (eV/Ang**3):
         0.093754    0.024489    0.011313
         0.024495    0.047245    0.013857
         0.011310    0.013854    0.049340

siesta: Pressure (total):       -101.65337010  kBar
Volume before coercion:      95.0384

* Maximum dynamic memory allocated =    13 MB

siesta:                 ==============================
                            Begin CG move =      3
                        ==============================

outcoor: Atomic coordinates (fractional):                   
    0.00000000    0.00000000    0.00000000   1       1  Mg
    0.50000000    0.50000000    0.50000000   1       2  Mg
    0.23972705    0.25000010    0.26027281   2       3  C
   -0.23972702   -0.25000011   -0.26027282   2       4  C
    0.55351145   -0.05853052    0.24920642   3       5  O
    0.25079372    0.55853031   -0.05351124   3       6  O
   -0.04435304    0.25000013    0.54435313   3       7  O
   -0.55351143    0.05853051   -0.24920636   3       8  O
   -0.25079374   -0.55853031    0.05351119   3       9  O
    0.04435301   -0.25000009   -0.54435316   3      10  O
 Kpoints in:           60 . Kpoints trimmed:           60

siesta: k-grid: Number of k-points =    60
siesta: k-grid: Cutoff (effective) =    11.101 Ang
siesta: k-grid: Supercell and displacements
siesta: k-grid:    5  -5   0      0.500
siesta: k-grid:    0  -5   5      0.000
siesta: k-grid:    4   0   0      0.000
Naive supercell factors:     4    4    4
Auxiliary supercell needs to be larger than naive one...

superc: Internal auxiliary supercell:     5 x     5 x     4  =     100
superc: Number of atoms, orbitals, and projectors:   1000   3400   8000

outcell: Unit cell vectors (Ang):
        5.549719   -0.096599   -0.028331
        3.628595    4.237425   -0.083995
        3.503151    1.734594    3.940640

outcell: Cell vector modules (Ang)   :    5.550632    5.579384    5.550633
outcell: Cell angles (23,13,12) (deg):     50.4233     51.5406     50.4233
outcell: Cell volume (Ang**3)        :     95.1306
New_DM. Step:     4
Re-using DM from previous geometry...
Re-using DM without extrapolation (not allowed)
Density Matrix sparsity pattern changed.

InitMesh: MESH =    30 x    30 x    30 =       27000
InitMesh: Mesh cutoff (required, used) =   100.000   106.629 Ry

siesta: iscf   Eharris(eV)      E_KS(eV)   FreeEng(eV)   dDmax  Ef(eV)
siesta:    1    -2959.6411    -2955.5813    -2955.5813  0.1802 -4.1575
siesta:    2    -2960.5151    -2958.6045    -2958.6045  0.2327 -4.2109
siesta:    3    -2959.8936    -2958.7597    -2958.7597  0.1708 -4.1559
siesta:    4    -2959.2593    -2958.9252    -2958.9252  0.0244 -4.0268
siesta:    5    -2959.2531    -2958.9593    -2958.9593  0.0133 -4.0496
siesta:    6    -2959.2516    -2959.0898    -2959.0898  0.0100 -4.0913
Cycling the Broyden process...
siesta:    7    -2959.2496    -2959.1912    -2959.1912  0.0008 -4.0859

siesta: E_KS(eV) =            -2959.2040

siesta: Atomic forces (eV/Ang):
     1    0.000000   -0.000001   -0.000001
     2    0.000000    0.000000   -0.000001
     3    1.526387   -1.365768   -2.960149
     4   -1.526389    1.365773    2.960144
     5   -1.184745    1.949003    0.065551
     6    0.085846   -0.965782    2.065617
     7   -0.286483    0.256359    0.555550
     8    1.184750   -1.948996   -0.065552
     9   -0.085990    0.965964   -2.065039
    10    0.286472   -0.256351   -0.555554
----------------------------------------
   Tot   -0.000151    0.000202    0.000568
----------------------------------------
   Max    2.960149
   Res    1.260330    sqrt( Sum f_i^2 / 3N )
----------------------------------------
   Max    2.960149    constrained

Stress-tensor-Voigt (kbar):      151.43      269.93      231.81      -43.34      -46.46      -14.18
(Free)E + p*V (eV/cell)    -2972.1314
Target enthalpy (eV/cell)    -2959.2040

siesta: Stress tensor (static) (eV/Ang**3):
         0.094515   -0.027071   -0.008839
        -0.027048    0.168473   -0.028987
        -0.008850   -0.028999    0.144683

siesta: Pressure (static):       -217.72290820  kBar

siesta: Stress tensor (total) (eV/Ang**3):
         0.094515   -0.027071   -0.008839
        -0.027048    0.168473   -0.028987
        -0.008850   -0.028999    0.144683

siesta: Pressure (total):       -217.72290820  kBar
Volume before coercion:      95.0829

* Maximum dynamic memory allocated =    13 MB

siesta:                 ==============================
                            Begin CG move =      4
                        ==============================

outcoor: Atomic coordinates (fractional):                   
    0.00000000    0.00000000    0.00000000   1       1  Mg
    0.50000000    0.50000000    0.50000000   1       2  Mg
    0.24261020    0.25000007    0.25738970   2       3  C
   -0.24261017   -0.25000008   -0.25738971   2       4  C
    0.54618316   -0.04979360    0.24942914   3       5  O
    0.25057096    0.54979345   -0.04618301   3       6  O
   -0.03959509    0.25000009    0.53959516   3       7  O
   -0.54618314    0.04979360   -0.24942910   3       8  O
   -0.25057097   -0.54979345    0.04618297   3       9  O
    0.03959507   -0.25000007   -0.53959518   3      10  O
 Kpoints in:           60 . Kpoints trimmed:           60

siesta: k-grid: Number of k-points =    60
siesta: k-grid: Cutoff (effective) =    11.172 Ang
siesta: k-grid: Supercell and displacements
siesta: k-grid:    5  -5   0      0.500
siesta: k-grid:    0  -5   5      0.000
siesta: k-grid:    4   0   0      0.000
Naive supercell factors:     4    4    4
Auxiliary supercell needs to be larger than naive one...

superc: Internal auxiliary supercell:     5 x     5 x     4  =     100
superc: Number of atoms, orbitals, and projectors:   1000   3400   8000

outcell: Unit cell vectors (Ang):
        5.585317   -0.069477   -0.020376
        3.672544    4.235428   -0.060412
        3.540222    1.760398    3.945737

outcell: Cell vector modules (Ang)   :    5.585786    5.606254    5.585787
outcell: Cell angles (23,13,12) (deg):     49.7843     51.1531     49.7843
outcell: Cell volume (Ang**3)        :     95.1306
New_DM. Step:     5
Re-using DM from previous geometry...
Re-using DM without extrapolation (not allowed)
Density Matrix sparsity pattern changed.

InitMesh: MESH =    30 x    30 x    30 =       27000
InitMesh: Mesh cutoff (required, used) =   100.000   104.706 Ry

siesta: iscf   Eharris(eV)      E_KS(eV)   FreeEng(eV)   dDmax  Ef(eV)
siesta:    1    -2959.6688    -2961.5306    -2961.5306  0.0968 -3.7814
siesta:    2    -2959.8715    -2959.3871    -2959.3871  0.1330 -3.8659
siesta:    3    -2959.6941    -2959.4247    -2959.4247  0.0860 -3.8847
siesta:    4    -2959.5568    -2959.4644    -2959.4644  0.0206 -3.9022
siesta:    5    -2959.5504    -2959.4857    -2959.4857  0.0082 -3.8839
siesta:    6    -2959.5496    -2959.4986    -2959.4986  0.0032 -3.8739
Cycling the Broyden process...
siesta:    7    -2959.5494    -2959.5373    -2959.5373  0.0004 -3.8678

siesta: E_KS(eV) =            -2959.5398

siesta: Atomic forces (eV/Ang):
     1    0.000000    0.000000    0.000000
     2    0.000000    0.000000    0.000000
     3    1.128446   -1.009694   -2.188426
     4   -1.128448    1.009699    2.188426
     5   -0.501200    0.284690    0.133956
     6    0.135922    0.042091    0.574468
     7   -0.693778    0.620846    1.345545
     8    0.501188   -0.284689   -0.133957
     9   -0.135928   -0.042105   -0.574469
    10    0.693784   -0.620837   -1.345543
----------------------------------------
   Tot   -0.000014   -0.000001    0.000001
----------------------------------------
   Max    2.188426
   Res    0.835057    sqrt( Sum f_i^2 / 3N )
----------------------------------------
   Max    2.188426    constrained

Stress-tensor-Voigt (kbar):      153.78      172.83      156.81       -2.71      -12.23        3.53
(Free)E + p*V (eV/cell)    -2969.1074
Target enthalpy (eV/cell)    -2959.5398

siesta: Stress tensor (static) (eV/Ang**3):
         0.095979   -0.001699    0.002208
        -0.001692    0.107868   -0.007632
         0.002204   -0.007636    0.097874

siesta: Pressure (static):       -161.13818608  kBar

siesta: Stress tensor (total) (eV/Ang**3):
         0.095979   -0.001699    0.002208
        -0.001692    0.107868   -0.007632
         0.002204   -0.007636    0.097874

siesta: Pressure (total):       -161.13818608  kBar

cgvc: Finished line minimization    1.  Mean atomic displacement =    0.1853
Volume before coercion:      95.0624

* Maximum dynamic memory allocated =    13 MB

siesta:                 ==============================
                            Begin CG move =      5
                        ==============================

outcoor: Atomic coordinates (fractional):                   
    0.00000000    0.00000000   -0.00000001   1       1  Mg
    0.49999999    0.49999999    0.49999999   1       2  Mg
    0.26125028    0.25000006    0.23874960   2       3  C
   -0.26125029   -0.25000003   -0.23874960   2       4  C
    0.54304980   -0.05920141    0.24680074   3       5  O
    0.25319905    0.55920041   -0.04304921   3       6  O
   -0.05651083    0.25000121    0.55651242   3       7  O
   -0.54305000    0.05920127   -0.24680083   3       8  O
   -0.25319920   -0.55920071    0.04304898   3       9  O
    0.05651092   -0.25000097   -0.55651229   3      10  O
 Kpoints in:           60 . Kpoints trimmed:           60

siesta: k-grid: Number of k-points =    60
siesta: k-grid: Cutoff (effective) =    11.133 Ang
siesta: k-grid: Supercell and displacements
siesta: k-grid:    5  -5   0      0.500
siesta: k-grid:    0  -5   5      0.000
siesta: k-grid:    4   0   0      0.000
Naive supercell factors:     4    4    4
Auxiliary supercell needs to be larger than naive one...

superc: Internal auxiliary supercell:     5 x     5 x     4  =     100
superc: Number of atoms, orbitals, and projectors:   1000   3400   8000

outcell: Unit cell vectors (Ang):
        5.565754   -0.088255   -0.032060
        3.645506    4.227011   -0.070470
        3.513505    1.748023    3.947936

outcell: Cell vector modules (Ang)   :    5.566546    5.582321    5.566552
outcell: Cell angles (23,13,12) (deg):     50.1321     51.5356     50.1321
outcell: Cell volume (Ang**3)        :     95.1306
New_DM. Step:     6
Re-using DM from previous geometry...
Re-using DM without extrapolation (not allowed)
Density Matrix sparsity pattern changed.

InitMesh: MESH =    30 x    30 x    30 =       27000
InitMesh: Mesh cutoff (required, used) =   100.000   105.937 Ry

siesta: iscf   Eharris(eV)      E_KS(eV)   FreeEng(eV)   dDmax  Ef(eV)
siesta:    1    -2959.9231    -2957.1341    -2957.1341  0.1252 -4.1664
siesta:    2    -2963.6326    -2957.5591    -2957.5591  0.5663 -1.9352
siesta:    3    -2960.4496    -2957.9417    -2957.9417  0.2162 -2.6788
siesta:    4    -2959.3552    -2958.2162    -2958.2162  0.1216 -3.1059
siesta:    5    -2959.1142    -2958.4213    -2958.4213  0.0489 -3.0575
siesta:    6    -2959.0942    -2958.5755    -2958.5755  0.0186 -3.0872
Cycling the Broyden process...
siesta:    7    -2959.0926    -2958.6682    -2958.6682  0.0127 -3.0962
Cycling the Broyden process...
siesta:    8    -2959.0906    -2959.0077    -2959.0077  0.0039 -3.1072
Cycling the Broyden process...
siesta:    9    -2959.0906    -2959.0246    -2959.0246  0.0032 -3.1077
Cycling the Broyden process...
siesta:   10    -2959.0905    -2959.0924    -2959.0924  0.0002 -3.1088

siesta: E_KS(eV) =            -2959.0911

siesta: Atomic forces (eV/Ang):
     1   -0.000001   -0.000009    0.000001
     2    0.000000   -0.000006    0.000003
     3   -1.501002    1.343035    2.911066
     4    1.500991   -1.343060   -2.911054
     5    0.609522    0.861813   -0.289972
     6   -0.465355   -0.990732    0.010477
     7    1.345827   -1.204032   -2.609827
     8   -0.609484   -0.861787    0.289961
     9    0.465408    0.990782   -0.010456
    10   -1.345813    1.204064    2.609840
----------------------------------------
   Tot    0.000094    0.000068    0.000039
----------------------------------------
   Max    2.911066
   Res    1.290989    sqrt( Sum f_i^2 / 3N )
----------------------------------------
   Max    2.911066    constrained

Stress-tensor-Voigt (kbar):      155.94      187.60      281.68      -49.93       43.96      -71.19
(Free)E + p*V (eV/cell)    -2971.4652
Target enthalpy (eV/cell)    -2959.0911

siesta: Stress tensor (static) (eV/Ang**3):
         0.097327   -0.031158   -0.044434
        -0.031162    0.117090    0.027436
        -0.044433    0.027438    0.175806

siesta: Pressure (static):       -208.40429552  kBar

siesta: Stress tensor (total) (eV/Ang**3):
         0.097327   -0.031158   -0.044434
        -0.031162    0.117090    0.027436
        -0.044433    0.027438    0.175806

siesta: Pressure (total):       -208.40429552  kBar
Volume before coercion:      95.0762

* Maximum dynamic memory allocated =    13 MB

siesta:                 ==============================
                            Begin CG move =      6
                        ==============================

outcoor: Atomic coordinates (fractional):                   
    0.00000000    0.00000000    0.00000000   1       1  Mg
    0.50000000    0.50000000    0.50000000   1       2  Mg
    0.24919038    0.25000007    0.25080952   2       3  C
   -0.24919037   -0.25000006   -0.25080952   2       4  C
    0.54507704   -0.05311467    0.24850128   3       5  O
    0.25149871    0.55311422   -0.04507674   3       6  O
   -0.04556656    0.25000049    0.54556716   3       7  O
   -0.54507710    0.05311462   -0.24850128   3       8  O
   -0.25149877   -0.55311433    0.04507663   3       9  O
    0.04556658   -0.25000039   -0.54556713   3      10  O
 Kpoints in:           60 . Kpoints trimmed:           60

siesta: k-grid: Number of k-points =    60
siesta: k-grid: Cutoff (effective) =    11.158 Ang
siesta: k-grid: Supercell and displacements
siesta: k-grid:    5  -5   0      0.500
siesta: k-grid:    0  -5   5      0.000
siesta: k-grid:    4   0   0      0.000
Naive supercell factors:     4    4    4
Auxiliary supercell needs to be larger than naive one...

superc: Internal auxiliary supercell:     5 x     5 x     4  =     100
superc: Number of atoms, orbitals, and projectors:   1000   3400   8000

outcell: Unit cell vectors (Ang):
        5.578400   -0.076105   -0.024501
        3.662993    4.232448   -0.063963
        3.530784    1.756026    3.946506

outcell: Cell vector modules (Ang)   :    5.578973    5.597788    5.578976
outcell: Cell angles (23,13,12) (deg):     49.9068     51.2879     49.9068
outcell: Cell volume (Ang**3)        :     95.1306
New_DM. Step:     7
Re-using DM from previous geometry...
Re-using DM without extrapolation (not allowed)
Density Matrix sparsity pattern changed.

InitMesh: MESH =    30 x    30 x    30 =       27000
InitMesh: Mesh cutoff (required, used) =   100.000   105.138 Ry

siesta: iscf   Eharris(eV)      E_KS(eV)   FreeEng(eV)   dDmax  Ef(eV)
siesta:    1    -2960.0013    -2960.8507    -2960.8507  0.0873 -3.1388
siesta:    2    -2961.3751    -2959.0339    -2959.0339  0.2768 -3.2576
siesta:    3    -2960.3311    -2959.2042    -2959.2042  0.1834 -3.2436
siesta:    4    -2959.6606    -2959.3239    -2959.3239  0.0193 -4.3345
siesta:    5    -2959.6599    -2959.3664    -2959.3664  0.0165 -4.3369
siesta:    6    -2959.6580    -2959.6071    -2959.6071  0.0021 -4.3319
Cycling the Broyden process...
siesta:    7    -2959.6580    -2959.6151    -2959.6151  0.0014 -4.3321
Cycling the Broyden process...
siesta:    8    -2959.6580    -2959.6130    -2959.6130  0.0016 -4.3320
Cycling the Broyden process...
siesta:    9    -2959.6580    -2959.6598    -2959.6598  0.0001 -4.3327

siesta: E_KS(eV) =            -2959.6576

siesta: Atomic forces (eV/Ang):
     1   -0.000001   -0.000002    0.000000
     2   -0.000002   -0.000002    0.000000
     3   -0.103575    0.092639    0.200938
     4    0.103589   -0.092672   -0.200950
     5   -0.377568    0.298135   -0.076694
     6    0.199343   -0.138673    0.422320
     7    0.336768   -0.301248   -0.653037
     8    0.377562   -0.298105    0.076704
     9   -0.199343    0.138680   -0.422313
    10   -0.336768    0.301256    0.653041
----------------------------------------
   Tot    0.000006    0.000008    0.000009
----------------------------------------
   Max    0.653041
   Res    0.278682    sqrt( Sum f_i^2 / 3N )
----------------------------------------
   Max    0.653041    constrained

Stress-tensor-Voigt (kbar):      157.94      177.17      218.50      -23.47       19.13      -33.99
(Free)E + p*V (eV/cell)    -2970.6144
Target enthalpy (eV/cell)    -2959.6576

siesta: Stress tensor (static) (eV/Ang**3):
         0.098576   -0.014651   -0.021214
        -0.014648    0.110578    0.011939
        -0.021215    0.011938    0.136375

siesta: Pressure (static):       -184.53468853  kBar

siesta: Stress tensor (total) (eV/Ang**3):
         0.098576   -0.014651   -0.021214
        -0.014648    0.110578    0.011939
        -0.021215    0.011938    0.136375

siesta: Pressure (total):       -184.53468853  kBar

cgvc: Finished line minimization    2.  Mean atomic displacement =    0.0654
Volume before coercion:      95.0828

* Maximum dynamic memory allocated =    13 MB

siesta:                 ==============================
                            Begin CG move =      7
                        ==============================

outcoor: Atomic coordinates (fractional):                   
   -0.00000002   -0.00000004   -0.00000002   1       1  Mg
    0.49999996    0.49999995    0.49999997   1       2  Mg
    0.25195745    0.24999966    0.24804303   2       3  C
   -0.25195722   -0.24999987   -0.24804316   2       4  C
    0.53878000   -0.05559563    0.24497948   3       5  O
    0.25502037    0.55559492   -0.03877964   3       6  O
   -0.04445630    0.25000162    0.54445829   3       7  O
   -0.53878020    0.05559582   -0.24497933   3       8  O
   -0.25502045   -0.55559501    0.03877961   3       9  O
    0.04445634   -0.25000138   -0.54445815   3      10  O
 Kpoints in:           60 . Kpoints trimmed:           60

siesta: k-grid: Number of k-points =    60
siesta: k-grid: Cutoff (effective) =    11.208 Ang
siesta: k-grid: Supercell and displacements
siesta: k-grid:    5  -5   0      0.500
siesta: k-grid:    0  -5   5      0.000
siesta: k-grid:    4   0   0      0.000
Naive supercell factors:     4    4    4
Auxiliary supercell needs to be larger than naive one...

superc: Internal auxiliary supercell:     5 x     5 x     4  =     100
superc: Number of atoms, orbitals, and projectors:   1000   3400   8000

outcell: Unit cell vectors (Ang):
        5.603949   -0.053711    0.011513
        3.696717    4.254414   -0.056707
        3.579467    1.757720    3.937661

outcell: Cell vector modules (Ang)   :    5.604218    5.636397    5.604225
outcell: Cell angles (23,13,12) (deg):     49.5655     50.4229     49.5655
outcell: Cell volume (Ang**3)        :     95.1306
New_DM. Step:     8
Re-using DM from previous geometry...
Re-using DM without extrapolation (not allowed)
Density Matrix sparsity pattern changed.

InitMesh: MESH =    30 x    30 x    30 =       27000
InitMesh: Mesh cutoff (required, used) =   100.000   103.398 Ry

siesta: iscf   Eharris(eV)      E_KS(eV)   FreeEng(eV)   dDmax  Ef(eV)
siesta:    1    -2959.6363    -2960.2738    -2960.2738  0.0424 -4.2336
siesta:    2    -2959.6430    -2959.6148    -2959.6148  0.0317 -4.2903
siesta:    3    -2959.6332    -2959.6170    -2959.6170  0.0224 -4.2823
siesta:    4    -2959.6249    -2959.6195    -2959.6195  0.0043 -4.2661
siesta:    5    -2959.6246    -2959.6210    -2959.6210  0.0014 -4.2635
siesta:    6    -2959.6246    -2959.6224    -2959.6224  0.0010 -4.2636

siesta: E_KS(eV) =            -2959.6240

siesta: Atomic forces (eV/Ang):
     1    0.000003   -0.000003    0.000000
     2    0.000010    0.000002   -0.000001
     3   -0.307138    0.274952    0.595644
     4    0.307109   -0.274860   -0.595617
     5    0.950188    0.444782   -0.053164
     6   -0.714505   -0.655707   -0.403782
     7    0.140347   -0.125255   -0.271781
     8   -0.950182   -0.444852    0.053163
     9    0.714519    0.655725    0.403773
    10   -0.140302    0.125274    0.271768
----------------------------------------
   Tot    0.000048    0.000058    0.000003
----------------------------------------
   Max    0.950188
   Res    0.435200    sqrt( Sum f_i^2 / 3N )
----------------------------------------
   Max    0.950188    constrained

Stress-tensor-Voigt (kbar):      150.54      160.36      177.11      -14.37        3.65      -10.82
(Free)E + p*V (eV/cell)    -2969.2824
Target enthalpy (eV/cell)    -2959.6240

siesta: Stress tensor (static) (eV/Ang**3):
         0.093958   -0.008991   -0.006740
        -0.008966    0.100085    0.002291
        -0.006751    0.002279    0.110539

siesta: Pressure (static):       -162.66648244  kBar

siesta: Stress tensor (total) (eV/Ang**3):
         0.093958   -0.008991   -0.006740
        -0.008966    0.100085    0.002291
        -0.006751    0.002279    0.110539

siesta: Pressure (total):       -162.66648244  kBar
Volume before coercion:      95.0805

* Maximum dynamic memory allocated =    13 MB

siesta:                 ==============================
                            Begin CG move =      8
                        ==============================

outcoor: Atomic coordinates (fractional):                   
    0.00000000   -0.00000001   -0.00000001   1       1  Mg
    0.49999999    0.49999998    0.49999999   1       2  Mg
    0.25008551    0.24999993    0.24991457   2       3  C
   -0.25008543   -0.25000000   -0.24991461   2       4  C
    0.54303998   -0.05391725    0.24736200   3       5  O
    0.25263795    0.55391672   -0.04303966   3       6  O
   -0.04520739    0.25000085    0.54520845   3       7  O
   -0.54304008    0.05391728   -0.24736195   3       8  O
   -0.25263802   -0.55391682    0.04303958   3       9  O
    0.04520742   -0.25000071   -0.54520838   3      10  O
 Kpoints in:           60 . Kpoints trimmed:           60

siesta: k-grid: Number of k-points =    60
siesta: k-grid: Cutoff (effective) =    11.174 Ang
siesta: k-grid: Supercell and displacements
siesta: k-grid:    5  -5   0      0.500
siesta: k-grid:    0  -5   5      0.000
siesta: k-grid:    4   0   0      0.000
Naive supercell factors:     4    4    4
Auxiliary supercell needs to be larger than naive one...

superc: Internal auxiliary supercell:     5 x     5 x     4  =     100
superc: Number of atoms, orbitals, and projectors:   1000   3400   8000

outcell: Unit cell vectors (Ang):
        5.586623   -0.068860   -0.012850
        3.673875    4.239522   -0.061615
        3.546506    1.756561    3.943614

outcell: Cell vector modules (Ang)   :    5.587062    5.610232    5.587066
outcell: Cell angles (23,13,12) (deg):     49.7959     51.0072     49.7959
outcell: Cell volume (Ang**3)        :     95.1306
New_DM. Step:     9
Re-using DM from previous geometry...
Re-using DM without extrapolation (not allowed)
Density Matrix sparsity pattern changed.

InitMesh: MESH =    30 x    30 x    30 =       27000
InitMesh: Mesh cutoff (required, used) =   100.000   104.572 Ry

siesta: iscf   Eharris(eV)      E_KS(eV)   FreeEng(eV)   dDmax  Ef(eV)
siesta:    1    -2959.6959    -2959.2270    -2959.2270  0.0293 -4.3354
siesta:    2    -2959.7024    -2959.6833    -2959.6833  0.0262 -4.3097
siesta:    3    -2959.6954    -2959.6848    -2959.6848  0.0167 -4.3121
siesta:    4    -2959.6898    -2959.6863    -2959.6863  0.0034 -4.3125
siesta:    5    -2959.6896    -2959.6875    -2959.6875  0.0009 -4.3159

siesta: E_KS(eV) =            -2959.6878

siesta: Atomic forces (eV/Ang):
     1    0.000001   -0.000003    0.000000
     2    0.000002   -0.000001    0.000000
     3   -0.187981    0.168248    0.364574
     4    0.187962   -0.168216   -0.364555
     5   -0.027342    0.316399   -0.107248
     6   -0.009477   -0.283482    0.178750
     7    0.277343   -0.248040   -0.537705
     8    0.027355   -0.316427    0.107254
     9    0.009500    0.283485   -0.178758
    10   -0.277316    0.248027    0.537692
----------------------------------------
   Tot    0.000047   -0.000009    0.000005
----------------------------------------
   Max    0.537705
   Res    0.237889    sqrt( Sum f_i^2 / 3N )
----------------------------------------
   Max    0.537705    constrained

Stress-tensor-Voigt (kbar):      153.09      173.48      206.23      -22.10       13.38      -27.78
(Free)E + p*V (eV/cell)    -2970.2329
Target enthalpy (eV/cell)    -2959.6878

siesta: Stress tensor (static) (eV/Ang**3):
         0.095550   -0.013541   -0.017455
        -0.013795    0.108278    0.008222
        -0.017338    0.008353    0.128720

siesta: Pressure (static):       -177.60203547  kBar

siesta: Stress tensor (total) (eV/Ang**3):
         0.095550   -0.013541   -0.017455
        -0.013795    0.108278    0.008222
        -0.017338    0.008353    0.128720

siesta: Pressure (total):       -177.60203547  kBar

cgvc: Finished line minimization    3.  Mean atomic displacement =    0.0212
Volume before coercion:      95.0853

* Maximum dynamic memory allocated =    13 MB

siesta:                 ==============================
                            Begin CG move =      9
                        ==============================

outcoor: Atomic coordinates (fractional):                   
    0.00000000   -0.00000002   -0.00000001   1       1  Mg
    0.50000000    0.49999999    0.50000000   1       2  Mg
    0.24902357    0.25000015    0.25097669   2       3  C
   -0.24902360   -0.25000015   -0.25097666   2       4  C
    0.54271545   -0.05265794    0.24732040   3       5  O
    0.25267969    0.55265728   -0.04271491   3       6  O
   -0.04352357    0.25000139    0.54352549   3       7  O
   -0.54271548    0.05265790   -0.24732033   3       8  O
   -0.25267962   -0.55265727    0.04271489   3       9  O
    0.04352375   -0.25000119   -0.54352540   3      10  O
 Kpoints in:           60 . Kpoints trimmed:           60

siesta: k-grid: Number of k-points =    60
siesta: k-grid: Cutoff (effective) =    11.197 Ang
siesta: k-grid: Supercell and displacements
siesta: k-grid:    5  -5   0      0.500
siesta: k-grid:    0  -5   5      0.000
siesta: k-grid:    4   0   0      0.000
Naive supercell factors:     4    4    4
Auxiliary supercell needs to be larger than naive one...

superc: Internal auxiliary supercell:     5 x     5 x     4  =     100
superc: Number of atoms, orbitals, and projectors:   1000   3400   8000

outcell: Unit cell vectors (Ang):
        5.598344   -0.058316    0.000738
        3.689548    4.248048   -0.057467
        3.566881    1.759362    3.940421

outcell: Cell vector modules (Ang)   :    5.598647    5.626898    5.598652
outcell: Cell angles (23,13,12) (deg):     49.6243     50.6629     49.6242
outcell: Cell volume (Ang**3)        :     95.1306
New_DM. Step:    10
Re-using DM from previous geometry...
Re-using DM without extrapolation (not allowed)
Density Matrix sparsity pattern changed.

InitMesh: MESH =    30 x    30 x    30 =       27000
InitMesh: Mesh cutoff (required, used) =   100.000   103.797 Ry

siesta: iscf   Eharris(eV)      E_KS(eV)   FreeEng(eV)   dDmax  Ef(eV)
siesta:    1    -2959.7240    -2960.1506    -2960.1506  0.0193 -4.1644
siesta:    2    -2959.7486    -2959.7029    -2959.7029  0.0337 -4.2335
siesta:    3    -2959.7289    -2959.7062    -2959.7062  0.0200 -4.2201
siesta:    4    -2959.7163    -2959.7089    -2959.7089  0.0040 -4.1981
siesta:    5    -2959.7160    -2959.7118    -2959.7118  0.0013 -4.1953
siesta:    6    -2959.7160    -2959.7122    -2959.7122  0.0012 -4.1951
Cycling the Broyden process...
siesta:    7    -2959.7160    -2959.7151    -2959.7151  0.0000 -4.1940

siesta: E_KS(eV) =            -2959.7157

siesta: Atomic forces (eV/Ang):
     1    0.000003    0.000001    0.000002
     2    0.000003   -0.000001    0.000002
     3    0.069258   -0.061944   -0.134234
     4   -0.069242    0.061942    0.134227
     5   -0.052657    0.061600   -0.107108
     6    0.088580   -0.093766    0.037417
     7   -0.031806    0.028763    0.062057
     8    0.052660   -0.061590    0.107098
     9   -0.088589    0.093775   -0.037412
    10    0.031847   -0.028722   -0.062037
----------------------------------------
   Tot    0.000058    0.000058    0.000013
----------------------------------------
   Max    0.134234
   Res    0.067536    sqrt( Sum f_i^2 / 3N )
----------------------------------------
   Max    0.134234    constrained

Stress-tensor-Voigt (kbar):      150.81      159.88      174.95      -10.61        5.54      -12.09
(Free)E + p*V (eV/cell)    -2969.3274
Target enthalpy (eV/cell)    -2959.7157

siesta: Stress tensor (static) (eV/Ang**3):
         0.094127   -0.006624   -0.007544
        -0.006624    0.099788    0.003456
        -0.007544    0.003457    0.109195

siesta: Pressure (static):       -161.88033634  kBar

siesta: Stress tensor (total) (eV/Ang**3):
         0.094127   -0.006624   -0.007544
        -0.006624    0.099788    0.003456
        -0.007544    0.003457    0.109195

siesta: Pressure (total):       -161.88033634  kBar
Volume before coercion:      95.0867

* Maximum dynamic memory allocated =    13 MB

siesta:                 ==============================
                            Begin CG move =     10
                        ==============================

outcoor: Atomic coordinates (fractional):                   
    0.00000000   -0.00000004   -0.00000002   1       1  Mg
    0.50000002    0.50000000    0.50000001   1       2  Mg
    0.24732447    0.25000048    0.25267607   2       3  C
   -0.24732467   -0.25000038   -0.25267595   2       4  C
    0.54219620   -0.05064304    0.24725385   3       5  O
    0.25274648    0.55064217   -0.04219532   3       6  O
   -0.04082945    0.25000224    0.54083277   3       7  O
   -0.54219611    0.05064289   -0.24725373   3       8  O
   -0.25274620   -0.55064200    0.04219540   3       9  O
    0.04082989   -0.25000197   -0.54083263   3      10  O
 Kpoints in:           60 . Kpoints trimmed:           60

siesta: k-grid: Number of k-points =    60
siesta: k-grid: Cutoff (effective) =    11.235 Ang
siesta: k-grid: Supercell and displacements
siesta: k-grid:    5  -5   0      0.500
siesta: k-grid:    0  -5   5      0.000
siesta: k-grid:    4   0   0      0.000
Naive supercell factors:     4    4    4
Auxiliary supercell needs to be larger than naive one...

superc: Internal auxiliary supercell:     5 x     5 x     4  =     100
superc: Number of atoms, orbitals, and projectors:   1000   3400   8000

outcell: Unit cell vectors (Ang):
        5.617221   -0.041447    0.022480
        3.714707    4.261785   -0.050831
        3.599560    1.763882    3.935399

outcell: Cell vector modules (Ang)   :    5.617419    5.653711    5.617426
outcell: Cell angles (23,13,12) (deg):     49.3515     50.1150     49.3514
outcell: Cell volume (Ang**3)        :     95.1306
New_DM. Step:    11
Re-using DM from previous geometry...
Re-using DM without extrapolation (not allowed)
Density Matrix sparsity pattern changed.

InitMesh: MESH =    30 x    30 x    30 =       27000
InitMesh: Mesh cutoff (required, used) =   100.000   102.571 Ry

siesta: iscf   Eharris(eV)      E_KS(eV)   FreeEng(eV)   dDmax  Ef(eV)
siesta:    1    -2959.7012    -2960.4192    -2960.4192  0.0314 -3.8983
siesta:    2    -2959.7592    -2959.6487    -2959.6487  0.0506 -4.0526
siesta:    3    -2959.7125    -2959.6569    -2959.6569  0.0312 -4.0215
siesta:    4    -2959.6816    -2959.6636    -2959.6636  0.0061 -3.9695
siesta:    5    -2959.6809    -2959.6700    -2959.6700  0.0024 -3.9647
siesta:    6    -2959.6809    -2959.6718    -2959.6718  0.0018 -3.9641
Cycling the Broyden process...
siesta:    7    -2959.6808    -2959.6790    -2959.6790  0.0001 -3.9624

siesta: E_KS(eV) =            -2959.6800

siesta: Atomic forces (eV/Ang):
     1    0.000007    0.000007    0.000009
     2    0.000004    0.000002    0.000002
     3    0.522000   -0.466953   -1.012716
     4   -0.521931    0.466905    1.012669
     5   -0.064139   -0.294138   -0.149156
     6    0.239685    0.136986   -0.191441
     7   -0.583794    0.522893    1.132804
     8    0.064117    0.294178    0.149152
     9   -0.239722   -0.137007    0.191439
    10    0.583814   -0.522800   -1.132778
----------------------------------------
   Tot    0.000040    0.000074   -0.000016
----------------------------------------
   Max    1.132804
   Res    0.492557    sqrt( Sum f_i^2 / 3N )
----------------------------------------
   Max    1.132804    constrained

Stress-tensor-Voigt (kbar):      147.11      144.93      124.87        7.78      -11.01       14.31
(Free)E + p*V (eV/cell)    -2967.9313
Target enthalpy (eV/cell)    -2959.6800

siesta: Stress tensor (static) (eV/Ang**3):
         0.091817    0.004860    0.008933
         0.004857    0.090459   -0.006874
         0.008934   -0.006873    0.077935

siesta: Pressure (static):       -138.96983324  kBar

siesta: Stress tensor (total) (eV/Ang**3):
         0.091817    0.004860    0.008933
         0.004857    0.090459   -0.006874
         0.008934   -0.006873    0.077935

siesta: Pressure (total):       -138.96983324  kBar
Volume before coercion:      95.0858

* Maximum dynamic memory allocated =    13 MB

outcoor: Final (unrelaxed) atomic coordinates (fractional): 
    0.00000000   -0.00000003   -0.00000001   1       1  Mg
    0.50000000    0.49999999    0.50000000   1       2  Mg
    0.24887696    0.25000017    0.25112333   2       3  C
   -0.24887699   -0.25000017   -0.25112330   2       4  C
    0.54267064   -0.05248407    0.24731466   3       5  O
    0.25268545    0.55248339   -0.04267007   3       6  O
   -0.04329109    0.25000146    0.54329313   3       7  O
   -0.54267066    0.05248402   -0.24731458   3       8  O
   -0.25268537   -0.55248337    0.04267006   3       9  O
    0.04329129   -0.25000126   -0.54329304   3      10  O

outcell: Unit cell vectors (Ang):
        5.599966   -0.056860    0.002615
        3.691715    4.249229   -0.056894
        3.569697    1.759750    3.939983

outcell: Cell vector modules (Ang)   :    5.600256    5.629205    5.600261
outcell: Cell angles (23,13,12) (deg):     49.6006     50.6155     49.6006
outcell: Cell volume (Ang**3)        :     95.1306

siesta: Program's energy decomposition (eV):
siesta: Ebs     =      -596.339753
siesta: Eions   =      5228.674091
siesta: Ena     =      1099.236360
siesta: Ekin    =      2242.706459
siesta: Enl     =      -348.389454
siesta: DEna    =       -35.174820
siesta: DUscf   =         6.533605
siesta: DUext   =         0.000000
siesta: Exc     =      -695.918038
siesta: eta*DQ  =         0.000000
siesta: Emadel  =         0.000000
siesta: Emeta   =         0.000000
siesta: Emolmec =         0.000000
siesta: Ekinion =         0.000000
siesta: Eharris =     -2959.680846
siesta: Etot    =     -2959.679979
siesta: FreeEng =     -2959.679979

siesta: Final energy (eV):
siesta:  Band Struct. =    -596.339753
siesta:       Kinetic =    2242.706459
siesta:       Hartree =     951.665327
siesta:    Ext. field =       0.000000
siesta:   Exch.-corr. =    -695.918038
siesta:  Ion-electron =   -3830.489485
siesta:       Ion-ion =   -1627.644242
siesta:       Ekinion =       0.000000
siesta:         Total =   -2959.679979

siesta: Atomic forces (eV/Ang):
siesta:      1    0.000007    0.000007    0.000009
siesta:      2    0.000004    0.000002    0.000002
siesta:      3    0.522000   -0.466953   -1.012716
siesta:      4   -0.521931    0.466905    1.012669
siesta:      5   -0.064139   -0.294138   -0.149156
siesta:      6    0.239685    0.136986   -0.191441
siesta:      7   -0.583794    0.522893    1.132804
siesta:      8    0.064117    0.294178    0.149152
siesta:      9   -0.239722   -0.137007    0.191439
siesta:     10    0.583814   -0.522800   -1.132778
siesta: ----------------------------------------
siesta:    Tot    0.000040    0.000074   -0.000016

siesta: Stress tensor (static) (eV/Ang**3):
siesta:     0.091817    0.004860    0.008933
siesta:     0.004857    0.090459   -0.006874
siesta:     0.008934   -0.006873    0.077935

siesta: Constrained stress tensor (static) (eV/Ang**3):
siesta:     0.091817    0.004859    0.008933
siesta:     0.004859    0.090459   -0.006873
siesta:     0.008933   -0.006873    0.077935

siesta: Cell volume =         95.130619 Ang**3

siesta: Pressure (static):
siesta:                Solid            Molecule  Units
siesta:          -0.00094468         -0.00114205  Ry/Bohr**3
siesta:          -0.08673721         -0.10485871  eV/Ang**3
siesta:        -138.96983324       -168.00399094  kBar
(Free)E+ p_basis*V_orbitals  =       -2958.485682
(Free)Eharris+ p_basis*V_orbitals  =       -2958.487554

* Maximum dynamic memory allocated : Node    0 =    13 MB

* Maximum memory occured during poison                        

timer: CPU execution times:
timer:  Routine       Calls   Time/call    Tot.time        %
timer:  siesta            1      40.450      40.450   100.00
timer:  Setup             1       0.465       0.465     1.15
timer:  bands             1       0.000       0.000     0.00
timer:  writewave         1       0.001       0.001     0.00
timer:  KSV_init          1       0.000       0.000     0.00
timer:  IterMD           11       3.633      39.963    98.80
timer:  hsparse          11       0.039       0.425     1.05
timer:  overlap          11       0.009       0.096     0.24
timer:  IterSCF          81       0.398      32.271    79.78
timer:  kinefsm          22       0.006       0.132     0.33
timer:  nlefsm           22       0.185       4.067    10.05
timer:  DHSCF            92       0.187      17.182    42.48
timer:  DHSCF1           11       0.063       0.694     1.72
timer:  DHSCF2           11       0.462       5.085    12.57
timer:  REORD           574       0.000       0.044     0.11
timer:  POISON          103       0.003       0.335     0.83
timer:  DHSCF3           92       0.091       8.333    20.60
timer:  rhoofd           92       0.036       3.334     8.24
timer:  cellXC           92       0.013       1.236     3.06
timer:  vmat             92       0.036       3.357     8.30
timer:  MolMec           22       0.000       0.000     0.00
timer:  diagon           81       0.205      16.602    41.04
timer:  c-eigval       4878       0.001       3.762     9.30
timer:  c-buildHS      4878       0.000       1.778     4.39
timer:  cdiag          9756       0.001       6.103    15.09
timer:  cdiag1         9756       0.000       0.301     0.74
timer:  cdiag2         9756       0.000       1.131     2.80
timer:  cdiag3         9756       0.000       4.214    10.42
timer:  cdiag4         9756       0.000       0.291     0.72
timer:  c-eigvec       4878       0.001       5.896    14.58
timer:  c-buildD       4878       0.001       6.779    16.76
timer:  DHSCF4           11       0.278       3.053     7.55
timer:  dfscf            11       0.160       1.764     4.36
timer:  overfsm          11       0.004       0.045     0.11
timer:  optical           1       0.000       0.000     0.00
  

elaps: ELAPSED times:
elaps:  Routine       Calls   Time/call    Tot.time        %
elaps:  siesta            1      40.545      40.545   100.00
elaps:  Setup             1       0.466       0.466     1.15
elaps:  bands             1       0.000       0.000     0.00
elaps:  writewave         1       0.001       0.001     0.00
elaps:  KSV_init          1       0.000       0.000     0.00
elaps:  IterMD           11       3.642      40.057    98.80
elaps:  hsparse          11       0.039       0.425     1.05
elaps:  overlap          11       0.009       0.096     0.24
elaps:  IterSCF          81       0.399      32.324    79.72
elaps:  kinefsm          22       0.006       0.132     0.33
elaps:  nlefsm           22       0.185       4.073    10.05
elaps:  DHSCF            92       0.187      17.244    42.53
elaps:  DHSCF1           11       0.063       0.695     1.71
elaps:  DHSCF2           11       0.464       5.103    12.59
elaps:  REORD           574       0.000       0.044     0.11
elaps:  POISON          103       0.003       0.336     0.83
elaps:  DHSCF3           92       0.091       8.342    20.57
elaps:  rhoofd           92       0.036       3.338     8.23
elaps:  cellXC           92       0.013       1.238     3.05
elaps:  vmat             92       0.037       3.360     8.29
elaps:  MolMec           22       0.000       0.000     0.00
elaps:  diagon           81       0.205      16.625    41.00
elaps:  c-eigval       4878       0.001       3.767     9.29
elaps:  c-buildHS      4878       0.000       1.784     4.40
elaps:  cdiag          9756       0.001       6.115    15.08
elaps:  cdiag1         9756       0.000       0.302     0.74
elaps:  cdiag2         9756       0.000       1.136     2.80
elaps:  cdiag3         9756       0.000       4.227    10.43
elaps:  cdiag4         9756       0.000       0.291     0.72
elaps:  c-eigvec       4878       0.001       5.900    14.55
elaps:  c-buildD       4878       0.001       6.784    16.73
elaps:  DHSCF4           11       0.281       3.088     7.62
elaps:  dfscf            11       0.164       1.799     4.44
elaps:  overfsm          11       0.004       0.045     0.11
elaps:  optical           1       0.000       0.000     0.00
  
>> End of run:  10-JUN-2011  14:27:28
