Siesta Version: siesta@uam.es--2006/siesta-devel--reference--2.1--patch-34
Architecture  : intel9 with Siesta libs
Compiler flags: ifort -w -O2 -mp
SERIAL version

* Running in serial mode
>> Start of run:  25-JAN-2007  17:40:53

                           ***********************       
                           *  WELCOME TO SIESTA  *       
                           ***********************       

reinit: Reading from standard input
************************** Dump of input data file ****************************
#
# MgCO3 in primitive cell. SZ. Variable cell -- constant volume
#
SystemName	MgCo3 R-3c test -- SZ, 100 R
SystemLabel	constant_volume
NumberOfSpecies		3
NumberOfAtoms	       10
%block ChemicalSpeciesLabel
      1      12     Mg
      2       6     C
      3       8     O
%endblock ChemicalSpeciesLabel
PAO.BasisSize  SZ
# Rhombohedral primitive cell
# (HEX 3-fold cell had A=4.635 and C=15.023, so alpha=48.179 degrees
#  and a=5.67783 Ang)
LatticeConstant     5.67783 Ang
%block LatticeParameters
1.0 1.0 1.0 48.179 50.179 48.179
%endblock LatticeParameters
AtomicCoordinatesFormat    Fractional
%block AtomicCoordinatesAndAtomicSpecies
  0.0         0.0         0.0      1
  0.5         0.5         0.5      1
  0.25        0.25        0.25     2
 -0.25       -0.25       -0.25     2
  0.5274     -0.0274      0.25     3
  0.25        0.5274     -0.0274   3
 -0.0274      0.25        0.5274   3
 -0.5274      0.0274     -0.25     3
 -0.25       -0.5274      0.0274   3
  0.0274     -0.25       -0.5274   3
%endblock AtomicCoordinatesAndAtomicSpecies
kgrid_cutoff 10.0 Ang
Solution.Method       diagon
MeshCutoff             100 Ry
DM.NumberBroyden       4
DM.UseSaveDM           T
DM.MixingWeight        0.1         # New DM amount for next SCF cycle
DM.Tolerance           1.d-3       # Tolerance in maximum difference
                                   # between input and output DM
MaxSCFIterations       20
WriteCoorStep      .true.
WriteForces        .true.
#
#  Note "variable cell with constant volume" keywords
#
MD.TypeOfRun         CG
MD.Variable-Cell      T
MD.constant-volume   T
MD.Target-pressure   0.0 GPa
MD.Num-CG-steps	     10
************************** End of input data file *****************************

reinit: -----------------------------------------------------------------------
reinit: System Name: MgCo3 R-3c test -- SZ, 100 R                               
reinit: -----------------------------------------------------------------------
reinit: System Label: constant_volume                                             
reinit: -----------------------------------------------------------------------

initatom: Reading input for the pseudopotentials and atomic orbitals ----------
 Species number:            1  Label: Mg Atomic number:          12
 Species number:            2  Label: C Atomic number:           6
 Species number:            3  Label: O Atomic number:           8
Ground state valence configuration:   3s02
Reading pseudopotential information in formatted form from Mg.psf

Valence configuration for pseudopotential generation:
3s( 2.00) rc: 2.59
3p( 0.00) rc: 2.59
3d( 0.00) rc: 2.59
4f( 0.00) rc: 2.59
Dumping pseudopotential information in formatted form in Mg.psdump
Ground state valence configuration:   2s02  2p02
Reading pseudopotential information in formatted form from C.psf

Valence configuration for pseudopotential generation:
2s( 2.00) rc: 1.49
2p( 2.00) rc: 1.52
3d( 0.00) rc: 1.58
Dumping pseudopotential information in formatted form in C.psdump
Ground state valence configuration:   2s02  2p04
Reading pseudopotential information in formatted form from O.psf

Valence configuration for pseudopotential generation:
2s( 2.00) rc: 1.14
2p( 4.00) rc: 1.14
3d( 0.00) rc: 1.14
4f( 0.00) rc: 1.14
Dumping pseudopotential information in formatted form in O.psdump
For Mg, standard SIESTA heuristics set lmxkb to 1
 (one more than the basis l, including polarization orbitals).
Use PS.lmax or PS.KBprojectors blocks to override.
For C, standard SIESTA heuristics set lmxkb to 2
 (one more than the basis l, including polarization orbitals).
Use PS.lmax or PS.KBprojectors blocks to override.
For O, standard SIESTA heuristics set lmxkb to 2
 (one more than the basis l, including polarization orbitals).
Use PS.lmax or PS.KBprojectors blocks to override.

<basis_specs>
===============================================================================
Mg                   Z=  12    Mass=  24.310        Charge= 0.17977+309
Lmxo=0 Lmxkb=1     BasisType=split      Semic=F
L=0  Nsemic=0  Cnfigmx=3
          n=1  nzeta=1  polorb=0
            splnorm:   0.15000    
               vcte:    0.0000    
               rinn:    0.0000    
                rcs:    0.0000    
            lambdas:    1.0000    
-------------------------------------------------------------------------------
L=0  Nkbl=1  erefs: 0.17977+309
L=1  Nkbl=1  erefs: 0.17977+309
===============================================================================
</basis_specs>

atom: Called for Mg                    (Z =  12)

read_vps: Pseudopotential generation method:
read_vps: ATM3      Troullier-Martins                       
Total valence charge:    2.00000

xc_check: Exchange-correlation functional:
xc_check: Ceperley-Alder
V l=0 = -2*Zval/r beyond r=  3.5878
V l=1 = -2*Zval/r beyond r=  3.5878
All V_l potentials equal beyond r=  2.5600
This should be close to max(r_c) in ps generation
All pots = -2*Zval/r beyond r=  3.5878
Using large-core scheme for Vlocal

atom: Estimated core radius    3.58779

atom: Including non-local core corrections could be a good idea
atom: Maximum radius for 4*pi*r*r*local-pseudopot. charge    3.91588
atom: Maximum radius for r*vlocal+2*Zval:    3.63292
GHOST: No ghost state for L =  0
GHOST: No ghost state for L =  1

KBgen: Kleinman-Bylander projectors: 
   l= 0   rc=  2.657845   el= -0.351328   Ekb=  2.184400   kbcos=  0.257081
   l= 1   rc=  2.657845   el= -0.101748   Ekb=  0.525536   kbcos=  0.270508

KBgen: Total number of  Kleinman-Bylander projectors:    4
atom: -------------------------------------------------------------------------

atom: SANKEY-TYPE ORBITALS:

SPLIT: Orbitals with angular momentum L= 0

SPLIT: Basis orbitals for state 3s

SPLIT: PAO cut-off radius determined from an
SPLIT: energy shift=  0.020000 Ry

   izeta = 1
                 lambda =    1.000000
                     rc =    6.619780
                 energy =   -0.332103
                kinetic =    0.289627
    potential(screened) =   -0.621729
       potential(ionic) =   -1.387191
atom: Total number of Sankey-type orbitals:  1

atm_pop: Valence configuration (for local Pseudopot. screening):
 3s( 2.00)                                                            
Vna: chval, zval:    2.00000   2.00000

Vna:  Cut-off radius for the neutral-atom potential:   6.619780

atom: _________________________________________________________________________

<basis_specs>
===============================================================================
C                    Z=   6    Mass=  12.010        Charge= 0.17977+309
Lmxo=1 Lmxkb=2     BasisType=split      Semic=F
L=0  Nsemic=0  Cnfigmx=2
          n=1  nzeta=1  polorb=0
            splnorm:   0.15000    
               vcte:    0.0000    
               rinn:    0.0000    
                rcs:    0.0000    
            lambdas:    1.0000    
L=1  Nsemic=0  Cnfigmx=2
          n=1  nzeta=1  polorb=0
            splnorm:   0.15000    
               vcte:    0.0000    
               rinn:    0.0000    
                rcs:    0.0000    
            lambdas:    1.0000    
-------------------------------------------------------------------------------
L=0  Nkbl=1  erefs: 0.17977+309
L=1  Nkbl=1  erefs: 0.17977+309
L=2  Nkbl=1  erefs: 0.17977+309
===============================================================================
</basis_specs>

atom: Called for C                     (Z =   6)

read_vps: Pseudopotential generation method:
read_vps: ATM3      Troullier-Martins                       
Total valence charge:    4.00000

xc_check: Exchange-correlation functional:
xc_check: Ceperley-Alder
V l=0 = -2*Zval/r beyond r=  1.4666
V l=1 = -2*Zval/r beyond r=  1.5038
V l=2 = -2*Zval/r beyond r=  1.5612
All V_l potentials equal beyond r=  1.5612
This should be close to max(r_c) in ps generation
All pots = -2*Zval/r beyond r=  1.5612

VLOCAL1: 99.0% of the norm of Vloc inside     17.809 Ry
VLOCAL1: 99.9% of the norm of Vloc inside     40.586 Ry
atom: Maximum radius for 4*pi*r*r*local-pseudopot. charge    1.88329
atom: Maximum radius for r*vlocal+2*Zval:    1.62091
GHOST: No ghost state for L =  0
GHOST: No ghost state for L =  1
GHOST: No ghost state for L =  2

KBgen: Kleinman-Bylander projectors: 
   l= 0   rc=  1.747182   el= -1.001947   Ekb=  5.181700   kbcos=  0.300603
   l= 1   rc=  1.747182   el= -0.398598   Ekb= -4.328763   kbcos= -0.367074
   l= 2   rc=  1.955272   el=  0.002326   Ekb= -1.016175   kbcos= -0.009979

KBgen: Total number of  Kleinman-Bylander projectors:    9
atom: -------------------------------------------------------------------------

atom: SANKEY-TYPE ORBITALS:

SPLIT: Orbitals with angular momentum L= 0

SPLIT: Basis orbitals for state 2s

SPLIT: PAO cut-off radius determined from an
SPLIT: energy shift=  0.020000 Ry

   izeta = 1
                 lambda =    1.000000
                     rc =    4.191849
                 energy =   -0.983897
                kinetic =    0.886956
    potential(screened) =   -1.870853
       potential(ionic) =   -5.479661

SPLIT: Orbitals with angular momentum L= 1

SPLIT: Basis orbitals for state 2p

SPLIT: PAO cut-off radius determined from an
SPLIT: energy shift=  0.020000 Ry

   izeta = 1
                 lambda =    1.000000
                     rc =    4.870301
                 energy =   -0.379093
                kinetic =    2.545357
    potential(screened) =   -2.924450
       potential(ionic) =   -6.433151
atom: Total number of Sankey-type orbitals:  4

atm_pop: Valence configuration (for local Pseudopot. screening):
 2s( 2.00)                                                            
 2p( 2.00)                                                            
Vna: chval, zval:    4.00000   4.00000

Vna:  Cut-off radius for the neutral-atom potential:   4.870301

atom: _________________________________________________________________________

<basis_specs>
===============================================================================
O                    Z=   8    Mass=  16.000        Charge= 0.17977+309
Lmxo=1 Lmxkb=2     BasisType=split      Semic=F
L=0  Nsemic=0  Cnfigmx=2
          n=1  nzeta=1  polorb=0
            splnorm:   0.15000    
               vcte:    0.0000    
               rinn:    0.0000    
                rcs:    0.0000    
            lambdas:    1.0000    
L=1  Nsemic=0  Cnfigmx=2
          n=1  nzeta=1  polorb=0
            splnorm:   0.15000    
               vcte:    0.0000    
               rinn:    0.0000    
                rcs:    0.0000    
            lambdas:    1.0000    
-------------------------------------------------------------------------------
L=0  Nkbl=1  erefs: 0.17977+309
L=1  Nkbl=1  erefs: 0.17977+309
L=2  Nkbl=1  erefs: 0.17977+309
===============================================================================
</basis_specs>

atom: Called for O                     (Z =   8)

read_vps: Pseudopotential generation method:
read_vps: ATM3      Troullier-Martins                       
Total valence charge:    6.00000

xc_check: Exchange-correlation functional:
xc_check: Ceperley-Alder
V l=0 = -2*Zval/r beyond r=  1.1278
V l=1 = -2*Zval/r beyond r=  1.1278
V l=2 = -2*Zval/r beyond r=  1.1278
All V_l potentials equal beyond r=  1.1278
This should be close to max(r_c) in ps generation
All pots = -2*Zval/r beyond r=  1.1278

VLOCAL1: 99.0% of the norm of Vloc inside     34.126 Ry
VLOCAL1: 99.9% of the norm of Vloc inside     77.774 Ry
atom: Maximum radius for 4*pi*r*r*local-pseudopot. charge    1.37759
atom: Maximum radius for r*vlocal+2*Zval:    1.18566
GHOST: No ghost state for L =  0
GHOST: No ghost state for L =  1
GHOST: No ghost state for L =  2

KBgen: Kleinman-Bylander projectors: 
   l= 0   rc=  1.294105   el= -1.742414   Ekb=  9.135903   kbcos=  0.326910
   l= 1   rc=  1.294105   el= -0.676589   Ekb= -8.124878   kbcos= -0.395047
   l= 2   rc=  1.448233   el=  0.002386   Ekb= -2.039267   kbcos= -0.003484

KBgen: Total number of  Kleinman-Bylander projectors:    9
atom: -------------------------------------------------------------------------

atom: SANKEY-TYPE ORBITALS:

SPLIT: Orbitals with angular momentum L= 0

SPLIT: Basis orbitals for state 2s

SPLIT: PAO cut-off radius determined from an
SPLIT: energy shift=  0.020000 Ry

   izeta = 1
                 lambda =    1.000000
                     rc =    3.305093
                 energy =   -1.723766
                kinetic =    1.614911
    potential(screened) =   -3.338677
       potential(ionic) =  -11.304675

SPLIT: Orbitals with angular momentum L= 1

SPLIT: Basis orbitals for state 2p

SPLIT: PAO cut-off radius determined from an
SPLIT: energy shift=  0.020000 Ry

   izeta = 1
                 lambda =    1.000000
                     rc =    3.937239
                 energy =   -0.658841
                kinetic =    5.005986
    potential(screened) =   -5.664827
       potential(ionic) =  -13.452360
atom: Total number of Sankey-type orbitals:  4

atm_pop: Valence configuration (for local Pseudopot. screening):
 2s( 2.00)                                                            
 2p( 4.00)                                                            
Vna: chval, zval:    6.00000   6.00000

Vna:  Cut-off radius for the neutral-atom potential:   3.937239

atom: _________________________________________________________________________

prinput: Basis input ----------------------------------------------------------

PAO.BasisType split     

%block ChemicalSpeciesLabel
    1   12 Mg                      # Species index, atomic number, species label
    2    6 C                       # Species index, atomic number, species label
    3    8 O                       # Species index, atomic number, species label
%endblock ChemicalSpeciesLabel

%block PAO.Basis                 # Define Basis set
Mg                    1                    # Species label, number of l-shells
 n=3   0   1                         # n, l, Nzeta 
   6.620   
   1.000   
C                     2                    # Species label, number of l-shells
 n=2   0   1                         # n, l, Nzeta 
   4.192   
   1.000   
 n=2   1   1                         # n, l, Nzeta 
   4.870   
   1.000   
O                     2                    # Species label, number of l-shells
 n=2   0   1                         # n, l, Nzeta 
   3.305   
   1.000   
 n=2   1   1                         # n, l, Nzeta 
   3.937   
   1.000   
%endblock PAO.Basis

prinput: ----------------------------------------------------------------------


siesta: ******************** Simulation parameters ****************************
siesta:
siesta: The following are some of the parameters of the simulation.
siesta: A complete list of the parameters used, including default values,
siesta: can be found in file out.fdf
siesta:
coor:   Atomic-coordinates input format  =     Fractional
redata: Number of spin components        =     1
redata: Long output                      =     F
redata: Number of Atomic Species         =     3
redata: Charge density info will appear in .RHO file
redata: Write Mulliken Pop.              =     NO
redata: Mesh Cutoff                      =   100.0000  Ry
redata: Net charge of the system         =     0.0000 |e|
redata: Max. number of SCF Iter          =    20
redata: Broyden mixing with     4 saved histories.
redata: Mix DM in first SCF step ?       =     F
redata: Write Pulay info on disk?        =     F
redata: New DM Mixing Weight             =     0.1000
redata: New DM Occupancy tolerance       = 0.000000000001
redata: No kicks to SCF
redata: DM Mixing Weight for Kicks       =     0.5000
redata: DM Tolerance for SCF             =     0.001000
redata: Require Energy convergence for SCF =     F
redata: DM Energy tolerance for SCF      =     0.000100 eV
redata: Using Saved Data (generic)   =     F
redata: Use continuation files for DM    =     T
redata: Neglect nonoverlap interactions  =     F
redata: Method of Calculation            =     Diagonalization
redata: Divide and Conquer               =     T
redata: Electronic Temperature           =     0.0019  Ry
redata: Fix the spin of the system       =     F
redata: Dynamics option                  =     CG coord. optimization
redata: Variable cell                    =     T
redata: Use continuation files for CG    =     F
redata: Max atomic displ per move        =     0.2000  Bohr
redata: Maximum number of CG moves       =    10
redata: Force tolerance                  =     0.0016  Ry/Bohr
redata: Stress tolerance                 =     1.0000  GPa
redata: ***********************************************************************

siesta: Atomic coordinates (Bohr) and species
siesta:      0.00000   0.00000   0.00000  1        1
siesta:     12.37759   5.72419   3.74139  1        2
siesta:      6.18879   2.86210   1.87070  2        3
siesta:     -6.18879  -2.86210  -1.87070  2        4
siesta:      7.18051   0.64401   1.87070  3        5
siesta:      6.26741   4.12249  -0.20503  3        6
siesta:      5.11846   3.81979   3.94642  3        7
siesta:     -7.18051  -0.64401  -1.87070  3        8
siesta:     -6.26741  -4.12249   0.20503  3        9
siesta:     -5.11846  -3.81979  -3.94642  3       10

initatomlists: Number of atoms, orbitals, and projectors:     10    34    80
Total number of electrons:    48.000000
Total ionic charge:    48.000000

siesta: System type = bulk      

siesta: k-grid: Number of k-points =   100
siesta: k-grid: Cutoff (effective) =    11.356 Ang
siesta: k-grid: Supercell and displacements
siesta: k-grid:    5  -5   0      0.500
siesta: k-grid:    0  -5   5      0.000
siesta: k-grid:    0   0   4      0.000
Naive supercell factors:     4    4    4
Auxiliary supercell needs to be larger than naive one...

superc: Internal auxiliary supercell:     5 x     5 x     4  =     100
superc: Number of atoms, orbitals, and projectors:   1000  3400  8000

* Maximum dynamic memory allocated =     1 MB

siesta:                 ==============================
                            Begin CG move =      0
                        ==============================

outcoor: Atomic coordinates (fractional):                   
    0.00000000    0.00000000    0.00000000   1       1  Mg
    0.50000000    0.50000000    0.50000000   1       2  Mg
    0.25000000    0.25000000    0.25000000   2       3  C
   -0.25000000   -0.25000000   -0.25000000   2       4  C
    0.52740000   -0.02740000    0.25000000   3       5  O
    0.25000000    0.52740000   -0.02740000   3       6  O
   -0.02740000    0.25000000    0.52740000   3       7  O
   -0.52740000    0.02740000   -0.25000000   3       8  O
   -0.25000000   -0.52740000    0.02740000   3       9  O
    0.02740000   -0.25000000   -0.52740000   3      10  O

superc: Internal auxiliary supercell:     5 x     5 x     4  =     100
superc: Number of atoms, orbitals, and projectors:   1000  3400  8000

outcell: Unit cell vectors (Ang):
        5.677830    0.000000    0.000000
        3.786009    4.231299    0.000000
        3.636033    1.826925    3.959718

outcell: Cell vector modules (Ang)   :    5.677830    5.677830    5.677830
outcell: Cell angles (23,13,12) (deg):     48.1790     50.1790     48.1790
outcell: Cell volume (Ang**3)        :     95.1306

InitMesh: MESH =    32 x    32 x    32 =       32768
InitMesh: Mesh cutoff (required, used) =   100.000   113.739 Ry

* Maximum dynamic memory allocated =    12 MB

stepf: Fermi-Dirac step function
 Broyden: No of relevant DM elements:         9718
 maxit for broyden:            4
 cycle on maxit:  T
 variable weight:  T
 initial alpha:   0.100000000000000     

siesta: Program's energy decomposition (eV):
siesta: Eions   =      5228.674091
siesta: Ena     =      1094.137208
siesta: Ekin    =      2100.835149
siesta: Enl     =      -258.862835
siesta: DEna    =        -0.000019
siesta: DUscf   =         0.000000
siesta: DUext   =         0.000000
siesta: Exc     =      -682.142452
siesta: eta*DQ  =         0.000000
siesta: Emadel  =         0.000000
siesta: Emeta   =         0.000000
siesta: Emolmec =         0.000000
siesta: Ekinion =         0.000000
siesta: Eharris =     -2966.454854
siesta: Etot    =     -2974.707041
siesta: FreeEng =     -2974.707041

siesta: iscf   Eharris(eV)      E_KS(eV)   FreeEng(eV)   dDmax  Ef(eV)
siesta:    1    -2966.4549    -2974.7070    -2974.7070  1.7486 -2.8753
timer: Routine,Calls,Time,% = IterSCF        1       3.359  70.60
elaps: Routine,Calls,Wall,% = IterSCF        1       3.359  70.60
siesta:    2    -2967.9627    -2949.8931    -2949.8931  0.8244 -2.0897
siesta:    3    -2963.9013    -2951.4716    -2951.4716  0.6368 -1.9635
siesta:    4    -2957.8626    -2954.2194    -2954.2194  0.0536 -2.7334
siesta:    5    -2957.8282    -2954.7987    -2954.7987  0.0397 -2.7470
siesta:    6    -2957.8195    -2956.0870    -2956.0870  0.0238 -2.8238
Cycling the Broyden process...
siesta:    7    -2957.8156    -2957.7337    -2957.7337  0.0054 -2.8862
Cycling the Broyden process...
siesta:    8    -2957.8151    -2957.5800    -2957.5800  0.0035 -2.8781
Cycling the Broyden process...
siesta:    9    -2957.8151    -2957.8031    -2957.8031  0.0002 -2.8743

siesta: E_KS(eV) =            -2957.8114

siesta: E_KS - E_eggbox =     -2957.8114

siesta: Atomic forces (eV/Ang):
     1    0.000000    0.000000    0.000000
     2   -0.000016    0.000004    0.000008
     3   -1.138473    1.018587    2.207645
     4    1.138444   -1.018442   -2.207576
     5    2.893488   -7.217990    0.547150
     6    0.087948    4.550269   -6.329098
     7   -1.878668    1.680985    3.643349
     8   -2.893490    7.217986   -0.547143
     9   -0.087952   -4.550270    6.329093
    10    1.878662   -1.680975   -3.643362
----------------------------------------
   Tot   -0.000057    0.000154    0.000066
----------------------------------------
   Max    7.217990
   Res    3.145126    sqrt( Sum f_i^2 / 3N )
----------------------------------------
   Max    7.217990    constrained

Stress-tensor-Voigt (kbar):      118.98     -203.33     -122.76      139.76      126.40       40.99
Target enthalpy (eV/cell)    -2957.8114

siesta: Stress tensor (static) (eV/Ang**3):
         0.074258    0.087233    0.025585
         0.087233   -0.126907    0.078889
         0.025585    0.078889   -0.076620

siesta: Pressure (static):         69.03835386  kBar

siesta: Stress tensor (total) (eV/Ang**3):
         0.074258    0.087233    0.025585
         0.087233   -0.126907    0.078889
         0.025585    0.078889   -0.076620

siesta: Pressure (total):         69.03835386  kBar

cgvc: No target stress found, assuming hydrostatic MD.TargetPressure.
***Target stress set to zero for constant-volume calculation

cgvc: Target stress (kBar)
cgvc:         0.000       0.000       0.000
cgvc:         0.000       0.000       0.000
cgvc:         0.000       0.000       0.000
Volume before coercion:      95.1272

* Maximum dynamic memory allocated =    12 MB

siesta:                 ==============================
                            Begin CG move =      1
                        ==============================

outcoor: Atomic coordinates (fractional):                   
    0.00000000    0.00000000    0.00000000   1       1  Mg
    0.49999997    0.49999999    0.49999999   1       2  Mg
    0.24800896    0.24999990    0.25199072   2       3  C
   -0.24800901   -0.24999974   -0.25199058   2       4  C
    0.53246033   -0.03343304    0.24984619   3       5  O
    0.25015381    0.53343299   -0.03246031   3       6  O
   -0.03068555    0.25000003    0.53068555   3       7  O
   -0.53246034    0.03343303   -0.24984619   3       8  O
   -0.25015382   -0.53343299    0.03246030   3       9  O
    0.03068553   -0.25000002   -0.53068557   3      10  O

siesta: k-grid: Number of k-points =    60
siesta: k-grid: Cutoff (effective) =    11.306 Ang
siesta: k-grid: Supercell and displacements
siesta: k-grid:    5  -5   0      0.500
siesta: k-grid:    0  -5   5      0.000
siesta: k-grid:    4   0   0      0.000
Naive supercell factors:     4    4    4
Auxiliary supercell needs to be larger than naive one...

superc: Internal auxiliary supercell:     5 x     5 x     4  =     100
superc: Number of atoms, orbitals, and projectors:   1000  3400  8000

outcell: Unit cell vectors (Ang):
        5.652723   -0.018715   -0.005489
        3.755321    4.232272   -0.016273
        3.610105    1.808944    3.955822

outcell: Cell vector modules (Ang)   :    5.652757    5.658164    5.652757
outcell: Cell angles (23,13,12) (deg):     48.6069     50.4388     48.6069
outcell: Cell volume (Ang**3)        :     95.1306

InitMesh: MESH =    30 x    30 x    30 =       27000
InitMesh: Mesh cutoff (required, used) =   100.000   101.217 Ry

siesta: iscf   Eharris(eV)      E_KS(eV)   FreeEng(eV)   dDmax  Ef(eV)
siesta:    1    -2958.6905    -2956.6871    -2956.6871  0.0653 -3.4373
siesta:    2    -2958.7421    -2958.5809    -2958.5809  0.0682 -3.2182
siesta:    3    -2958.6942    -2958.5943    -2958.5943  0.0519 -3.2439
siesta:    4    -2958.6434    -2958.6117    -2958.6117  0.0081 -3.3021
siesta:    5    -2958.6420    -2958.6234    -2958.6234  0.0043 -3.3163
siesta:    6    -2958.6418    -2958.6248    -2958.6248  0.0019 -3.3190
Cycling the Broyden process...
siesta:    7    -2958.6418    -2958.6383    -2958.6383  0.0001 -3.3230

siesta: E_KS(eV) =            -2958.6388

siesta: Atomic forces (eV/Ang):
     1   -0.000021   -0.000008   -0.000005
     2    0.000023    0.000008    0.000003
     3   -0.310437    0.277800    0.602060
     4    0.310447   -0.277838   -0.602076
     5    1.677528   -4.591949    0.376719
     6    0.140507    2.965188   -3.902489
     7   -1.597445    1.429348    3.097940
     8   -1.677536    4.591970   -0.376705
     9   -0.140517   -2.965171    3.902494
    10    1.597432   -1.429334   -3.097934
----------------------------------------
   Tot   -0.000019    0.000014    0.000005
----------------------------------------
   Max    4.591970
   Res    2.046325    sqrt( Sum f_i^2 / 3N )
----------------------------------------
   Max    4.591970    constrained

Stress-tensor-Voigt (kbar):      144.59      -75.25      -34.72      100.34       78.14       37.56
Target enthalpy (eV/cell)    -2958.6388

siesta: Stress tensor (static) (eV/Ang**3):
         0.090245    0.062628    0.023441
         0.062629   -0.046966    0.048771
         0.023440    0.048771   -0.021670

siesta: Pressure (static):        -11.54045171  kBar

siesta: Stress tensor (total) (eV/Ang**3):
         0.090245    0.062628    0.023441
         0.062629   -0.046966    0.048771
         0.023440    0.048771   -0.021670

siesta: Pressure (total):        -11.54045171  kBar
Volume before coercion:      95.1072

* Maximum dynamic memory allocated =    12 MB

siesta:                 ==============================
                            Begin CG move =      2
                        ==============================

outcoor: Atomic coordinates (fractional):                   
    0.00000000    0.00000000    0.00000000   1       1  Mg
    0.49999993    0.49999996    0.49999999   1       2  Mg
    0.24482329    0.24999974    0.25517587   2       3  C
   -0.24482342   -0.24999934   -0.25517552   2       4  C
    0.54055687   -0.04308591    0.24960010   3       5  O
    0.25039990    0.54308576   -0.04055681   3       6  O
   -0.03594242    0.25000008    0.53594243   3       7  O
   -0.54055688    0.04308589   -0.24960009   3       8  O
   -0.25039992   -0.54308578    0.04055679   3       9  O
    0.03594239   -0.25000006   -0.53594247   3      10  O

siesta: k-grid: Number of k-points =    60
siesta: k-grid: Cutoff (effective) =    11.226 Ang
siesta: k-grid: Supercell and displacements
siesta: k-grid:    5  -5   0      0.500
siesta: k-grid:    0  -5   5      0.000
siesta: k-grid:    4   0   0      0.000
Naive supercell factors:     4    4    4
Auxiliary supercell needs to be larger than naive one...

superc: Internal auxiliary supercell:     5 x     5 x     4  =     100
superc: Number of atoms, orbitals, and projectors:   1000  3400  8000

outcell: Unit cell vectors (Ang):
        5.612834   -0.048662   -0.014272
        3.706405    4.234042   -0.042313
        3.568798    1.780265    3.949787

outcell: Cell vector modules (Ang)   :    5.613063    5.627285    5.613064
outcell: Cell angles (23,13,12) (deg):     49.2985     50.8585     49.2985
outcell: Cell volume (Ang**3)        :     95.1306

InitMesh: MESH =    30 x    30 x    30 =       27000
InitMesh: Mesh cutoff (required, used) =   100.000   103.259 Ry

siesta: iscf   Eharris(eV)      E_KS(eV)   FreeEng(eV)   dDmax  Ef(eV)
siesta:    1    -2959.5757    -2956.6506    -2956.6506  0.1083 -3.8039
siesta:    2    -2959.7726    -2959.2562    -2959.2562  0.1198 -3.6141
siesta:    3    -2959.6120    -2959.2987    -2959.2987  0.0902 -3.6181
siesta:    4    -2959.4456    -2959.3494    -2959.3494  0.0107 -3.6382
siesta:    5    -2959.4434    -2959.3753    -2959.3753  0.0084 -3.6603
siesta:    6    -2959.4419    -2959.3894    -2959.3894  0.0035 -3.6695
Cycling the Broyden process...
siesta:    7    -2959.4416    -2959.4289    -2959.4289  0.0002 -3.6743

siesta: E_KS(eV) =            -2959.4305

siesta: Atomic forces (eV/Ang):
     1   -0.000023   -0.000007   -0.000004
     2    0.000025    0.000011    0.000002
     3    0.628964   -0.562703   -1.219647
     4   -0.628951    0.562611    1.219593
     5    0.314844   -1.565048    0.187902
     6    0.170864    1.130366   -1.129899
     7   -1.026896    0.918825    1.991463
     8   -0.314858    1.565094   -0.187885
     9   -0.170870   -1.130358    1.129903
    10    1.026877   -0.918811   -1.991412
----------------------------------------
   Tot   -0.000025   -0.000022    0.000016
----------------------------------------
   Max    1.991463
   Res    0.939207    sqrt( Sum f_i^2 / 3N )
----------------------------------------
   Max    1.991463    constrained

Stress-tensor-Voigt (kbar):      150.21       75.69       79.05       39.25       22.20       18.12
Target enthalpy (eV/cell)    -2959.4305

siesta: Stress tensor (static) (eV/Ang**3):
         0.093756    0.024490    0.011313
         0.024496    0.047243    0.013858
         0.011310    0.013855    0.049340

siesta: Pressure (static):       -101.65296853  kBar

siesta: Stress tensor (total) (eV/Ang**3):
         0.093756    0.024490    0.011313
         0.024496    0.047243    0.013858
         0.011310    0.013855    0.049340

siesta: Pressure (total):       -101.65296853  kBar
Volume before coercion:      95.0384

* Maximum dynamic memory allocated =    12 MB

siesta:                 ==============================
                            Begin CG move =      3
                        ==============================

outcoor: Atomic coordinates (fractional):                   
    0.00000000    0.00000000    0.00000000   1       1  Mg
    0.49999986    0.49999993    0.49999997   1       2  Mg
    0.23972622    0.24999949    0.26027211   2       3  C
   -0.23972649   -0.24999868   -0.26027142   2       4  C
    0.55351132   -0.05853050    0.24920635   3       5  O
    0.25079365    0.55853021   -0.05351122   3       6  O
   -0.04435342    0.25000015    0.54435343   3       7  O
   -0.55351134    0.05853046   -0.24920633   3       8  O
   -0.25079369   -0.55853024    0.05351116   3       9  O
    0.04435336   -0.25000012   -0.54435353   3      10  O

siesta: k-grid: Number of k-points =    60
siesta: k-grid: Cutoff (effective) =    11.101 Ang
siesta: k-grid: Supercell and displacements
siesta: k-grid:    5  -5   0      0.500
siesta: k-grid:    0  -5   5      0.000
siesta: k-grid:    4   0   0      0.000
Naive supercell factors:     4    4    4
Auxiliary supercell needs to be larger than naive one...

superc: Internal auxiliary supercell:     5 x     5 x     4  =     100
superc: Number of atoms, orbitals, and projectors:   1000  3400  8000

outcell: Unit cell vectors (Ang):
        5.549718   -0.096599   -0.028332
        3.628595    4.237424   -0.083995
        3.503150    1.734595    3.940640

outcell: Cell vector modules (Ang)   :    5.550631    5.579383    5.550633
outcell: Cell angles (23,13,12) (deg):     50.4233     51.5406     50.4233
outcell: Cell volume (Ang**3)        :     95.1306

InitMesh: MESH =    30 x    30 x    30 =       27000
InitMesh: Mesh cutoff (required, used) =   100.000   106.629 Ry

siesta: iscf   Eharris(eV)      E_KS(eV)   FreeEng(eV)   dDmax  Ef(eV)
siesta:    1    -2959.6410    -2955.5810    -2955.5810  0.1802 -4.1575
siesta:    2    -2960.5153    -2958.6042    -2958.6042  0.2328 -4.2109
siesta:    3    -2959.8936    -2958.7594    -2958.7594  0.1708 -4.1560
siesta:    4    -2959.2592    -2958.9250    -2958.9250  0.0244 -4.0268
siesta:    5    -2959.2529    -2958.9591    -2958.9591  0.0133 -4.0496
siesta:    6    -2959.2515    -2959.0897    -2959.0897  0.0100 -4.0914
Cycling the Broyden process...
siesta:    7    -2959.2495    -2959.1914    -2959.1914  0.0008 -4.0859

siesta: E_KS(eV) =            -2959.2039

siesta: Atomic forces (eV/Ang):
     1   -0.000025   -0.000006   -0.000003
     2    0.000028    0.000015    0.000003
     3    1.526579   -1.365791   -2.960260
     4   -1.526583    1.365651    2.960156
     5   -1.184837    1.949044    0.065549
     6    0.085785   -0.965826    2.065674
     7   -0.286550    0.256381    0.555607
     8    1.184839   -1.948998   -0.065554
     9   -0.085784    0.965870   -2.065670
    10    0.286502   -0.256322   -0.555520
----------------------------------------
   Tot   -0.000046    0.000019   -0.000018
----------------------------------------
   Max    2.960260
   Res    1.260396    sqrt( Sum f_i^2 / 3N )
----------------------------------------
   Max    2.960260    constrained

Stress-tensor-Voigt (kbar):      151.44      269.93      231.83      -43.34      -46.46      -14.19
Target enthalpy (eV/cell)    -2959.2039

siesta: Stress tensor (static) (eV/Ang**3):
         0.094518   -0.027073   -0.008843
        -0.027049    0.168477   -0.028984
        -0.008854   -0.028996    0.144697

siesta: Pressure (static):       -217.73373618  kBar

siesta: Stress tensor (total) (eV/Ang**3):
         0.094518   -0.027073   -0.008843
        -0.027049    0.168477   -0.028984
        -0.008854   -0.028996    0.144697

siesta: Pressure (total):       -217.73373618  kBar
Volume before coercion:      95.0829

* Maximum dynamic memory allocated =    12 MB

siesta:                 ==============================
                            Begin CG move =      4
                        ==============================

outcoor: Atomic coordinates (fractional):                   
    0.00000000    0.00000000    0.00000000   1       1  Mg
    0.49999990    0.49999995    0.49999998   1       2  Mg
    0.24260960    0.24999963    0.25738920   2       3  C
   -0.24260979   -0.24999905   -0.25738870   2       4  C
    0.54618308   -0.04979361    0.24942909   3       5  O
    0.25057091    0.54979340   -0.04618300   3       6  O
   -0.03959537    0.25000011    0.53959539   3       7  O
   -0.54618309    0.04979358   -0.24942908   3       8  O
   -0.25057094   -0.54979342    0.04618296   3       9  O
    0.03959533   -0.25000009   -0.53959545   3      10  O

siesta: k-grid: Number of k-points =    60
siesta: k-grid: Cutoff (effective) =    11.172 Ang
siesta: k-grid: Supercell and displacements
siesta: k-grid:    5  -5   0      0.500
siesta: k-grid:    0  -5   5      0.000
siesta: k-grid:    4   0   0      0.000
Naive supercell factors:     4    4    4
Auxiliary supercell needs to be larger than naive one...

superc: Internal auxiliary supercell:     5 x     5 x     4  =     100
superc: Number of atoms, orbitals, and projectors:   1000  3400  8000

outcell: Unit cell vectors (Ang):
        5.585317   -0.069477   -0.020377
        3.672544    4.235428   -0.060412
        3.540221    1.760398    3.945738

outcell: Cell vector modules (Ang)   :    5.585786    5.606253    5.585787
outcell: Cell angles (23,13,12) (deg):     49.7843     51.1532     49.7843
outcell: Cell volume (Ang**3)        :     95.1306

InitMesh: MESH =    30 x    30 x    30 =       27000
InitMesh: Mesh cutoff (required, used) =   100.000   104.706 Ry

siesta: iscf   Eharris(eV)      E_KS(eV)   FreeEng(eV)   dDmax  Ef(eV)
siesta:    1    -2959.6687    -2961.5304    -2961.5304  0.0968 -3.7814
siesta:    2    -2959.8714    -2959.3870    -2959.3870  0.1330 -3.8659
siesta:    3    -2959.6939    -2959.4246    -2959.4246  0.0860 -3.8847
siesta:    4    -2959.5567    -2959.4643    -2959.4643  0.0206 -3.9022
siesta:    5    -2959.5503    -2959.4856    -2959.4856  0.0082 -3.8839
siesta:    6    -2959.5495    -2959.4985    -2959.4985  0.0032 -3.8740
Cycling the Broyden process...
siesta:    7    -2959.5493    -2959.5372    -2959.5372  0.0004 -3.8678

siesta: E_KS(eV) =            -2959.5397

siesta: Atomic forces (eV/Ang):
     1   -0.000024   -0.000005   -0.000003
     2    0.000026    0.000012    0.000002
     3    1.128499   -1.009620   -2.188334
     4   -1.128492    1.009505    2.188256
     5   -0.501229    0.284676    0.133953
     6    0.135898    0.042076    0.574453
     7   -0.693777    0.620802    1.345470
     8    0.501218   -0.284624   -0.133955
     9   -0.135888   -0.042065   -0.574441
    10    0.693745   -0.620766   -1.345423
----------------------------------------
   Tot   -0.000022   -0.000009   -0.000022
----------------------------------------
   Max    2.188334
   Res    0.835012    sqrt( Sum f_i^2 / 3N )
----------------------------------------
   Max    2.188334    constrained

Stress-tensor-Voigt (kbar):      153.78      172.83      156.82       -2.71      -12.23        3.53
Target enthalpy (eV/cell)    -2959.5397

siesta: Stress tensor (static) (eV/Ang**3):
         0.095981   -0.001699    0.002206
        -0.001692    0.107869   -0.007631
         0.002202   -0.007635    0.097877

siesta: Pressure (static):       -161.14142374  kBar

siesta: Stress tensor (total) (eV/Ang**3):
         0.095981   -0.001699    0.002206
        -0.001692    0.107869   -0.007631
         0.002202   -0.007635    0.097877

siesta: Pressure (total):       -161.14142374  kBar

cgvc: Finished line minimization    1.  Mean atomic displacement =    0.1853
Volume before coercion:      95.0624

* Maximum dynamic memory allocated =    12 MB

siesta:                 ==============================
                            Begin CG move =      5
                        ==============================

outcoor: Atomic coordinates (fractional):                   
   -0.00000044   -0.00000036   -0.00000035   1       1  Mg
    0.50000035    0.50000042    0.50000038   1       2  Mg
    0.26124971    0.25000113    0.23875190   2       3  C
   -0.26124979   -0.25000185   -0.23875282   2       4  C
    0.54304874   -0.05920077    0.24680038   3       5  O
    0.25319841    0.55919866   -0.04304933   3       6  O
   -0.05650991    0.25000065    0.55651024   3       7  O
   -0.54304897    0.05920132   -0.24680021   3       8  O
   -0.25319827   -0.55919842    0.04304961   3       9  O
    0.05650927   -0.25000051   -0.55650988   3      10  O

siesta: k-grid: Number of k-points =    60
siesta: k-grid: Cutoff (effective) =    11.133 Ang
siesta: k-grid: Supercell and displacements
siesta: k-grid:    5  -5   0      0.500
siesta: k-grid:    0  -5   5      0.000
siesta: k-grid:    4   0   0      0.000
Naive supercell factors:     4    4    4
Auxiliary supercell needs to be larger than naive one...

superc: Internal auxiliary supercell:     5 x     5 x     4  =     100
superc: Number of atoms, orbitals, and projectors:   1000  3400  8000

outcell: Unit cell vectors (Ang):
        5.565757   -0.088252   -0.032057
        3.645510    4.227012   -0.070466
        3.513510    1.748026    3.947937

outcell: Cell vector modules (Ang)   :    5.566549    5.582324    5.566557
outcell: Cell angles (23,13,12) (deg):     50.1321     51.5355     50.1321
outcell: Cell volume (Ang**3)        :     95.1306

InitMesh: MESH =    30 x    30 x    30 =       27000
InitMesh: Mesh cutoff (required, used) =   100.000   105.936 Ry

siesta: iscf   Eharris(eV)      E_KS(eV)   FreeEng(eV)   dDmax  Ef(eV)
siesta:    1    -2959.9230    -2957.1344    -2957.1344  0.1252 -4.1664
siesta:    2    -2963.6315    -2957.5594    -2957.5594  0.5662 -1.9352
siesta:    3    -2960.4494    -2957.9420    -2957.9420  0.2162 -2.6788
siesta:    4    -2959.3551    -2958.2165    -2958.2165  0.1215 -3.1059
siesta:    5    -2959.1142    -2958.4215    -2958.4215  0.0488 -3.0575
siesta:    6    -2959.0942    -2958.5757    -2958.5757  0.0186 -3.0872
Cycling the Broyden process...
siesta:    7    -2959.0927    -2958.6684    -2958.6684  0.0126 -3.0962
Cycling the Broyden process...
siesta:    8    -2959.0906    -2959.0078    -2959.0078  0.0039 -3.1072
Cycling the Broyden process...
siesta:    9    -2959.0906    -2959.0254    -2959.0254  0.0031 -3.1078
Cycling the Broyden process...
siesta:   10    -2959.0905    -2959.0927    -2959.0927  0.0002 -3.1089

siesta: E_KS(eV) =            -2959.0913

siesta: Atomic forces (eV/Ang):
     1    0.000081    0.000050    0.000032
     2   -0.000084   -0.000036   -0.000016
     3   -1.501152    1.342738    2.910902
     4    1.501186   -1.342499   -2.910840
     5    0.609660    0.861925   -0.289905
     6   -0.465064   -0.990445    0.010492
     7    1.345824   -1.204012   -2.609679
     8   -0.609693   -0.862048    0.289889
     9    0.464975    0.990365   -0.010484
    10   -1.345836    1.203969    2.609618
----------------------------------------
   Tot   -0.000103    0.000007    0.000008
----------------------------------------
   Max    2.910902
   Res    1.290903    sqrt( Sum f_i^2 / 3N )
----------------------------------------
   Max    2.910902    constrained

Stress-tensor-Voigt (kbar):      155.94      187.61      281.67      -49.93       43.96      -71.19
Target enthalpy (eV/cell)    -2959.0913

siesta: Stress tensor (static) (eV/Ang**3):
         0.097331   -0.031159   -0.044433
        -0.031162    0.117095    0.027436
        -0.044432    0.027438    0.175804

siesta: Pressure (static):       -208.40808105  kBar

siesta: Stress tensor (total) (eV/Ang**3):
         0.097331   -0.031159   -0.044433
        -0.031162    0.117095    0.027436
        -0.044432    0.027438    0.175804

siesta: Pressure (total):       -208.40808105  kBar
Volume before coercion:      95.0762

* Maximum dynamic memory allocated =    12 MB

siesta:                 ==============================
                            Begin CG move =      6
                        ==============================

outcoor: Atomic coordinates (fractional):                   
   -0.00000015   -0.00000013   -0.00000012   1       1  Mg
    0.50000006    0.50000012    0.50000012   1       2  Mg
    0.24918992    0.25000016    0.25080987   2       3  C
   -0.24919007   -0.25000004   -0.25080987   2       4  C
    0.54507660   -0.05311452    0.24850111   3       5  O
    0.25149847    0.55311364   -0.04507676   3       6  O
   -0.04556654    0.25000030    0.54556666   3       7  O
   -0.54507669    0.05311469   -0.24850104   3       8  O
   -0.25149844   -0.55311357    0.04507683   3       9  O
    0.04556629   -0.25000024   -0.54556658   3      10  O

siesta: k-grid: Number of k-points =    60
siesta: k-grid: Cutoff (effective) =    11.158 Ang
siesta: k-grid: Supercell and displacements
siesta: k-grid:    5  -5   0      0.500
siesta: k-grid:    0  -5   5      0.000
siesta: k-grid:    4   0   0      0.000
Naive supercell factors:     4    4    4
Auxiliary supercell needs to be larger than naive one...

superc: Internal auxiliary supercell:     5 x     5 x     4  =     100
superc: Number of atoms, orbitals, and projectors:   1000  3400  8000

outcell: Unit cell vectors (Ang):
        5.578401   -0.076105   -0.024500
        3.662994    4.232448   -0.063961
        3.530785    1.756027    3.946506

outcell: Cell vector modules (Ang)   :    5.578974    5.597788    5.578977
outcell: Cell angles (23,13,12) (deg):     49.9068     51.2879     49.9068
outcell: Cell volume (Ang**3)        :     95.1306

InitMesh: MESH =    30 x    30 x    30 =       27000
InitMesh: Mesh cutoff (required, used) =   100.000   105.138 Ry

siesta: iscf   Eharris(eV)      E_KS(eV)   FreeEng(eV)   dDmax  Ef(eV)
siesta:    1    -2960.0012    -2960.8505    -2960.8505  0.0873 -3.1388
siesta:    2    -2961.3747    -2959.0339    -2959.0339  0.2768 -3.2576
siesta:    3    -2960.3309    -2959.2041    -2959.2041  0.1833 -3.2436
siesta:    4    -2959.6604    -2959.3239    -2959.3239  0.0193 -4.3345
siesta:    5    -2959.6598    -2959.3663    -2959.3663  0.0165 -4.3369
siesta:    6    -2959.6579    -2959.6069    -2959.6069  0.0021 -4.3319
Cycling the Broyden process...
siesta:    7    -2959.6578    -2959.6151    -2959.6151  0.0014 -4.3321
Cycling the Broyden process...
siesta:    8    -2959.6579    -2959.6123    -2959.6123  0.0016 -4.3320
Cycling the Broyden process...
siesta:    9    -2959.6579    -2959.6597    -2959.6597  0.0001 -4.3327

siesta: E_KS(eV) =            -2959.6564

siesta: Atomic forces (eV/Ang):
     1    0.000037    0.000022    0.000013
     2   -0.000034   -0.000015   -0.000010
     3   -0.103482    0.092513    0.200708
     4    0.103490   -0.092499   -0.200691
     5   -0.377427    0.297932   -0.076723
     6    0.199412   -0.138523    0.422113
     7    0.336543   -0.301079   -0.652627
     8    0.377423   -0.297909    0.076718
     9   -0.199438    0.138501   -0.422113
    10   -0.336538    0.301063    0.652606
----------------------------------------
   Tot   -0.000015    0.000006   -0.000006
----------------------------------------
   Max    0.652627
   Res    0.278518    sqrt( Sum f_i^2 / 3N )
----------------------------------------
   Max    0.652627    constrained

Stress-tensor-Voigt (kbar):      157.93      177.15      218.47      -23.46       19.13      -33.98
Target enthalpy (eV/cell)    -2959.6564

siesta: Stress tensor (static) (eV/Ang**3):
         0.098572   -0.014645   -0.021208
        -0.014641    0.110567    0.011939
        -0.021210    0.011937    0.136358

siesta: Pressure (static):       -184.51719643  kBar

siesta: Stress tensor (total) (eV/Ang**3):
         0.098572   -0.014645   -0.021208
        -0.014641    0.110567    0.011939
        -0.021210    0.011937    0.136358

siesta: Pressure (total):       -184.51719643  kBar

cgvc: Finished line minimization    2.  Mean atomic displacement =    0.0654
Volume before coercion:      95.0828

* Maximum dynamic memory allocated =    12 MB

siesta:                 ==============================
                            Begin CG move =      7
                        ==============================

outcoor: Atomic coordinates (fractional):                   
    0.00000028    0.00000038    0.00000037   1       1  Mg
    0.49999966    0.49999973    0.49999972   1       2  Mg
    0.25195520    0.24999963    0.24804513   2       3  C
   -0.25195522   -0.24999959   -0.24804515   2       4  C
    0.53878097   -0.05559479    0.24497922   3       5  O
    0.25502105    0.55559485   -0.03878007   3       6  O
   -0.04445583    0.25000094    0.54445665   3       7  O
   -0.53878117    0.05559531   -0.24497910   3       8  O
   -0.25502136   -0.55559522    0.03877987   3       9  O
    0.04445552   -0.25000097   -0.54445671   3      10  O

siesta: k-grid: Number of k-points =    60
siesta: k-grid: Cutoff (effective) =    11.208 Ang
siesta: k-grid: Supercell and displacements
siesta: k-grid:    5  -5   0      0.500
siesta: k-grid:    0  -5   5      0.000
siesta: k-grid:    4   0   0      0.000
Naive supercell factors:     4    4    4
Auxiliary supercell needs to be larger than naive one...

superc: Internal auxiliary supercell:     5 x     5 x     4  =     100
superc: Number of atoms, orbitals, and projectors:   1000  3400  8000

outcell: Unit cell vectors (Ang):
        5.603947   -0.053714    0.011513
        3.696714    4.254413   -0.056708
        3.579465    1.757719    3.937662

outcell: Cell vector modules (Ang)   :    5.604216    5.636394    5.604224
outcell: Cell angles (23,13,12) (deg):     49.5655     50.4230     49.5655
outcell: Cell volume (Ang**3)        :     95.1306

InitMesh: MESH =    30 x    30 x    30 =       27000
InitMesh: Mesh cutoff (required, used) =   100.000   103.398 Ry

siesta: iscf   Eharris(eV)      E_KS(eV)   FreeEng(eV)   dDmax  Ef(eV)
siesta:    1    -2959.6362    -2960.2726    -2960.2726  0.0424 -4.2337
siesta:    2    -2959.6429    -2959.6147    -2959.6147  0.0318 -4.2903
siesta:    3    -2959.6331    -2959.6169    -2959.6169  0.0225 -4.2823
siesta:    4    -2959.6248    -2959.6194    -2959.6194  0.0043 -4.2662
siesta:    5    -2959.6245    -2959.6209    -2959.6209  0.0014 -4.2635
siesta:    6    -2959.6245    -2959.6223    -2959.6223  0.0010 -4.2637

siesta: E_KS(eV) =            -2959.6239

siesta: Atomic forces (eV/Ang):
     1   -0.000072   -0.000060   -0.000036
     2    0.000075    0.000039    0.000003
     3   -0.306814    0.274697    0.594999
     4    0.306772   -0.274663   -0.594970
     5    0.949997    0.444820   -0.053115
     6   -0.714566   -0.655755   -0.403610
     7    0.140051   -0.125177   -0.271450
     8   -0.950020   -0.444921    0.053128
     9    0.714637    0.655858    0.403581
    10   -0.140068    0.125199    0.271479
----------------------------------------
   Tot   -0.000007    0.000036    0.000009
----------------------------------------
   Max    0.950020
   Res    0.435081    sqrt( Sum f_i^2 / 3N )
----------------------------------------
   Max    0.950020    constrained

Stress-tensor-Voigt (kbar):      150.54      160.36      177.10      -14.36        3.64      -10.81
Target enthalpy (eV/cell)    -2959.6239

siesta: Stress tensor (static) (eV/Ang**3):
         0.093957   -0.008990   -0.006737
        -0.008965    0.100091    0.002286
        -0.006748    0.002273    0.110538

siesta: Pressure (static):       -162.66857906  kBar

siesta: Stress tensor (total) (eV/Ang**3):
         0.093957   -0.008990   -0.006737
        -0.008965    0.100091    0.002286
        -0.006748    0.002273    0.110538

siesta: Pressure (total):       -162.66857906  kBar
Volume before coercion:      95.0805

* Maximum dynamic memory allocated =    12 MB

siesta:                 ==============================
                            Begin CG move =      8
                        ==============================

outcoor: Atomic coordinates (fractional):                   
   -0.00000001    0.00000004    0.00000004   1       1  Mg
    0.49999993    0.49999999    0.49999999   1       2  Mg
    0.25008454    0.24999999    0.24991543   2       3  C
   -0.25008464   -0.24999989   -0.24991544   2       4  C
    0.54303986   -0.05391693    0.24736172   3       5  O
    0.25263808    0.55391635   -0.04303967   3       6  O
   -0.04520720    0.25000051    0.54520756   3       7  O
   -0.54303999    0.05391721   -0.24736163   3       8  O
   -0.25263816   -0.55391642    0.04303966   3       9  O
    0.04520694   -0.25000047   -0.54520752   3      10  O

siesta: k-grid: Number of k-points =    60
siesta: k-grid: Cutoff (effective) =    11.174 Ang
siesta: k-grid: Supercell and displacements
siesta: k-grid:    5  -5   0      0.500
siesta: k-grid:    0  -5   5      0.000
siesta: k-grid:    4   0   0      0.000
Naive supercell factors:     4    4    4
Auxiliary supercell needs to be larger than naive one...

superc: Internal auxiliary supercell:     5 x     5 x     4  =     100
superc: Number of atoms, orbitals, and projectors:   1000  3400  8000

outcell: Unit cell vectors (Ang):
        5.586623   -0.068860   -0.012849
        3.673875    4.239522   -0.061614
        3.546507    1.756561    3.943615

outcell: Cell vector modules (Ang)   :    5.587062    5.610232    5.587067
outcell: Cell angles (23,13,12) (deg):     49.7959     51.0072     49.7959
outcell: Cell volume (Ang**3)        :     95.1306

InitMesh: MESH =    30 x    30 x    30 =       27000
InitMesh: Mesh cutoff (required, used) =   100.000   104.572 Ry

siesta: iscf   Eharris(eV)      E_KS(eV)   FreeEng(eV)   dDmax  Ef(eV)
siesta:    1    -2959.6957    -2959.2269    -2959.2269  0.0293 -4.3353
siesta:    2    -2959.7022    -2959.6832    -2959.6832  0.0262 -4.3098
siesta:    3    -2959.6953    -2959.6847    -2959.6847  0.0167 -4.3120
siesta:    4    -2959.6896    -2959.6862    -2959.6862  0.0034 -4.3125
siesta:    5    -2959.6895    -2959.6874    -2959.6874  0.0009 -4.3159

siesta: E_KS(eV) =            -2959.6877

siesta: Atomic forces (eV/Ang):
     1   -0.000018   -0.000018   -0.000013
     2    0.000027    0.000007    0.000000
     3   -0.187848    0.168092    0.364279
     4    0.187826   -0.168075   -0.364257
     5   -0.027355    0.316445   -0.107199
     6   -0.009468   -0.283460    0.178822
     7    0.277207   -0.247978   -0.537523
     8    0.027341   -0.316467    0.107220
     9    0.009474    0.283468   -0.178829
    10   -0.277204    0.247964    0.537503
----------------------------------------
   Tot   -0.000016   -0.000020    0.000004
----------------------------------------
   Max    0.537523
   Res    0.237807    sqrt( Sum f_i^2 / 3N )
----------------------------------------
   Max    0.537523    constrained

Stress-tensor-Voigt (kbar):      153.09      173.49      206.23      -22.10       13.38      -27.78
Target enthalpy (eV/cell)    -2959.6877

siesta: Stress tensor (static) (eV/Ang**3):
         0.095551   -0.013541   -0.017453
        -0.013794    0.108281    0.008219
        -0.017336    0.008350    0.128719

siesta: Pressure (static):       -177.60354316  kBar

siesta: Stress tensor (total) (eV/Ang**3):
         0.095551   -0.013541   -0.017453
        -0.013794    0.108281    0.008219
        -0.017336    0.008350    0.128719

siesta: Pressure (total):       -177.60354316  kBar

cgvc: Finished line minimization    3.  Mean atomic displacement =    0.0212
Volume before coercion:      95.0853

* Maximum dynamic memory allocated =    12 MB

siesta:                 ==============================
                            Begin CG move =      9
                        ==============================

outcoor: Atomic coordinates (fractional):                   
   -0.00000011   -0.00000010   -0.00000011   1       1  Mg
    0.50000008    0.50000012    0.50000009   1       2  Mg
    0.24902343    0.25000004    0.25097649   2       3  C
   -0.24902366   -0.24999995   -0.25097646   2       4  C
    0.54271474   -0.05265748    0.24732008   3       5  O
    0.25268018    0.55265708   -0.04271403   3       6  O
   -0.04352386    0.25000077    0.54352463   3       7  O
   -0.54271495    0.05265762   -0.24731999   3       8  O
   -0.25268023   -0.55265710    0.04271402   3       9  O
    0.04352362   -0.25000078   -0.54352469   3      10  O

siesta: k-grid: Number of k-points =    60
siesta: k-grid: Cutoff (effective) =    11.197 Ang
siesta: k-grid: Supercell and displacements
siesta: k-grid:    5  -5   0      0.500
siesta: k-grid:    0  -5   5      0.000
siesta: k-grid:    4   0   0      0.000
Naive supercell factors:     4    4    4
Auxiliary supercell needs to be larger than naive one...

superc: Internal auxiliary supercell:     5 x     5 x     4  =     100
superc: Number of atoms, orbitals, and projectors:   1000  3400  8000

outcell: Unit cell vectors (Ang):
        5.598347   -0.058313    0.000743
        3.689553    4.248050   -0.057465
        3.566887    1.759363    3.940420

outcell: Cell vector modules (Ang)   :    5.598651    5.626903    5.598657
outcell: Cell angles (23,13,12) (deg):     49.6242     50.6628     49.6242
outcell: Cell volume (Ang**3)        :     95.1306

InitMesh: MESH =    30 x    30 x    30 =       27000
InitMesh: Mesh cutoff (required, used) =   100.000   103.797 Ry

siesta: iscf   Eharris(eV)      E_KS(eV)   FreeEng(eV)   dDmax  Ef(eV)
siesta:    1    -2959.7239    -2960.1506    -2960.1506  0.0193 -4.1643
siesta:    2    -2959.7484    -2959.7027    -2959.7027  0.0337 -4.2335
siesta:    3    -2959.7288    -2959.7061    -2959.7061  0.0200 -4.2201
siesta:    4    -2959.7161    -2959.7088    -2959.7088  0.0040 -4.1980
siesta:    5    -2959.7158    -2959.7116    -2959.7116  0.0013 -4.1952
siesta:    6    -2959.7159    -2959.7121    -2959.7121  0.0012 -4.1951
Cycling the Broyden process...
siesta:    7    -2959.7158    -2959.7150    -2959.7150  0.0000 -4.1940

siesta: E_KS(eV) =            -2959.7175

siesta: Atomic forces (eV/Ang):
     1    0.000032    0.000013    0.000015
     2   -0.000041   -0.000011   -0.000005
     3    0.068582   -0.061348   -0.132901
     4   -0.068591    0.061342    0.132929
     5   -0.053257    0.062324   -0.106916
     6    0.088554   -0.094001    0.038323
     7   -0.030630    0.027524    0.059547
     8    0.053265   -0.062326    0.106895
     9   -0.088556    0.094028   -0.038332
    10    0.030627   -0.027541   -0.059569
----------------------------------------
   Tot   -0.000016    0.000004   -0.000014
----------------------------------------
   Max    0.132929
   Res    0.067170    sqrt( Sum f_i^2 / 3N )
----------------------------------------
   Max    0.132929    constrained

Stress-tensor-Voigt (kbar):      150.83      159.92      175.06      -10.64        5.57      -12.14
Target enthalpy (eV/cell)    -2959.7175

siesta: Stress tensor (static) (eV/Ang**3):
         0.094139   -0.006646   -0.007575
        -0.006641    0.099814    0.003479
        -0.007577    0.003476    0.109261

siesta: Pressure (static):       -161.93606734  kBar

siesta: Stress tensor (total) (eV/Ang**3):
         0.094139   -0.006646   -0.007575
        -0.006641    0.099814    0.003479
        -0.007577    0.003476    0.109261

siesta: Pressure (total):       -161.93606734  kBar
Volume before coercion:      95.0867

* Maximum dynamic memory allocated =    12 MB

siesta:                 ==============================
                            Begin CG move =     10
                        ==============================

outcoor: Atomic coordinates (fractional):                   
   -0.00000025   -0.00000032   -0.00000033   1       1  Mg
    0.50000031    0.50000032    0.50000026   1       2  Mg
    0.24732567    0.25000012    0.25267419   2       3  C
   -0.24732610   -0.25000005   -0.25267409   2       4  C
    0.54219455   -0.05064235    0.24725346   3       5  O
    0.25274753    0.55064224   -0.04219299   3       6  O
   -0.04083052    0.25000120    0.54083196   3       7  O
   -0.54219489    0.05064227   -0.24725338   3       8  O
   -0.25274754   -0.55064217    0.04219299   3       9  O
    0.04083031   -0.25000128   -0.54083217   3      10  O

siesta: k-grid: Number of k-points =    60
siesta: k-grid: Cutoff (effective) =    11.235 Ang
siesta: k-grid: Supercell and displacements
siesta: k-grid:    5  -5   0      0.500
siesta: k-grid:    0  -5   5      0.000
siesta: k-grid:    4   0   0      0.000
Naive supercell factors:     4    4    4
Auxiliary supercell needs to be larger than naive one...

superc: Internal auxiliary supercell:     5 x     5 x     4  =     100
superc: Number of atoms, orbitals, and projectors:   1000  3400  8000

outcell: Unit cell vectors (Ang):
        5.617230   -0.041439    0.022489
        3.714719    4.261790   -0.050827
        3.599575    1.763885    3.935398

outcell: Cell vector modules (Ang)   :    5.617428    5.653722    5.617436
outcell: Cell angles (23,13,12) (deg):     49.3513     50.1148     49.3513
outcell: Cell volume (Ang**3)        :     95.1306

InitMesh: MESH =    30 x    30 x    30 =       27000
InitMesh: Mesh cutoff (required, used) =   100.000   102.570 Ry

siesta: iscf   Eharris(eV)      E_KS(eV)   FreeEng(eV)   dDmax  Ef(eV)
siesta:    1    -2959.7011    -2960.4212    -2960.4212  0.0314 -3.8987
siesta:    2    -2959.7590    -2959.6487    -2959.6487  0.0505 -4.0525
siesta:    3    -2959.7124    -2959.6568    -2959.6568  0.0312 -4.0214
siesta:    4    -2959.6815    -2959.6636    -2959.6636  0.0061 -3.9695
siesta:    5    -2959.6808    -2959.6699    -2959.6699  0.0024 -3.9647
siesta:    6    -2959.6808    -2959.6717    -2959.6717  0.0018 -3.9641
Cycling the Broyden process...
siesta:    7    -2959.6807    -2959.6789    -2959.6789  0.0001 -3.9624

siesta: E_KS(eV) =            -2959.1301

siesta: Atomic forces (eV/Ang):
     1    0.000041    0.000108    0.000139
     2   -0.000107    0.000042   -0.000108
     3   -1.558065    1.394518    3.020172
     4    1.557705   -1.393669   -3.019974
     5    0.419866   -1.121428   -0.179460
     6    0.217202    0.550653   -1.054920
     7    1.096472   -0.980784   -2.125807
     8   -0.419547    1.120631    0.179478
     9   -0.217216   -0.550690    1.054812
    10   -1.096400    0.980614    2.125678
----------------------------------------
   Tot   -0.000049   -0.000005    0.000009
----------------------------------------
   Max    3.020172
   Res    1.241029    sqrt( Sum f_i^2 / 3N )
----------------------------------------
   Max    3.020172    constrained

Stress-tensor-Voigt (kbar):      149.58      112.96      190.67       -1.86       62.56      -47.97
Target enthalpy (eV/cell)    -2959.1301

siesta: Stress tensor (static) (eV/Ang**3):
         0.093362    0.002406   -0.031581
        -0.001158    0.070500    0.037206
        -0.029938    0.039044    0.119006

siesta: Pressure (static):       -151.07019979  kBar

siesta: Stress tensor (total) (eV/Ang**3):
         0.093362    0.002406   -0.031581
        -0.001158    0.070500    0.037206
        -0.029938    0.039044    0.119006

siesta: Pressure (total):       -151.07019979  kBar
Volume before coercion:      95.0725

* Maximum dynamic memory allocated =    12 MB

outcoor: Final (unrelaxed) atomic coordinates (fractional): 
   -0.00000049   -0.00000067   -0.00000070   1       1  Mg
    0.50000069    0.50000065    0.50000052   1       2  Mg
    0.24460924    0.25000024    0.25539050   2       3  C
   -0.24461000   -0.25000019   -0.25539030   2       4  C
    0.54136226   -0.04741815    0.24714687   3       5  O
    0.25285528    0.54741849   -0.04135933   3       6  O
   -0.03652116    0.25000187    0.53652367   3       7  O
   -0.54136279    0.04741770   -0.24714679   3       8  O
   -0.25285523   -0.54741830    0.04135935   3       9  O
    0.03652101   -0.25000208   -0.53652413   3      10  O

outcell: Unit cell vectors (Ang):
        5.647767   -0.014443    0.057285
        3.755200    4.284019   -0.040209
        3.652084    1.771222    3.927586

outcell: Cell vector modules (Ang)   :    5.648076    5.697013    5.648086
outcell: Cell angles (23,13,12) (deg):     48.9193     49.2454     48.9193
outcell: Cell volume (Ang**3)        :     95.1306

siesta: Program's energy decomposition (eV):
siesta: Eions   =      5228.674091
siesta: Ena     =      1099.236083
siesta: Ekin    =      2235.131677
siesta: Enl     =      -348.588413
siesta: DEna    =       -28.377528
siesta: DUscf   =         6.052906
siesta: DUext   =         0.000000
siesta: Exc     =      -693.910776
siesta: eta*DQ  =         0.000000
siesta: Emadel  =         0.000000
siesta: Emeta   =         0.000000
siesta: Emolmec =         0.000000
siesta: Ekinion =         0.000000
siesta: Eharris =     -2959.680749
siesta: Etot    =     -2959.130141
siesta: FreeEng =     -2959.130141

siesta: Final energy (eV):
siesta:       Kinetic =    2235.131677
siesta:       Hartree =     942.291386
siesta:    Ext. field =       0.000000
siesta:   Exch.-corr. =    -693.910776
siesta:  Ion-electron =   -3815.002706
siesta:       Ion-ion =   -1627.639724
siesta:       Ekinion =       0.000000
siesta:         Total =   -2959.130141

siesta: Atomic forces (eV/Ang):
siesta:      1    0.000041    0.000108    0.000139
siesta:      2   -0.000107    0.000042   -0.000108
siesta:      3   -1.558065    1.394518    3.020172
siesta:      4    1.557705   -1.393669   -3.019974
siesta:      5    0.419866   -1.121428   -0.179460
siesta:      6    0.217202    0.550653   -1.054920
siesta:      7    1.096472   -0.980784   -2.125807
siesta:      8   -0.419547    1.120631    0.179478
siesta:      9   -0.217216   -0.550690    1.054812
siesta:     10   -1.096400    0.980614    2.125678
siesta: ----------------------------------------
siesta:    Tot   -0.000049   -0.000005    0.000009

siesta: Stress tensor (static) (eV/Ang**3):
siesta:     0.093362    0.002406   -0.031581
siesta:    -0.001158    0.070500    0.037206
siesta:    -0.029938    0.039044    0.119006

siesta: Constrained stress tensor (static) (eV/Ang**3):
siesta:     0.093362    0.000624   -0.030760
siesta:     0.000624    0.070500    0.038125
siesta:    -0.030760    0.038125    0.119006

siesta: Cell volume =         95.130619 Ang**3

siesta: Pressure (static):
siesta:                Solid            Molecule  Units
siesta:          -0.00102693         -0.00102024  Ry/Bohr**3
siesta:          -0.09428958         -0.09367452  eV/Ang**3
siesta:        -151.07019979       -150.08474377  kBar

* Maximum dynamic memory allocated : Node    0 =    12 MB

* Maximum memory occured during poison                        

timer: CPU execution times:
timer:  Routine       Calls   Time/call    Tot.time        %
timer:  siesta            1      93.672      93.672   100.00
timer:  Setup             1       0.809       0.809     0.86
timer:  bands             1       0.000       0.000     0.00
timer:  writewave         1       0.000       0.000     0.00
timer:  KSV_init          1       0.001       0.001     0.00
timer:  IterMD           11       8.440      92.841    99.11
timer:  hsparse          12       0.178       2.138     2.28
timer:  overfsm          22       0.012       0.267     0.28
timer:  IterSCF          92       0.958      88.165    94.12
timer:  kinefsm          22       0.011       0.234     0.25
timer:  nlefsm           22       0.345       7.587     8.10
timer:  DHSCF            92       0.388      35.657    38.07
timer:  DHSCF1           11       0.310       3.406     3.64
timer:  DHSCF2           11       0.930      10.228    10.92
timer:  REORD           574       0.000       0.065     0.07
timer:  POISON          103       0.011       1.118     1.19
timer:  DHSCF3           92       0.171      15.752    16.82
timer:  rhoofd           92       0.060       5.511     5.88
timer:  cellXC           92       0.022       1.986     2.12
timer:  vmat             92       0.076       6.962     7.43
timer:  diagon           81       0.542      43.891    46.86
timer:  cdiag         10440       0.002      24.216    25.85
timer:  cdiag1        10440       0.000       1.725     1.84
timer:  cdiag2        10440       0.001       6.238     6.66
timer:  cdiag3        10440       0.001      14.831    15.83
timer:  cdiag4        10440       0.000       1.107     1.18
timer:  MolMec           22       0.000       0.000     0.00
timer:  DHSCF4           11       0.566       6.231     6.65
timer:  dfscf            11       0.363       3.991     4.26
timer:  optical           1       0.000       0.000     0.00
  

elaps: ELAPSED times:
elaps:  Routine       Calls   Time/call    Tot.time        %
elaps:  siesta            1      93.670      93.670   100.00
elaps:  Setup             1       0.809       0.809     0.86
elaps:  bands             1       0.000       0.000     0.00
elaps:  writewave         1       0.000       0.000     0.00
elaps:  KSV_init          1       0.000       0.000     0.00
elaps:  IterMD           11       8.440      92.838    99.11
elaps:  hsparse          12       0.178       2.136     2.28
elaps:  overfsm          22       0.012       0.268     0.29
elaps:  IterSCF          92       0.958      88.164    94.12
elaps:  kinefsm          22       0.011       0.235     0.25
elaps:  nlefsm           22       0.345       7.583     8.10
elaps:  DHSCF            92       0.388      35.655    38.06
elaps:  DHSCF1           11       0.310       3.406     3.64
elaps:  DHSCF2           11       0.930      10.227    10.92
elaps:  REORD           574       0.000       0.072     0.08
elaps:  POISON          103       0.011       1.120     1.20
elaps:  DHSCF3           92       0.171      15.748    16.81
elaps:  rhoofd           92       0.060       5.512     5.88
elaps:  cellXC           92       0.022       1.980     2.11
elaps:  vmat             92       0.076       6.961     7.43
elaps:  diagon           81       0.542      43.883    46.85
elaps:  cdiag         10440       0.002      24.102    25.73
elaps:  cdiag1        10440       0.000       1.668     1.78
elaps:  cdiag2        10440       0.001       6.276     6.70
elaps:  cdiag3        10440       0.001      14.790    15.79
elaps:  cdiag4        10440       0.000       1.092     1.17
elaps:  MolMec           22       0.000       0.000     0.00
elaps:  DHSCF4           11       0.566       6.229     6.65
elaps:  dfscf            11       0.363       3.991     4.26
elaps:  optical           1       0.000       0.000     0.00
  
>> End of run:  25-JAN-2007  17:42:27
