Siesta Version:                                        siesta-3.0-rc2
Architecture  : macosx-openmpi
Compiler flags: /opt/openmpi.gcc.gfortran/bin/mpif90 -O2
PARALLEL version

* Running on    2 nodes in parallel
>> Start of run:  30-JUN-2010  11:37:11

                           ***********************       
                           *  WELCOME TO SIESTA  *       
                           ***********************       

reinit: Reading from standard input
************************** Dump of input data file ****************************
#
# MgCO3 in primitive cell. SZ. Variable cell -- constant volume
#
SystemName	MgCo3 R-3c test -- SZ, 100 R
SystemLabel	constant_volume
NumberOfSpecies		3
NumberOfAtoms	       10
%block ChemicalSpeciesLabel
      1      12     Mg
      2       6     C
      3       8     O
%endblock ChemicalSpeciesLabel
PAO.BasisSize  SZ
# Rhombohedral primitive cell
# (HEX 3-fold cell had A=4.635 and C=15.023, so alpha=48.179 degrees
#  and a=5.67783 Ang)
LatticeConstant     5.67783 Ang
%block LatticeParameters
1.0 1.0 1.0 48.179 50.179 48.179
%endblock LatticeParameters
AtomicCoordinatesFormat    Fractional
%block AtomicCoordinatesAndAtomicSpecies
  0.0         0.0         0.0      1
  0.5         0.5         0.5      1
  0.25        0.25        0.25     2
 -0.25       -0.25       -0.25     2
  0.5274     -0.0274      0.25     3
  0.25        0.5274     -0.0274   3
 -0.0274      0.25        0.5274   3
 -0.5274      0.0274     -0.25     3
 -0.25       -0.5274      0.0274   3
  0.0274     -0.25       -0.5274   3
%endblock AtomicCoordinatesAndAtomicSpecies
kgrid_cutoff 10.0 Ang
Solution.Method       diagon
MeshCutoff             100 Ry
DM.NumberBroyden       4
DM.UseSaveDM           T
DM.MixingWeight        0.1         # New DM amount for next SCF cycle
DM.Tolerance           1.d-3       # Tolerance in maximum difference
                                   # between input and output DM
MaxSCFIterations       20
WriteCoorStep      .true.
WriteForces        .true.
#
#  Note "variable cell with constant volume" keywords
#
MD.TypeOfRun         CG
MD.Variable-Cell      T
MD.constant-volume   T
MD.Target-pressure   0.0 GPa
MD.Num-CG-steps	     10
************************** End of input data file *****************************

reinit: -----------------------------------------------------------------------
reinit: System Name: MgCo3 R-3c test -- SZ, 100 R
reinit: -----------------------------------------------------------------------
reinit: System Label: constant_volume                                             
reinit: -----------------------------------------------------------------------

initatom: Reading input for the pseudopotentials and atomic orbitals ----------
 Species number:            1  Label: Mg Atomic number:          12
 Species number:            2  Label: C Atomic number:           6
 Species number:            3  Label: O Atomic number:           8
Ground state valence configuration:   3s02
Reading pseudopotential information in formatted form from Mg.psf

Valence configuration for pseudopotential generation:
3s( 2.00) rc: 2.59
3p( 0.00) rc: 2.59
3d( 0.00) rc: 2.59
4f( 0.00) rc: 2.59
Ground state valence configuration:   2s02  2p02
Reading pseudopotential information in formatted form from C.psf

Valence configuration for pseudopotential generation:
2s( 2.00) rc: 1.49
2p( 2.00) rc: 1.52
3d( 0.00) rc: 1.58
Ground state valence configuration:   2s02  2p04
Reading pseudopotential information in formatted form from O.psf

Valence configuration for pseudopotential generation:
2s( 2.00) rc: 1.14
2p( 4.00) rc: 1.14
3d( 0.00) rc: 1.14
4f( 0.00) rc: 1.14
For Mg, standard SIESTA heuristics set lmxkb to 1
 (one more than the basis l, including polarization orbitals).
Use PS.lmax or PS.KBprojectors blocks to override.
For C, standard SIESTA heuristics set lmxkb to 2
 (one more than the basis l, including polarization orbitals).
Use PS.lmax or PS.KBprojectors blocks to override.
For O, standard SIESTA heuristics set lmxkb to 2
 (one more than the basis l, including polarization orbitals).
Use PS.lmax or PS.KBprojectors blocks to override.

<basis_specs>
===============================================================================
Mg                   Z=  12    Mass=  24.310        Charge= 0.17977+309
Lmxo=0 Lmxkb=1     BasisType=split      Semic=F
L=0  Nsemic=0  Cnfigmx=3
          n=1  nzeta=1  polorb=0
            splnorm:   0.15000    
               vcte:    0.0000    
               rinn:    0.0000    
                rcs:    0.0000    
            lambdas:    1.0000    
-------------------------------------------------------------------------------
L=0  Nkbl=1  erefs: 0.17977+309
L=1  Nkbl=1  erefs: 0.17977+309
===============================================================================
</basis_specs>

atom: Called for Mg                    (Z =  12)

read_vps: Pseudopotential generation method:
read_vps: ATM3      Troullier-Martins                       
Total valence charge:    2.00000

xc_check: Exchange-correlation functional:
xc_check: Ceperley-Alder
V l=0 = -2*Zval/r beyond r=  3.5878
V l=1 = -2*Zval/r beyond r=  3.5878
All V_l potentials equal beyond r=  2.5600
This should be close to max(r_c) in ps generation
All pots = -2*Zval/r beyond r=  3.5878
Using large-core scheme for Vlocal

atom: Estimated core radius    3.58779

atom: Including non-local core corrections could be a good idea
atom: Maximum radius for 4*pi*r*r*local-pseudopot. charge    3.91588
atom: Maximum radius for r*vlocal+2*Zval:    3.63292
GHOST: No ghost state for L =  0
GHOST: No ghost state for L =  1

KBgen: Kleinman-Bylander projectors: 
   l= 0   rc=  2.657845   el= -0.351328   Ekb=  2.184400   kbcos=  0.257081
   l= 1   rc=  2.657845   el= -0.101748   Ekb=  0.525536   kbcos=  0.270508

KBgen: Total number of  Kleinman-Bylander projectors:    4
atom: -------------------------------------------------------------------------

atom: SANKEY-TYPE ORBITALS:

SPLIT: Orbitals with angular momentum L= 0

SPLIT: Basis orbitals for state 3s

SPLIT: PAO cut-off radius determined from an
SPLIT: energy shift=  0.020000 Ry

   izeta = 1
                 lambda =    1.000000
                     rc =    6.619780
                 energy =   -0.332103
                kinetic =    0.289627
    potential(screened) =   -0.621729
       potential(ionic) =   -1.387191
atom: Total number of Sankey-type orbitals:  1

atm_pop: Valence configuration (for local Pseudopot. screening):
 3s( 2.00)                                                            
Vna: chval, zval:    2.00000   2.00000

Vna:  Cut-off radius for the neutral-atom potential:   6.619780

atom: _________________________________________________________________________

<basis_specs>
===============================================================================
C                    Z=   6    Mass=  12.010        Charge= 0.17977+309
Lmxo=1 Lmxkb=2     BasisType=split      Semic=F
L=0  Nsemic=0  Cnfigmx=2
          n=1  nzeta=1  polorb=0
            splnorm:   0.15000    
               vcte:    0.0000    
               rinn:    0.0000    
                rcs:    0.0000    
            lambdas:    1.0000    
L=1  Nsemic=0  Cnfigmx=2
          n=1  nzeta=1  polorb=0
            splnorm:   0.15000    
               vcte:    0.0000    
               rinn:    0.0000    
                rcs:    0.0000    
            lambdas:    1.0000    
-------------------------------------------------------------------------------
L=0  Nkbl=1  erefs: 0.17977+309
L=1  Nkbl=1  erefs: 0.17977+309
L=2  Nkbl=1  erefs: 0.17977+309
===============================================================================
</basis_specs>

atom: Called for C                     (Z =   6)

read_vps: Pseudopotential generation method:
read_vps: ATM3      Troullier-Martins                       
Total valence charge:    4.00000

xc_check: Exchange-correlation functional:
xc_check: Ceperley-Alder
V l=0 = -2*Zval/r beyond r=  1.4666
V l=1 = -2*Zval/r beyond r=  1.5038
V l=2 = -2*Zval/r beyond r=  1.5612
All V_l potentials equal beyond r=  1.5612
This should be close to max(r_c) in ps generation
All pots = -2*Zval/r beyond r=  1.5612

VLOCAL1: 99.0% of the norm of Vloc inside     17.809 Ry
VLOCAL1: 99.9% of the norm of Vloc inside     40.586 Ry
atom: Maximum radius for 4*pi*r*r*local-pseudopot. charge    1.88329
atom: Maximum radius for r*vlocal+2*Zval:    1.62091
GHOST: No ghost state for L =  0
GHOST: No ghost state for L =  1
GHOST: No ghost state for L =  2

KBgen: Kleinman-Bylander projectors: 
   l= 0   rc=  1.747182   el= -1.001947   Ekb=  5.181700   kbcos=  0.300603
   l= 1   rc=  1.747182   el= -0.398598   Ekb= -4.328763   kbcos= -0.367074
   l= 2   rc=  1.955272   el=  0.002326   Ekb= -1.016175   kbcos= -0.009979

KBgen: Total number of  Kleinman-Bylander projectors:    9
atom: -------------------------------------------------------------------------

atom: SANKEY-TYPE ORBITALS:

SPLIT: Orbitals with angular momentum L= 0

SPLIT: Basis orbitals for state 2s

SPLIT: PAO cut-off radius determined from an
SPLIT: energy shift=  0.020000 Ry

   izeta = 1
                 lambda =    1.000000
                     rc =    4.191849
                 energy =   -0.983897
                kinetic =    0.886956
    potential(screened) =   -1.870853
       potential(ionic) =   -5.479661

SPLIT: Orbitals with angular momentum L= 1

SPLIT: Basis orbitals for state 2p

SPLIT: PAO cut-off radius determined from an
SPLIT: energy shift=  0.020000 Ry

   izeta = 1
                 lambda =    1.000000
                     rc =    4.870301
                 energy =   -0.379093
                kinetic =    2.545357
    potential(screened) =   -2.924450
       potential(ionic) =   -6.433151
atom: Total number of Sankey-type orbitals:  4

atm_pop: Valence configuration (for local Pseudopot. screening):
 2s( 2.00)                                                            
 2p( 2.00)                                                            
Vna: chval, zval:    4.00000   4.00000

Vna:  Cut-off radius for the neutral-atom potential:   4.870301

atom: _________________________________________________________________________

<basis_specs>
===============================================================================
O                    Z=   8    Mass=  16.000        Charge= 0.17977+309
Lmxo=1 Lmxkb=2     BasisType=split      Semic=F
L=0  Nsemic=0  Cnfigmx=2
          n=1  nzeta=1  polorb=0
            splnorm:   0.15000    
               vcte:    0.0000    
               rinn:    0.0000    
                rcs:    0.0000    
            lambdas:    1.0000    
L=1  Nsemic=0  Cnfigmx=2
          n=1  nzeta=1  polorb=0
            splnorm:   0.15000    
               vcte:    0.0000    
               rinn:    0.0000    
                rcs:    0.0000    
            lambdas:    1.0000    
-------------------------------------------------------------------------------
L=0  Nkbl=1  erefs: 0.17977+309
L=1  Nkbl=1  erefs: 0.17977+309
L=2  Nkbl=1  erefs: 0.17977+309
===============================================================================
</basis_specs>

atom: Called for O                     (Z =   8)

read_vps: Pseudopotential generation method:
read_vps: ATM3      Troullier-Martins                       
Total valence charge:    6.00000

xc_check: Exchange-correlation functional:
xc_check: Ceperley-Alder
V l=0 = -2*Zval/r beyond r=  1.1278
V l=1 = -2*Zval/r beyond r=  1.1278
V l=2 = -2*Zval/r beyond r=  1.1278
All V_l potentials equal beyond r=  1.1278
This should be close to max(r_c) in ps generation
All pots = -2*Zval/r beyond r=  1.1278

VLOCAL1: 99.0% of the norm of Vloc inside     34.126 Ry
VLOCAL1: 99.9% of the norm of Vloc inside     77.774 Ry
atom: Maximum radius for 4*pi*r*r*local-pseudopot. charge    1.37759
atom: Maximum radius for r*vlocal+2*Zval:    1.18566
GHOST: No ghost state for L =  0
GHOST: No ghost state for L =  1
GHOST: No ghost state for L =  2

KBgen: Kleinman-Bylander projectors: 
   l= 0   rc=  1.294105   el= -1.742414   Ekb=  9.135903   kbcos=  0.326910
   l= 1   rc=  1.294105   el= -0.676589   Ekb= -8.124878   kbcos= -0.395047
   l= 2   rc=  1.448233   el=  0.002386   Ekb= -2.039267   kbcos= -0.003484

KBgen: Total number of  Kleinman-Bylander projectors:    9
atom: -------------------------------------------------------------------------

atom: SANKEY-TYPE ORBITALS:

SPLIT: Orbitals with angular momentum L= 0

SPLIT: Basis orbitals for state 2s

SPLIT: PAO cut-off radius determined from an
SPLIT: energy shift=  0.020000 Ry

   izeta = 1
                 lambda =    1.000000
                     rc =    3.305093
                 energy =   -1.723766
                kinetic =    1.614911
    potential(screened) =   -3.338677
       potential(ionic) =  -11.304675

SPLIT: Orbitals with angular momentum L= 1

SPLIT: Basis orbitals for state 2p

SPLIT: PAO cut-off radius determined from an
SPLIT: energy shift=  0.020000 Ry

   izeta = 1
                 lambda =    1.000000
                     rc =    3.937239
                 energy =   -0.658841
                kinetic =    5.005986
    potential(screened) =   -5.664827
       potential(ionic) =  -13.452360
atom: Total number of Sankey-type orbitals:  4

atm_pop: Valence configuration (for local Pseudopot. screening):
 2s( 2.00)                                                            
 2p( 4.00)                                                            
Vna: chval, zval:    6.00000   6.00000

Vna:  Cut-off radius for the neutral-atom potential:   3.937239

atom: _________________________________________________________________________

prinput: Basis input ----------------------------------------------------------

PAO.BasisType split     

%block ChemicalSpeciesLabel
    1   12 Mg                      # Species index, atomic number, species label
    2    6 C                       # Species index, atomic number, species label
    3    8 O                       # Species index, atomic number, species label
%endblock ChemicalSpeciesLabel

%block PAO.Basis                 # Define Basis set
Mg                    1                    # Species label, number of l-shells
 n=3   0   1                         # n, l, Nzeta 
   6.620   
   1.000   
C                     2                    # Species label, number of l-shells
 n=2   0   1                         # n, l, Nzeta 
   4.192   
   1.000   
 n=2   1   1                         # n, l, Nzeta 
   4.870   
   1.000   
O                     2                    # Species label, number of l-shells
 n=2   0   1                         # n, l, Nzeta 
   3.305   
   1.000   
 n=2   1   1                         # n, l, Nzeta 
   3.937   
   1.000   
%endblock PAO.Basis

prinput: ----------------------------------------------------------------------

coor:   Atomic-coordinates input format  =     Fractional

siesta: Atomic coordinates (Bohr) and species
siesta:      0.00000   0.00000   0.00000  1        1
siesta:     12.37759   5.72419   3.74139  1        2
siesta:      6.18879   2.86210   1.87070  2        3
siesta:     -6.18879  -2.86210  -1.87070  2        4
siesta:      7.18051   0.64401   1.87070  3        5
siesta:      6.26741   4.12249  -0.20503  3        6
siesta:      5.11846   3.81979   3.94642  3        7
siesta:     -7.18051  -0.64401  -1.87070  3        8
siesta:     -6.26741  -4.12249   0.20503  3        9
siesta:     -5.11846  -3.81979  -3.94642  3       10

siesta: System type = bulk      

initatomlists: Number of atoms, orbitals, and projectors:     10    34    80

siesta: ******************** Simulation parameters ****************************
siesta:
siesta: The following are some of the parameters of the simulation.
siesta: A complete list of the parameters used, including default values,
siesta: can be found in file out.fdf
siesta:
redata: Non-Collinear-spin run           =     F
redata: SpinPolarized (Up/Down) run      =     F
redata: Number of spin components        =     1
redata: Long output                      =     F
redata: Number of Atomic Species         =        3
redata: Charge density info will appear in .RHO file
redata: Write Mulliken Pop.              =     NO
redata: Mesh Cutoff                      =   100.0000  Ry
redata: Net charge of the system         =     0.0000 |e|
redata: Max. number of SCF Iter          =       20
redata: Broyden mixing with     4 saved histories.
redata: Mix DM in first SCF step ?       =     F
redata: Write Pulay info on disk?        =     F
redata: Discard 1st Pulay DM after  kick =     F
redata: New DM Mixing Weight             =     0.1000
redata: New DM Occupancy tolerance       = 0.000000000001
redata: No kicks to SCF
redata: DM Mixing Weight for Kicks       =     0.5000
redata: DM Tolerance for SCF             =     0.001000
redata: Require Energy convergence for SCF =     F
redata: DM Energy tolerance for SCF      =     0.000100 eV
redata: Require Harris convergence for SCF =     F
redata: DM Harris energy tolerance for SCF =     0.000100 eV
redata: Using Saved Data (generic)   =     F
redata: Use continuation files for DM    =     T
redata: Neglect nonoverlap interactions  =     F
redata: Method of Calculation            =     Diagonalization
redata: Divide and Conquer               =     T
redata: Electronic Temperature           =     0.0019  Ry
redata: Fix the spin of the system       =     F
redata: Dynamics option                  =     CG coord. optimization
redata: Variable cell                    =     T
redata: Use continuation files for CG    =     F
redata: Max atomic displ per move        =     0.2000  Bohr
redata: Maximum number of CG moves       =       10
redata: Force tolerance                  =     0.0016  Ry/Bohr
redata: Stress tolerance                 =     1.0000  GPa
redata: ***********************************************************************
Total number of electrons:    48.000000
Total ionic charge:    48.000000

* ProcessorY, Blocksize:    1  17

 Kpoints in:          100 . Kpoints trimmed:           62

siesta: k-grid: Number of k-points =    62
siesta: k-grid: Cutoff (effective) =    11.356 Ang
siesta: k-grid: Supercell and displacements
siesta: k-grid:    5  -5   0      0.500
siesta: k-grid:    0  -5   5      0.000
siesta: k-grid:    0   0   4      0.000
Naive supercell factors:     4    4    4
Auxiliary supercell needs to be larger than naive one...
Auxiliary supercell needs to be larger than naive one...

superc: Internal auxiliary supercell:     5 x     5 x     4  =     100
superc: Number of atoms, orbitals, and projectors:   1000   3400   8000

* Maximum dynamic memory allocated =     3 MB

siesta:                 ==============================
                            Begin CG move =      0
                        ==============================

outcoor: Atomic coordinates (fractional):                   
    0.00000000    0.00000000    0.00000000   1       1  Mg
    0.50000000    0.50000000    0.50000000   1       2  Mg
    0.25000000    0.25000000    0.25000000   2       3  C
   -0.25000000   -0.25000000   -0.25000000   2       4  C
    0.52740000   -0.02740000    0.25000000   3       5  O
    0.25000000    0.52740000   -0.02740000   3       6  O
   -0.02740000    0.25000000    0.52740000   3       7  O
   -0.52740000    0.02740000   -0.25000000   3       8  O
   -0.25000000   -0.52740000    0.02740000   3       9  O
    0.02740000   -0.25000000   -0.52740000   3      10  O

superc: Internal auxiliary supercell:     5 x     5 x     4  =     100
superc: Number of atoms, orbitals, and projectors:   1000   3400   8000

outcell: Unit cell vectors (Ang):
        5.677830    0.000000    0.000000
        3.786009    4.231299    0.000000
        3.636033    1.826925    3.959718

outcell: Cell vector modules (Ang)   :    5.677830    5.677830    5.677830
outcell: Cell angles (23,13,12) (deg):     48.1790     50.1790     48.1790
outcell: Cell volume (Ang**3)        :     95.1306
New_DM. Step:     1
Initializing Density Matrix...

InitMesh: MESH =    32 x    32 x    32 =       32768
InitMesh: Mesh cutoff (required, used) =   100.000   113.739 Ry

* Maximum dynamic memory allocated =    10 MB

stepf: Fermi-Dirac step function
 Broyden: No of relevant DM elements:         9718
 maxit for broyden:            4
 cycle on maxit:  T
 variable weight:  T
 initial alpha:   0.10000000000000001     

siesta: Program's energy decomposition (eV):
siesta: Ebs     =      -692.855395
siesta: Eions   =      5228.674091
siesta: Ena     =      1094.137208
siesta: Ekin    =      2100.835149
siesta: Enl     =      -258.862835
siesta: DEna    =        -0.000019
siesta: DUscf   =         0.000000
siesta: DUext   =         0.000000
siesta: Exc     =      -682.142452
siesta: eta*DQ  =         0.000000
siesta: Emadel  =         0.000000
siesta: Emeta   =         0.000000
siesta: Emolmec =         0.000000
siesta: Ekinion =         0.000000
siesta: Eharris =     -2966.454854
siesta: Etot    =     -2974.707041
siesta: FreeEng =     -2974.707041

siesta: iscf   Eharris(eV)      E_KS(eV)   FreeEng(eV)   dDmax  Ef(eV)
siesta:    1    -2966.4549    -2974.7070    -2974.7070  1.7486 -2.8753
timer: Routine,Calls,Time,% = IterSCF        1       4.213  74.72
elaps: Routine,Calls,Wall,% = IterSCF        1       2.529  76.43
siesta:    2    -2967.9627    -2949.8931    -2949.8931  0.8244 -2.0897
siesta:    3    -2963.9013    -2951.4716    -2951.4716  0.6368 -1.9635
siesta:    4    -2957.8626    -2954.2194    -2954.2194  0.0536 -2.7334
siesta:    5    -2957.8282    -2954.7986    -2954.7986  0.0397 -2.7470
siesta:    6    -2957.8194    -2956.0871    -2956.0871  0.0238 -2.8238
Cycling the Broyden process...
siesta:    7    -2957.8156    -2957.7335    -2957.7335  0.0054 -2.8862
Cycling the Broyden process...
siesta:    8    -2957.8151    -2957.5808    -2957.5808  0.0035 -2.8781
Cycling the Broyden process...
siesta:    9    -2957.8151    -2957.8029    -2957.8029  0.0002 -2.8743

siesta: E_KS(eV) =            -2957.8118

siesta: E_KS - E_eggbox =     -2957.8118

siesta: Atomic forces (eV/Ang):
     1    0.000000    0.000000   -0.000000
     2   -0.000000   -0.000000    0.000000
     3   -1.138378    1.018594    2.207659
     4    1.138383   -1.018600   -2.207663
     5    2.893455   -7.217899    0.547145
     6    0.087948    4.550212   -6.329026
     7   -1.878587    1.680910    3.643199
     8   -2.893457    7.217901   -0.547142
     9   -0.087952   -4.550209    6.329019
    10    1.878585   -1.680902   -3.643207
----------------------------------------
   Tot   -0.000003    0.000007   -0.000016
----------------------------------------
   Max    7.217901
   Res    3.145080    sqrt( Sum f_i^2 / 3N )
----------------------------------------
   Max    7.217901    constrained

Stress-tensor-Voigt (kbar):      118.98     -203.32     -122.75      139.76      126.40       40.99
(Free)E + p*V (eV/cell)    -2953.7130
Target enthalpy (eV/cell)    -2957.8118

siesta: Stress tensor (static) (eV/Ang**3):
         0.074259    0.087232    0.025583
         0.087231   -0.126903    0.078890
         0.025583    0.078890   -0.076615

siesta: Pressure (static):         69.03238502  kBar

siesta: Stress tensor (total) (eV/Ang**3):
         0.074259    0.087232    0.025583
         0.087231   -0.126903    0.078890
         0.025583    0.078890   -0.076615

siesta: Pressure (total):         69.03238502  kBar

cgvc: No target stress found, assuming hydrostatic MD.TargetPressure.
***Target stress set to zero for constant-volume calculation

cgvc: Target stress (kBar)
cgvc:         0.000       0.000       0.000
cgvc:         0.000       0.000       0.000
cgvc:         0.000       0.000       0.000
Volume before coercion:      95.1272

* Maximum dynamic memory allocated =    10 MB

siesta:                 ==============================
                            Begin CG move =      1
                        ==============================

outcoor: Atomic coordinates (fractional):                   
    0.00000000    0.00000000    0.00000000   1       1  Mg
    0.50000000    0.50000000    0.50000000   1       2  Mg
    0.24800910    0.25000002    0.25199087   2       3  C
   -0.24800909   -0.25000002   -0.25199088   2       4  C
    0.53246035   -0.03343305    0.24984620   3       5  O
    0.25015381    0.53343300   -0.03246033   3       6  O
   -0.03068545    0.25000003    0.53068546   3       7  O
   -0.53246035    0.03343305   -0.24984620   3       8  O
   -0.25015382   -0.53343300    0.03246032   3       9  O
    0.03068545   -0.25000002   -0.53068547   3      10  O
 Kpoints in:           60 . Kpoints trimmed:           60
Auxiliary supercell needs to be larger than naive one...

siesta: k-grid: Number of k-points =    60
siesta: k-grid: Cutoff (effective) =    11.306 Ang
siesta: k-grid: Supercell and displacements
siesta: k-grid:    5  -5   0      0.500
siesta: k-grid:    0  -5   5      0.000
siesta: k-grid:    4   0   0      0.000
Naive supercell factors:     4    4    4
Auxiliary supercell needs to be larger than naive one...

superc: Internal auxiliary supercell:     5 x     5 x     4  =     100
superc: Number of atoms, orbitals, and projectors:   1000   3400   8000

outcell: Unit cell vectors (Ang):
        5.652723   -0.018715   -0.005489
        3.755321    4.232272   -0.016273
        3.610105    1.808944    3.955822

outcell: Cell vector modules (Ang)   :    5.652757    5.658164    5.652757
outcell: Cell angles (23,13,12) (deg):     48.6069     50.4388     48.6069
outcell: Cell volume (Ang**3)        :     95.1306
New_DM. Step:     2
Re-using DM from previous geometry...
Re-using DM without extrapolation (not allowed)
Density Matrix sparsity pattern changed.

InitMesh: MESH =    30 x    30 x    30 =       27000
InitMesh: Mesh cutoff (required, used) =   100.000   101.217 Ry

siesta: iscf   Eharris(eV)      E_KS(eV)   FreeEng(eV)   dDmax  Ef(eV)
siesta:    1    -2958.6905    -2956.6875    -2956.6875  0.0653 -3.4373
siesta:    2    -2958.7420    -2958.5809    -2958.5809  0.0682 -3.2182
siesta:    3    -2958.6942    -2958.5943    -2958.5943  0.0519 -3.2439
siesta:    4    -2958.6434    -2958.6117    -2958.6117  0.0081 -3.3021
siesta:    5    -2958.6421    -2958.6234    -2958.6234  0.0043 -3.3163
siesta:    6    -2958.6418    -2958.6248    -2958.6248  0.0019 -3.3190
Cycling the Broyden process...
siesta:    7    -2958.6417    -2958.6383    -2958.6383  0.0001 -3.3230

siesta: E_KS(eV) =            -2958.6387

siesta: Atomic forces (eV/Ang):
     1   -0.000000   -0.000000   -0.000000
     2    0.000000    0.000000   -0.000000
     3   -0.310449    0.277786    0.602037
     4    0.310444   -0.277785   -0.602033
     5    1.677543   -4.591957    0.376718
     6    0.140504    2.965201   -3.902500
     7   -1.597447    1.429357    3.097971
     8   -1.677538    4.591958   -0.376707
     9   -0.140519   -2.965192    3.902505
    10    1.597432   -1.429346   -3.097982
----------------------------------------
   Tot   -0.000029    0.000021    0.000008
----------------------------------------
   Max    4.591958
   Res    2.046332    sqrt( Sum f_i^2 / 3N )
----------------------------------------
   Max    4.591958    constrained

Stress-tensor-Voigt (kbar):      144.59      -75.25      -34.72      100.34       78.14       37.56
(Free)E + p*V (eV/cell)    -2959.3239
Target enthalpy (eV/cell)    -2958.6387

siesta: Stress tensor (static) (eV/Ang**3):
         0.090245    0.062628    0.023441
         0.062630   -0.046966    0.048771
         0.023441    0.048771   -0.021671

siesta: Pressure (static):        -11.53998489  kBar

siesta: Stress tensor (total) (eV/Ang**3):
         0.090245    0.062628    0.023441
         0.062630   -0.046966    0.048771
         0.023441    0.048771   -0.021671

siesta: Pressure (total):        -11.53998489  kBar
Volume before coercion:      95.1072

* Maximum dynamic memory allocated =    10 MB

siesta:                 ==============================
                            Begin CG move =      2
                        ==============================

outcoor: Atomic coordinates (fractional):                   
    0.00000000    0.00000000    0.00000000   1       1  Mg
    0.50000000    0.50000000    0.50000000   1       2  Mg
    0.24482365    0.25000005    0.25517627   2       3  C
   -0.24482363   -0.25000006   -0.25517628   2       4  C
    0.54055691   -0.04308593    0.24960012   3       5  O
    0.25039991    0.54308580   -0.04055686   3       6  O
   -0.03594218    0.25000007    0.53594220   3       7  O
   -0.54055692    0.04308593   -0.24960011   3       8  O
   -0.25039993   -0.54308580    0.04055683   3       9  O
    0.03594217   -0.25000005   -0.53594223   3      10  O
 Kpoints in:           60 . Kpoints trimmed:           60
Auxiliary supercell needs to be larger than naive one...

siesta: k-grid: Number of k-points =    60
siesta: k-grid: Cutoff (effective) =    11.226 Ang
siesta: k-grid: Supercell and displacements
siesta: k-grid:    5  -5   0      0.500
siesta: k-grid:    0  -5   5      0.000
siesta: k-grid:    4   0   0      0.000
Naive supercell factors:     4    4    4
Auxiliary supercell needs to be larger than naive one...

superc: Internal auxiliary supercell:     5 x     5 x     4  =     100
superc: Number of atoms, orbitals, and projectors:   1000   3400   8000

outcell: Unit cell vectors (Ang):
        5.612834   -0.048662   -0.014272
        3.706405    4.234042   -0.042313
        3.568799    1.780265    3.949787

outcell: Cell vector modules (Ang)   :    5.613063    5.627286    5.613064
outcell: Cell angles (23,13,12) (deg):     49.2985     50.8585     49.2985
outcell: Cell volume (Ang**3)        :     95.1306
New_DM. Step:     3
Re-using DM from previous geometry...
Re-using DM without extrapolation (not allowed)

InitMesh: MESH =    30 x    30 x    30 =       27000
InitMesh: Mesh cutoff (required, used) =   100.000   103.259 Ry

siesta: iscf   Eharris(eV)      E_KS(eV)   FreeEng(eV)   dDmax  Ef(eV)
siesta:    1    -2959.5757    -2956.6506    -2956.6506  0.1083 -3.8039
siesta:    2    -2959.7726    -2959.2562    -2959.2562  0.1199 -3.6141
siesta:    3    -2959.6120    -2959.2986    -2959.2986  0.0902 -3.6181
siesta:    4    -2959.4456    -2959.3494    -2959.3494  0.0107 -3.6382
siesta:    5    -2959.4434    -2959.3753    -2959.3753  0.0084 -3.6603
siesta:    6    -2959.4419    -2959.3894    -2959.3894  0.0035 -3.6695
Cycling the Broyden process...
siesta:    7    -2959.4416    -2959.4289    -2959.4289  0.0002 -3.6743

siesta: E_KS(eV) =            -2959.4306

siesta: Atomic forces (eV/Ang):
     1   -0.000000   -0.000000   -0.000001
     2    0.000000   -0.000000   -0.000000
     3    0.628919   -0.562738   -1.219689
     4   -0.628924    0.562746    1.219689
     5    0.314849   -1.565001    0.187881
     6    0.170897    1.130347   -1.129864
     7   -1.026883    0.918822    1.991474
     8   -0.314856    1.564993   -0.187877
     9   -0.170904   -1.130333    1.129864
    10    1.026884   -0.918836   -1.991455
----------------------------------------
   Tot   -0.000018   -0.000001    0.000022
----------------------------------------
   Max    1.991474
   Res    0.939207    sqrt( Sum f_i^2 / 3N )
----------------------------------------
   Max    1.991474    constrained

Stress-tensor-Voigt (kbar):      150.21       75.70       79.05       39.25       22.20       18.12
(Free)E + p*V (eV/cell)    -2965.4663
Target enthalpy (eV/cell)    -2959.4306

siesta: Stress tensor (static) (eV/Ang**3):
         0.093756    0.024489    0.011313
         0.024496    0.047245    0.013857
         0.011310    0.013854    0.049340

siesta: Pressure (static):       -101.65418801  kBar

siesta: Stress tensor (total) (eV/Ang**3):
         0.093756    0.024489    0.011313
         0.024496    0.047245    0.013857
         0.011310    0.013854    0.049340

siesta: Pressure (total):       -101.65418801  kBar
Volume before coercion:      95.0384

* Maximum dynamic memory allocated =    10 MB

siesta:                 ==============================
                            Begin CG move =      3
                        ==============================

outcoor: Atomic coordinates (fractional):                   
    0.00000000    0.00000000    0.00000000   1       1  Mg
    0.50000000    0.50000000    0.50000000   1       2  Mg
    0.23972694    0.25000011    0.26027291   2       3  C
   -0.23972689   -0.25000012   -0.26027293   2       4  C
    0.55351141   -0.05853054    0.24920639   3       5  O
    0.25079367    0.55853029   -0.05351130   3       6  O
   -0.04435294    0.25000013    0.54435299   3       7  O
   -0.55351143    0.05853055   -0.24920637   3       8  O
   -0.25079371   -0.55853029    0.05351125   3       9  O
    0.04435291   -0.25000010   -0.54435303   3      10  O
 Kpoints in:           60 . Kpoints trimmed:           60
Auxiliary supercell needs to be larger than naive one...

siesta: k-grid: Number of k-points =    60
siesta: k-grid: Cutoff (effective) =    11.101 Ang
siesta: k-grid: Supercell and displacements
siesta: k-grid:    5  -5   0      0.500
siesta: k-grid:    0  -5   5      0.000
siesta: k-grid:    4   0   0      0.000
Naive supercell factors:     4    4    4
Auxiliary supercell needs to be larger than naive one...

superc: Internal auxiliary supercell:     5 x     5 x     4  =     100
superc: Number of atoms, orbitals, and projectors:   1000   3400   8000

outcell: Unit cell vectors (Ang):
        5.549719   -0.096599   -0.028330
        3.628595    4.237425   -0.083995
        3.503152    1.734594    3.940640

outcell: Cell vector modules (Ang)   :    5.550632    5.579384    5.550633
outcell: Cell angles (23,13,12) (deg):     50.4233     51.5406     50.4233
outcell: Cell volume (Ang**3)        :     95.1306
New_DM. Step:     4
Re-using DM from previous geometry...
Re-using DM without extrapolation (not allowed)
Density Matrix sparsity pattern changed.

InitMesh: MESH =    30 x    30 x    30 =       27000
InitMesh: Mesh cutoff (required, used) =   100.000   106.629 Ry

siesta: iscf   Eharris(eV)      E_KS(eV)   FreeEng(eV)   dDmax  Ef(eV)
siesta:    1    -2959.6409    -2955.5811    -2955.5811  0.1802 -4.1575
siesta:    2    -2960.5150    -2958.6043    -2958.6043  0.2327 -4.2109
siesta:    3    -2959.8935    -2958.7595    -2958.7595  0.1708 -4.1559
siesta:    4    -2959.2592    -2958.9250    -2958.9250  0.0244 -4.0268
siesta:    5    -2959.2529    -2958.9591    -2958.9591  0.0133 -4.0496
siesta:    6    -2959.2515    -2959.0897    -2959.0897  0.0100 -4.0913
Cycling the Broyden process...
siesta:    7    -2959.2495    -2959.1916    -2959.1916  0.0007 -4.0859

siesta: E_KS(eV) =            -2959.2039

siesta: Atomic forces (eV/Ang):
     1   -0.000001   -0.000001   -0.000001
     2   -0.000000   -0.000001   -0.000001
     3    1.526564   -1.365935   -2.960509
     4   -1.526572    1.365940    2.960510
     5   -1.184427    1.948839    0.065161
     6    0.085830   -0.965813    2.065735
     7   -0.286589    0.256461    0.555759
     8    1.184805   -1.949100   -0.065576
     9   -0.085989    0.966011   -2.065154
    10    0.286581   -0.256457   -0.555765
----------------------------------------
   Tot    0.000201   -0.000055    0.000160
----------------------------------------
   Max    2.960510
   Res    1.260425    sqrt( Sum f_i^2 / 3N )
----------------------------------------
   Max    2.960510    constrained

Stress-tensor-Voigt (kbar):      151.42      269.93      231.80      -43.33      -46.47      -14.17
(Free)E + p*V (eV/cell)    -2972.1309
Target enthalpy (eV/cell)    -2959.2039

siesta: Stress tensor (static) (eV/Ang**3):
         0.094511   -0.027068   -0.008832
        -0.027044    0.168475   -0.028994
        -0.008842   -0.029006    0.144676

siesta: Pressure (static):       -217.71807647  kBar

siesta: Stress tensor (total) (eV/Ang**3):
         0.094511   -0.027068   -0.008832
        -0.027044    0.168475   -0.028994
        -0.008842   -0.029006    0.144676

siesta: Pressure (total):       -217.71807647  kBar
Volume before coercion:      95.0829

* Maximum dynamic memory allocated =    10 MB

siesta:                 ==============================
                            Begin CG move =      4
                        ==============================

outcoor: Atomic coordinates (fractional):                   
    0.00000000    0.00000000    0.00000000   1       1  Mg
    0.50000000    0.50000000    0.50000000   1       2  Mg
    0.24261012    0.25000008    0.25738977   2       3  C
   -0.24261009   -0.25000008   -0.25738979   2       4  C
    0.54618313   -0.04979361    0.24942912   3       5  O
    0.25057092    0.54979343   -0.04618305   3       6  O
   -0.03959502    0.25000009    0.53959506   3       7  O
   -0.54618314    0.04979362   -0.24942911   3       8  O
   -0.25057095   -0.54979343    0.04618301   3       9  O
    0.03959500   -0.25000007   -0.53959509   3      10  O
 Kpoints in:           60 . Kpoints trimmed:           60

siesta: k-grid: Number of k-points =    60
siesta: k-grid: Cutoff (effective) =    11.172 Ang
siesta: k-grid: Supercell and displacements
Auxiliary supercell needs to be larger than naive one...
siesta: k-grid:    5  -5   0      0.500
siesta: k-grid:    0  -5   5      0.000
siesta: k-grid:    4   0   0      0.000
Naive supercell factors:     4    4    4
Auxiliary supercell needs to be larger than naive one...

superc: Internal auxiliary supercell:     5 x     5 x     4  =     100
superc: Number of atoms, orbitals, and projectors:   1000   3400   8000

outcell: Unit cell vectors (Ang):
        5.585317   -0.069477   -0.020376
        3.672544    4.235428   -0.060412
        3.540222    1.760398    3.945737

outcell: Cell vector modules (Ang)   :    5.585786    5.606254    5.585787
outcell: Cell angles (23,13,12) (deg):     49.7843     51.1531     49.7843
outcell: Cell volume (Ang**3)        :     95.1306
New_DM. Step:     5
Re-using DM from previous geometry...
Re-using DM without extrapolation (not allowed)
Density Matrix sparsity pattern changed.

InitMesh: MESH =    30 x    30 x    30 =       27000
InitMesh: Mesh cutoff (required, used) =   100.000   104.706 Ry

siesta: iscf   Eharris(eV)      E_KS(eV)   FreeEng(eV)   dDmax  Ef(eV)
siesta:    1    -2959.6687    -2961.5304    -2961.5304  0.0968 -3.7814
siesta:    2    -2959.8713    -2959.3870    -2959.3870  0.1330 -3.8659
siesta:    3    -2959.6939    -2959.4246    -2959.4246  0.0860 -3.8847
siesta:    4    -2959.5567    -2959.4643    -2959.4643  0.0206 -3.9022
siesta:    5    -2959.5503    -2959.4856    -2959.4856  0.0082 -3.8839
siesta:    6    -2959.5494    -2959.4985    -2959.4985  0.0032 -3.8739
Cycling the Broyden process...
siesta:    7    -2959.5493    -2959.5372    -2959.5372  0.0004 -3.8678

siesta: E_KS(eV) =            -2959.5397

siesta: Atomic forces (eV/Ang):
     1   -0.000000   -0.000001   -0.000000
     2   -0.000000    0.000000   -0.000000
     3    1.128449   -1.009703   -2.188439
     4   -1.128454    1.009709    2.188441
     5   -0.501193    0.284690    0.133949
     6    0.135925    0.042102    0.574468
     7   -0.693784    0.620849    1.345555
     8    0.501193   -0.284699   -0.133962
     9   -0.135930   -0.042101   -0.574461
    10    0.693790   -0.620838   -1.345557
----------------------------------------
   Tot   -0.000007    0.000009   -0.000007
----------------------------------------
   Max    2.188441
   Res    0.835062    sqrt( Sum f_i^2 / 3N )
----------------------------------------
   Max    2.188441    constrained

Stress-tensor-Voigt (kbar):      153.78      172.83      156.81       -2.71      -12.23        3.53
(Free)E + p*V (eV/cell)    -2969.1074
Target enthalpy (eV/cell)    -2959.5397

siesta: Stress tensor (static) (eV/Ang**3):
         0.095980   -0.001699    0.002208
        -0.001692    0.107869   -0.007632
         0.002204   -0.007636    0.097875

siesta: Pressure (static):       -161.14031826  kBar

siesta: Stress tensor (total) (eV/Ang**3):
         0.095980   -0.001699    0.002208
        -0.001692    0.107869   -0.007632
         0.002204   -0.007636    0.097875

siesta: Pressure (total):       -161.14031826  kBar

cgvc: Finished line minimization    1.  Mean atomic displacement =    0.1853
Volume before coercion:      95.0624

* Maximum dynamic memory allocated =    10 MB

siesta:                 ==============================
                            Begin CG move =      5
                        ==============================

outcoor: Atomic coordinates (fractional):                   
   -0.00000001   -0.00000001   -0.00000001   1       1  Mg
    0.49999999    0.50000000    0.49999999   1       2  Mg
    0.26125008    0.24999998    0.23874966   2       3  C
   -0.26125014   -0.24999997   -0.23874968   2       4  C
    0.54305000   -0.05920141    0.24680071   3       5  O
    0.25319905    0.55920065   -0.04304928   3       6  O
   -0.05651081    0.25000118    0.55651231   3       7  O
   -0.54305002    0.05920128   -0.24680093   3       8  O
   -0.25319918   -0.55920070    0.04304926   3       9  O
    0.05651089   -0.25000092   -0.55651226   3      10  O
 Kpoints in:           60 . Kpoints trimmed:           60
Auxiliary supercell needs to be larger than naive one...

siesta: k-grid: Number of k-points =    60
siesta: k-grid: Cutoff (effective) =    11.133 Ang
siesta: k-grid: Supercell and displacements
siesta: k-grid:    5  -5   0      0.500
siesta: k-grid:    0  -5   5      0.000
siesta: k-grid:    4   0   0      0.000
Naive supercell factors:     4    4    4
Auxiliary supercell needs to be larger than naive one...

superc: Internal auxiliary supercell:     5 x     5 x     4  =     100
superc: Number of atoms, orbitals, and projectors:   1000   3400   8000

outcell: Unit cell vectors (Ang):
        5.565754   -0.088255   -0.032060
        3.645506    4.227011   -0.070470
        3.513504    1.748023    3.947936

outcell: Cell vector modules (Ang)   :    5.566546    5.582320    5.566552
outcell: Cell angles (23,13,12) (deg):     50.1322     51.5356     50.1321
outcell: Cell volume (Ang**3)        :     95.1306
New_DM. Step:     6
Re-using DM from previous geometry...
Re-using DM without extrapolation (not allowed)
Density Matrix sparsity pattern changed.

InitMesh: MESH =    30 x    30 x    30 =       27000
InitMesh: Mesh cutoff (required, used) =   100.000   105.937 Ry

siesta: iscf   Eharris(eV)      E_KS(eV)   FreeEng(eV)   dDmax  Ef(eV)
siesta:    1    -2959.9230    -2957.1340    -2957.1340  0.1252 -4.1664
siesta:    2    -2963.6324    -2957.5589    -2957.5589  0.5663 -1.9352
siesta:    3    -2960.4495    -2957.9416    -2957.9416  0.2162 -2.6788
siesta:    4    -2959.3550    -2958.2161    -2958.2161  0.1216 -3.1059
siesta:    5    -2959.1141    -2958.4212    -2958.4212  0.0489 -3.0575
siesta:    6    -2959.0941    -2958.5754    -2958.5754  0.0186 -3.0872
Cycling the Broyden process...
siesta:    7    -2959.0925    -2958.6681    -2958.6681  0.0127 -3.0962
Cycling the Broyden process...
siesta:    8    -2959.0905    -2959.0076    -2959.0076  0.0039 -3.1072
Cycling the Broyden process...
siesta:    9    -2959.0905    -2959.0246    -2959.0246  0.0031 -3.1078
Cycling the Broyden process...
siesta:   10    -2959.0904    -2959.0923    -2959.0923  0.0002 -3.1089

siesta: E_KS(eV) =            -2959.0910

siesta: Atomic forces (eV/Ang):
     1    0.000002   -0.000001    0.000002
     2   -0.000000   -0.000004    0.000002
     3   -1.500968    1.343045    2.911019
     4    1.500975   -1.343064   -2.911016
     5    0.609498    0.861822   -0.289961
     6   -0.465379   -0.990776    0.010508
     7    1.345827   -1.204037   -2.609829
     8   -0.609469   -0.861786    0.289970
     9    0.465387    0.990779   -0.010495
    10   -1.345807    1.204062    2.609838
----------------------------------------
   Tot    0.000065    0.000041    0.000039
----------------------------------------
   Max    2.911019
   Res    1.290982    sqrt( Sum f_i^2 / 3N )
----------------------------------------
   Max    2.911019    constrained

Stress-tensor-Voigt (kbar):      155.94      187.60      281.68      -49.93       43.96      -71.19
(Free)E + p*V (eV/cell)    -2971.4652
Target enthalpy (eV/cell)    -2959.0910

siesta: Stress tensor (static) (eV/Ang**3):
         0.097328   -0.031158   -0.044435
        -0.031162    0.117092    0.027436
        -0.044433    0.027437    0.175808

siesta: Pressure (static):       -208.40735989  kBar

siesta: Stress tensor (total) (eV/Ang**3):
         0.097328   -0.031158   -0.044435
        -0.031162    0.117092    0.027436
        -0.044433    0.027437    0.175808

siesta: Pressure (total):       -208.40735989  kBar
Volume before coercion:      95.0762

* Maximum dynamic memory allocated =    10 MB

siesta:                 ==============================
                            Begin CG move =      6
                        ==============================

outcoor: Atomic coordinates (fractional):                   
   -0.00000000   -0.00000000   -0.00000000   1       1  Mg
    0.50000000    0.50000000    0.50000000   1       2  Mg
    0.24919030    0.25000004    0.25080954   2       3  C
   -0.24919030   -0.25000004   -0.25080956   2       4  C
    0.54507709   -0.05311470    0.24850125   3       5  O
    0.25149869    0.55311432   -0.04507678   3       6  O
   -0.04556654    0.25000048    0.54556710   3       7  O
   -0.54507710    0.05311466   -0.24850132   3       8  O
   -0.25149876   -0.55311433    0.04507675   3       9  O
    0.04556656   -0.25000037   -0.54556709   3      10  O
 Kpoints in:           60 . Kpoints trimmed:           60
Auxiliary supercell needs to be larger than naive one...

siesta: k-grid: Number of k-points =    60
siesta: k-grid: Cutoff (effective) =    11.158 Ang
siesta: k-grid: Supercell and displacements
siesta: k-grid:    5  -5   0      0.500
siesta: k-grid:    0  -5   5      0.000
siesta: k-grid:    4   0   0      0.000
Naive supercell factors:     4    4    4
Auxiliary supercell needs to be larger than naive one...

superc: Internal auxiliary supercell:     5 x     5 x     4  =     100
superc: Number of atoms, orbitals, and projectors:   1000   3400   8000

outcell: Unit cell vectors (Ang):
        5.578400   -0.076106   -0.024501
        3.662993    4.232448   -0.063963
        3.530784    1.756026    3.946506

outcell: Cell vector modules (Ang)   :    5.578973    5.597787    5.578976
outcell: Cell angles (23,13,12) (deg):     49.9068     51.2879     49.9068
outcell: Cell volume (Ang**3)        :     95.1306
New_DM. Step:     7
Re-using DM from previous geometry...
Re-using DM without extrapolation (not allowed)
Density Matrix sparsity pattern changed.

InitMesh: MESH =    30 x    30 x    30 =       27000
InitMesh: Mesh cutoff (required, used) =   100.000   105.138 Ry

siesta: iscf   Eharris(eV)      E_KS(eV)   FreeEng(eV)   dDmax  Ef(eV)
siesta:    1    -2960.0012    -2960.8506    -2960.8506  0.0873 -3.1388
siesta:    2    -2961.3749    -2959.0338    -2959.0338  0.2768 -3.2576
siesta:    3    -2960.3310    -2959.2040    -2959.2040  0.1834 -3.2437
siesta:    4    -2959.6604    -2959.3238    -2959.3238  0.0193 -4.3345
siesta:    5    -2959.6598    -2959.3662    -2959.3662  0.0165 -4.3369
siesta:    6    -2959.6579    -2959.6069    -2959.6069  0.0021 -4.3319
Cycling the Broyden process...
siesta:    7    -2959.6578    -2959.6150    -2959.6150  0.0014 -4.3321
Cycling the Broyden process...
siesta:    8    -2959.6579    -2959.6128    -2959.6128  0.0016 -4.3320
Cycling the Broyden process...
siesta:    9    -2959.6579    -2959.6596    -2959.6596  0.0001 -4.3327

siesta: E_KS(eV) =            -2959.6571

siesta: Atomic forces (eV/Ang):
     1   -0.000001    0.000001    0.000002
     2    0.000000    0.000001   -0.000003
     3   -0.103614    0.092704    0.200995
     4    0.103614   -0.092720   -0.200989
     5   -0.377497    0.298092   -0.076721
     6    0.199335   -0.138703    0.422282
     7    0.336775   -0.301254   -0.653053
     8    0.377529   -0.298086    0.076722
     9   -0.199337    0.138703   -0.422278
    10   -0.336767    0.301261    0.653059
----------------------------------------
   Tot    0.000037   -0.000002    0.000016
----------------------------------------
   Max    0.653059
   Res    0.278680    sqrt( Sum f_i^2 / 3N )
----------------------------------------
   Max    0.653059    constrained

Stress-tensor-Voigt (kbar):      157.94      177.17      218.50      -23.47       19.13      -33.99
(Free)E + p*V (eV/cell)    -2970.6140
Target enthalpy (eV/cell)    -2959.6571

siesta: Stress tensor (static) (eV/Ang**3):
         0.098577   -0.014648   -0.021214
        -0.014647    0.110580    0.011939
        -0.021215    0.011938    0.136375

siesta: Pressure (static):       -184.53601539  kBar

siesta: Stress tensor (total) (eV/Ang**3):
         0.098577   -0.014648   -0.021214
        -0.014647    0.110580    0.011939
        -0.021215    0.011938    0.136375

siesta: Pressure (total):       -184.53601539  kBar

cgvc: Finished line minimization    2.  Mean atomic displacement =    0.0654
Volume before coercion:      95.0828

* Maximum dynamic memory allocated =    10 MB

siesta:                 ==============================
                            Begin CG move =      7
                        ==============================

outcoor: Atomic coordinates (fractional):                   
   -0.00000002   -0.00000001    0.00000001   1       1  Mg
    0.50000000    0.50000001    0.49999997   1       2  Mg
    0.25195719    0.24999994    0.24804313   2       3  C
   -0.25195722   -0.25000012   -0.24804316   2       4  C
    0.53878061   -0.05559576    0.24497932   3       5  O
    0.25502055    0.55559497   -0.03877978   3       6  O
   -0.04445632    0.25000160    0.54445822   3       7  O
   -0.53878016    0.05559606   -0.24497911   3       8  O
   -0.25502066   -0.55559501    0.03877978   3       9  O
    0.04445647   -0.25000129   -0.54445803   3      10  O
 Kpoints in:           60 . Kpoints trimmed:           60

siesta: k-grid: Number of k-points =    60
siesta: k-grid: Cutoff (effective) =    11.208 Ang
siesta: k-grid: Supercell and displacements
siesta: k-grid:    5  -5   0      0.500
siesta: k-grid:    0  -5   5      0.000
siesta: k-grid:    4   0   0      0.000
Auxiliary supercell needs to be larger than naive one...
Naive supercell factors:     4    4    4
Auxiliary supercell needs to be larger than naive one...

superc: Internal auxiliary supercell:     5 x     5 x     4  =     100
superc: Number of atoms, orbitals, and projectors:   1000   3400   8000

outcell: Unit cell vectors (Ang):
        5.603950   -0.053714    0.011516
        3.696717    4.254412   -0.056706
        3.579469    1.757718    3.937662

outcell: Cell vector modules (Ang)   :    5.604219    5.636395    5.604226
outcell: Cell angles (23,13,12) (deg):     49.5655     50.4229     49.5655
outcell: Cell volume (Ang**3)        :     95.1306
New_DM. Step:     8
Re-using DM from previous geometry...
Re-using DM without extrapolation (not allowed)
Density Matrix sparsity pattern changed.

InitMesh: MESH =    30 x    30 x    30 =       27000
InitMesh: Mesh cutoff (required, used) =   100.000   103.397 Ry

siesta: iscf   Eharris(eV)      E_KS(eV)   FreeEng(eV)   dDmax  Ef(eV)
siesta:    1    -2959.6361    -2960.2733    -2960.2733  0.0424 -4.2336
siesta:    2    -2959.6429    -2959.6146    -2959.6146  0.0317 -4.2903
siesta:    3    -2959.6331    -2959.6169    -2959.6169  0.0224 -4.2823
siesta:    4    -2959.6247    -2959.6194    -2959.6194  0.0043 -4.2662
siesta:    5    -2959.6245    -2959.6209    -2959.6209  0.0014 -4.2635
siesta:    6    -2959.6245    -2959.6223    -2959.6223  0.0010 -4.2636

siesta: E_KS(eV) =            -2959.6239

siesta: Atomic forces (eV/Ang):
     1    0.000004   -0.000001    0.000004
     2    0.000012    0.000007   -0.000003
     3   -0.307064    0.274813    0.595573
     4    0.307100   -0.274763   -0.595582
     5    0.950138    0.444877   -0.053159
     6   -0.714517   -0.655717   -0.403778
     7    0.140319   -0.125226   -0.271753
     8   -0.950214   -0.444928    0.053160
     9    0.714521    0.655723    0.403768
    10   -0.140278    0.125281    0.271755
----------------------------------------
   Tot    0.000021    0.000066   -0.000015
----------------------------------------
   Max    0.950214
   Res    0.435192    sqrt( Sum f_i^2 / 3N )
----------------------------------------
   Max    0.950214    constrained

Stress-tensor-Voigt (kbar):      150.54      160.36      177.11      -14.37        3.65      -10.82
(Free)E + p*V (eV/cell)    -2969.2824
Target enthalpy (eV/cell)    -2959.6239

siesta: Stress tensor (static) (eV/Ang**3):
         0.093959   -0.008992   -0.006739
        -0.008967    0.100088    0.002291
        -0.006751    0.002278    0.110539

siesta: Pressure (static):       -162.66923855  kBar

siesta: Stress tensor (total) (eV/Ang**3):
         0.093959   -0.008992   -0.006739
        -0.008967    0.100088    0.002291
        -0.006751    0.002278    0.110539

siesta: Pressure (total):       -162.66923855  kBar
Volume before coercion:      95.0805

* Maximum dynamic memory allocated =    10 MB

siesta:                 ==============================
                            Begin CG move =      8
                        ==============================

outcoor: Atomic coordinates (fractional):                   
   -0.00000001   -0.00000000    0.00000000   1       1  Mg
    0.50000000    0.50000000    0.49999999   1       2  Mg
    0.25008532    0.25000001    0.24991468   2       3  C
   -0.25008533   -0.25000007   -0.24991470   2       4  C
    0.54304034   -0.05391726    0.24736200   3       5  O
    0.25263792    0.55391674   -0.04303986   3       6  O
   -0.04520741    0.25000084    0.54520840   3       7  O
   -0.54304020    0.05391733   -0.24736197   3       8  O
   -0.25263800   -0.55391677    0.04303984   3       9  O
    0.04520747   -0.25000067   -0.54520834   3      10  O
 Kpoints in:           60 . Kpoints trimmed:           60
Auxiliary supercell needs to be larger than naive one...

siesta: k-grid: Number of k-points =    60
siesta: k-grid: Cutoff (effective) =    11.174 Ang
siesta: k-grid: Supercell and displacements
siesta: k-grid:    5  -5   0      0.500
siesta: k-grid:    0  -5   5      0.000
siesta: k-grid:    4   0   0      0.000
Naive supercell factors:     4    4    4
Auxiliary supercell needs to be larger than naive one...

superc: Internal auxiliary supercell:     5 x     5 x     4  =     100
superc: Number of atoms, orbitals, and projectors:   1000   3400   8000

outcell: Unit cell vectors (Ang):
        5.586623   -0.068862   -0.012850
        3.673874    4.239521   -0.061615
        3.546506    1.756560    3.943615

outcell: Cell vector modules (Ang)   :    5.587062    5.610230    5.587066
outcell: Cell angles (23,13,12) (deg):     49.7959     51.0072     49.7959
outcell: Cell volume (Ang**3)        :     95.1306
New_DM. Step:     9
Re-using DM from previous geometry...
Re-using DM without extrapolation (not allowed)
Density Matrix sparsity pattern changed.

InitMesh: MESH =    30 x    30 x    30 =       27000
InitMesh: Mesh cutoff (required, used) =   100.000   104.572 Ry

siesta: iscf   Eharris(eV)      E_KS(eV)   FreeEng(eV)   dDmax  Ef(eV)
siesta:    1    -2959.6957    -2959.2268    -2959.2268  0.0293 -4.3354
siesta:    2    -2959.7022    -2959.6832    -2959.6832  0.0262 -4.3097
siesta:    3    -2959.6953    -2959.6847    -2959.6847  0.0167 -4.3121
siesta:    4    -2959.6896    -2959.6862    -2959.6862  0.0034 -4.3125
siesta:    5    -2959.6895    -2959.6874    -2959.6874  0.0009 -4.3159

siesta: E_KS(eV) =            -2959.6877

siesta: Atomic forces (eV/Ang):
     1    0.000002   -0.000000    0.000001
     2    0.000003    0.000001   -0.000000
     3   -0.187927    0.168178    0.364503
     4    0.187938   -0.168165   -0.364499
     5   -0.027405    0.316451   -0.107237
     6   -0.009473   -0.283506    0.178787
     7    0.277328   -0.248022   -0.537689
     8    0.027391   -0.316468    0.107248
     9    0.009471    0.283467   -0.178804
    10   -0.277313    0.248034    0.537688
----------------------------------------
   Tot    0.000016   -0.000031   -0.000001
----------------------------------------
   Max    0.537689
   Res    0.237882    sqrt( Sum f_i^2 / 3N )
----------------------------------------
   Max    0.537689    constrained

Stress-tensor-Voigt (kbar):      153.09      173.49      206.24      -22.10       13.38      -27.78
(Free)E + p*V (eV/cell)    -2970.2330
Target enthalpy (eV/cell)    -2959.6877

siesta: Stress tensor (static) (eV/Ang**3):
         0.095551   -0.013542   -0.017455
        -0.013796    0.108281    0.008221
        -0.017338    0.008352    0.128722

siesta: Pressure (static):       -177.60518423  kBar

siesta: Stress tensor (total) (eV/Ang**3):
         0.095551   -0.013542   -0.017455
        -0.013796    0.108281    0.008221
        -0.017338    0.008352    0.128722

siesta: Pressure (total):       -177.60518423  kBar

cgvc: Finished line minimization    3.  Mean atomic displacement =    0.0212
Volume before coercion:      95.0853

* Maximum dynamic memory allocated =    10 MB

siesta:                 ==============================
                            Begin CG move =      9
                        ==============================

outcoor: Atomic coordinates (fractional):                   
    0.00000001    0.00000000    0.00000001   1       1  Mg
    0.50000001    0.50000002    0.50000000   1       2  Mg
    0.24902362    0.25000013    0.25097665   2       3  C
   -0.24902356   -0.25000009   -0.25097659   2       4  C
    0.54271565   -0.05265790    0.24732042   3       5  O
    0.25267958    0.55265714   -0.04271520   3       6  O
   -0.04352373    0.25000139    0.54352554   3       7  O
   -0.54271559    0.05265784   -0.24732043   3       8  O
   -0.25267967   -0.55265735    0.04271503   3       9  O
    0.04352388   -0.25000111   -0.54352540   3      10  O
 Kpoints in:           60 . Kpoints trimmed:           60

siesta: k-grid: Number of k-points =    60
siesta: k-grid: Cutoff (effective) =    11.197 Ang
siesta: k-grid: Supercell and displacements
siesta: k-grid:    5  -5   0      0.500
siesta: k-grid:    0  -5   5      0.000
siesta: k-grid:    4   0   0      0.000
Auxiliary supercell needs to be larger than naive one...
Naive supercell factors:     4    4    4
Auxiliary supercell needs to be larger than naive one...

superc: Internal auxiliary supercell:     5 x     5 x     4  =     100
superc: Number of atoms, orbitals, and projectors:   1000   3400   8000

outcell: Unit cell vectors (Ang):
        5.598343   -0.058318    0.000738
        3.689546    4.248047   -0.057467
        3.566879    1.759361    3.940422

outcell: Cell vector modules (Ang)   :    5.598647    5.626896    5.598652
outcell: Cell angles (23,13,12) (deg):     49.6243     50.6630     49.6242
outcell: Cell volume (Ang**3)        :     95.1306
New_DM. Step:    10
Re-using DM from previous geometry...
Re-using DM without extrapolation (not allowed)
Density Matrix sparsity pattern changed.

InitMesh: MESH =    30 x    30 x    30 =       27000
InitMesh: Mesh cutoff (required, used) =   100.000   103.797 Ry

siesta: iscf   Eharris(eV)      E_KS(eV)   FreeEng(eV)   dDmax  Ef(eV)
siesta:    1    -2959.7239    -2960.1505    -2960.1505  0.0193 -4.1644
siesta:    2    -2959.7485    -2959.7027    -2959.7027  0.0337 -4.2335
siesta:    3    -2959.7288    -2959.7061    -2959.7061  0.0200 -4.2201
siesta:    4    -2959.7161    -2959.7088    -2959.7088  0.0040 -4.1981
siesta:    5    -2959.7158    -2959.7116    -2959.7116  0.0013 -4.1953
siesta:    6    -2959.7158    -2959.7121    -2959.7121  0.0012 -4.1951
Cycling the Broyden process...
siesta:    7    -2959.7158    -2959.7150    -2959.7150  0.0000 -4.1941

siesta: E_KS(eV) =            -2959.7159

siesta: Atomic forces (eV/Ang):
     1    0.000001   -0.000006    0.000000
     2   -0.000000   -0.000003    0.000003
     3    0.069239   -0.061942   -0.134212
     4   -0.069242    0.061913    0.134216
     5   -0.052799    0.061719   -0.107085
     6    0.088637   -0.093778    0.037612
     7   -0.031682    0.028655    0.061835
     8    0.052798   -0.061706    0.107073
     9   -0.088602    0.093820   -0.037590
    10    0.031754   -0.028607   -0.061817
----------------------------------------
   Tot    0.000104    0.000067    0.000034
----------------------------------------
   Max    0.134216
   Res    0.067537    sqrt( Sum f_i^2 / 3N )
----------------------------------------
   Max    0.134216    constrained

Stress-tensor-Voigt (kbar):      150.81      159.89      174.97      -10.62        5.54      -12.09
(Free)E + p*V (eV/cell)    -2969.3281
Target enthalpy (eV/cell)    -2959.7159

siesta: Stress tensor (static) (eV/Ang**3):
         0.094129   -0.006627   -0.007547
        -0.006626    0.099793    0.003458
        -0.007547    0.003458    0.109204

siesta: Pressure (static):       -161.88916575  kBar

siesta: Stress tensor (total) (eV/Ang**3):
         0.094129   -0.006627   -0.007547
        -0.006626    0.099793    0.003458
        -0.007547    0.003458    0.109204

siesta: Pressure (total):       -161.88916575  kBar
Volume before coercion:      95.0867

* Maximum dynamic memory allocated =    10 MB

siesta:                 ==============================
                            Begin CG move =     10
                        ==============================

outcoor: Atomic coordinates (fractional):                   
    0.00000003    0.00000001    0.00000003   1       1  Mg
    0.50000004    0.50000004    0.50000002   1       2  Mg
    0.24732490    0.25000033    0.25267582   2       3  C
   -0.24732473   -0.25000012   -0.25267561   2       4  C
    0.54219615   -0.05064292    0.24725389   3       5  O
    0.25274623    0.55064177   -0.04219574   3       6  O
   -0.04082983    0.25000228    0.54083296   3       7  O
   -0.54219620    0.05064265   -0.24725396   3       8  O
   -0.25274634   -0.55064227    0.04219534   3       9  O
    0.04083013   -0.25000181   -0.54083271   3      10  O
 Kpoints in:           60 . Kpoints trimmed:           60

siesta: k-grid: Number of k-points =    60
siesta: k-grid: Cutoff (effective) =    11.235 Ang
siesta: k-grid: Supercell and displacements
siesta: k-grid:    5  -5   0      0.500
siesta: k-grid:    0  -5   5      0.000
siesta: k-grid:    4   0   0      0.000
Naive supercell factors:     4    4    4
Auxiliary supercell needs to be larger than naive one...

superc: Internal auxiliary supercell:     5 x     5 x     4  =     100
superc: Number of atoms, orbitals, and projectors:   1000   3400   8000

outcell: Unit cell vectors (Ang):
        5.617219   -0.041449    0.022477
        3.714704    4.261782   -0.050831
        3.599556    1.763882    3.935400

outcell: Cell vector modules (Ang)   :    5.617417    5.653707    5.617425
outcell: Cell angles (23,13,12) (deg):     49.3515     50.1151     49.3514
outcell: Cell volume (Ang**3)        :     95.1306
Auxiliary supercell needs to be larger than naive one...
New_DM. Step:    11
Re-using DM from previous geometry...
Re-using DM without extrapolation (not allowed)
Density Matrix sparsity pattern changed.

InitMesh: MESH =    30 x    30 x    30 =       27000
InitMesh: Mesh cutoff (required, used) =   100.000   102.571 Ry

siesta: iscf   Eharris(eV)      E_KS(eV)   FreeEng(eV)   dDmax  Ef(eV)
siesta:    1    -2959.7011    -2960.4193    -2960.4193  0.0314 -3.8984
siesta:    2    -2959.7590    -2959.6486    -2959.6486  0.0505 -4.0526
siesta:    3    -2959.7124    -2959.6568    -2959.6568  0.0312 -4.0215
siesta:    4    -2959.6815    -2959.6635    -2959.6635  0.0061 -3.9695
siesta:    5    -2959.6808    -2959.6699    -2959.6699  0.0024 -3.9647
siesta:    6    -2959.6808    -2959.6717    -2959.6717  0.0018 -3.9641
Cycling the Broyden process...
siesta:    7    -2959.6807    -2959.6789    -2959.6789  0.0001 -3.9624

siesta: E_KS(eV) =            -2959.6796

siesta: Atomic forces (eV/Ang):
     1   -0.000002   -0.000009    0.000000
     2   -0.000003   -0.000007    0.000002
     3    0.522142   -0.467079   -1.013076
     4   -0.522165    0.467014    1.013072
     5   -0.064052   -0.294264   -0.149196
     6    0.239759    0.137054   -0.191521
     7   -0.584066    0.523113    1.133335
     8    0.064087    0.294319    0.149193
     9   -0.239695   -0.136986    0.191556
    10    0.584140   -0.523044   -1.133330
----------------------------------------
   Tot    0.000145    0.000111    0.000035
----------------------------------------
   Max    1.133335
   Res    0.492763    sqrt( Sum f_i^2 / 3N )
----------------------------------------
   Max    1.133335    constrained

Stress-tensor-Voigt (kbar):      147.11      144.93      124.85        7.79      -11.02       14.32
(Free)E + p*V (eV/cell)    -2967.9305
Target enthalpy (eV/cell)    -2959.6796

siesta: Stress tensor (static) (eV/Ang**3):
         0.091817    0.004864    0.008939
         0.004861    0.090456   -0.006879
         0.008941   -0.006877    0.077924

siesta: Pressure (static):       -138.96227082  kBar

siesta: Stress tensor (total) (eV/Ang**3):
         0.091817    0.004864    0.008939
         0.004861    0.090456   -0.006879
         0.008941   -0.006877    0.077924

siesta: Pressure (total):       -138.96227082  kBar
Volume before coercion:      95.0858

* Maximum dynamic memory allocated =    10 MB

outcoor: Final (unrelaxed) atomic coordinates (fractional): 
    0.00000001    0.00000000    0.00000002   1       1  Mg
    0.50000002    0.50000002    0.50000000   1       2  Mg
    0.24887685    0.25000015    0.25112346   2       3  C
   -0.24887678   -0.25000009   -0.25112338   2       4  C
    0.54267076   -0.05248380    0.24731467   3       5  O
    0.25268534    0.55248301   -0.04267032   3       6  O
   -0.04329097    0.25000147    0.54329290   3       7  O
   -0.54267071    0.05248373   -0.24731469   3       8  O
   -0.25268543   -0.55248324    0.04267013   3       9  O
    0.04329114   -0.25000117   -0.54329276   3      10  O

outcell: Unit cell vectors (Ang):
        5.599968   -0.056860    0.002616
        3.691716    4.249229   -0.056893
        3.569699    1.759750    3.939983

outcell: Cell vector modules (Ang)   :    5.600257    5.629205    5.600262
outcell: Cell angles (23,13,12) (deg):     49.6006     50.6155     49.6006
outcell: Cell volume (Ang**3)        :     95.1306

siesta: Program's energy decomposition (eV):
siesta: Ebs     =      -596.339686
siesta: Eions   =      5228.674091
siesta: Ena     =      1099.236406
siesta: Ekin    =      2242.709060
siesta: Enl     =      -348.389460
siesta: DEna    =       -35.176603
siesta: DUscf   =         6.533645
siesta: DUext   =         0.000000
siesta: Exc     =      -695.918529
siesta: eta*DQ  =         0.000000
siesta: Emadel  =         0.000000
siesta: Emeta   =         0.000000
siesta: Emolmec =         0.000000
siesta: Ekinion =         0.000000
siesta: Eharris =     -2959.680750
siesta: Etot    =     -2959.679571
siesta: FreeEng =     -2959.679571

siesta: Final energy (eV):
siesta:  Band Struct. =    -596.339686
siesta:       Kinetic =    2242.709060
siesta:       Hartree =     951.667290
siesta:    Ext. field =       0.000000
siesta:   Exch.-corr. =    -695.918529
siesta:  Ion-electron =   -3830.492406
siesta:       Ion-ion =   -1627.644986
siesta:       Ekinion =       0.000000
siesta:         Total =   -2959.679571

siesta: Atomic forces (eV/Ang):
siesta:      1   -0.000002   -0.000009    0.000000
siesta:      2   -0.000003   -0.000007    0.000002
siesta:      3    0.522142   -0.467079   -1.013076
siesta:      4   -0.522165    0.467014    1.013072
siesta:      5   -0.064052   -0.294264   -0.149196
siesta:      6    0.239759    0.137054   -0.191521
siesta:      7   -0.584066    0.523113    1.133335
siesta:      8    0.064087    0.294319    0.149193
siesta:      9   -0.239695   -0.136986    0.191556
siesta:     10    0.584140   -0.523044   -1.133330
siesta: ----------------------------------------
siesta:    Tot    0.000145    0.000111    0.000035

siesta: Stress tensor (static) (eV/Ang**3):
siesta:     0.091817    0.004864    0.008939
siesta:     0.004861    0.090456   -0.006879
siesta:     0.008941   -0.006877    0.077924

siesta: Constrained stress tensor (static) (eV/Ang**3):
siesta:     0.091817    0.004863    0.008940
siesta:     0.004863    0.090456   -0.006878
siesta:     0.008940   -0.006878    0.077924

siesta: Cell volume =         95.130619 Ang**3

siesta: Pressure (static):
siesta:                Solid            Molecule  Units
siesta:          -0.00094463         -0.00114208  Ry/Bohr**3
siesta:          -0.08673249         -0.10486173  eV/Ang**3
siesta:        -138.96227082       -168.00882439  kBar
(Free)E+ p_basis*V_orbitals  =       -2958.485274
(Free)Eharris+ p_basis*V_orbitals  =       -2958.487145

* Maximum dynamic memory allocated : Node    0 =    10 MB
* Maximum dynamic memory allocated : Node    1 =    10 MB

* Maximum memory occured during redistribXZ                   

timer: CPU execution times:
timer:  Routine       Calls   Time/call    Tot.time        %
timer:  siesta            1     117.449     117.449   100.00
timer:  Setup             1       1.084       1.084     0.92
timer:  bands             1       0.001       0.001     0.00
timer:  writewave         1       0.002       0.002     0.00
timer:  KSV_init          1       0.000       0.000     0.00
timer:  IterMD           11      10.572     116.294    99.02
timer:  hsparse          11       0.044       0.486     0.41
timer:  overlap          11       0.013       0.144     0.12
timer:  IterSCF          81       1.261     102.159    86.98
timer:  kinefsm          22       0.009       0.191     0.16
timer:  nlefsm           22       0.330       7.256     6.18
timer:  DHSCF            92       0.388      35.705    30.40
timer:  DHSCF1           11       0.143       1.576     1.34
timer:  DHSCF2           11       1.591      17.500    14.90
timer:  REORD           574       0.000       0.051     0.04
timer:  POISON          103       0.013       1.301     1.11
timer:  DHSCF3           92       0.122      11.244     9.57
timer:  rhoofd           92       0.052       4.788     4.08
timer:  cellXC           92       0.018       1.641     1.40
timer:  vmat             92       0.034       3.141     2.67
timer:  MolMec           22       0.000       0.000     0.00
timer:  diagon           81       0.833      67.458    57.44
timer:  c-eigval       4878       0.006      26.987    22.98
timer:  c-buildHS      4878       0.001       3.902     3.32
timer:  cdiag          9756       0.005      49.633    42.26
timer:  cdiag1         9756       0.000       2.277     1.94
timer:  cdiag2         9756       0.001       6.190     5.27
timer:  cdiag3         9756       0.003      33.843    28.82
timer:  cdiag4         9756       0.000       2.052     1.75
timer:  c-eigvec       4878       0.006      30.536    26.00
timer:  c-buildD       4878       0.002       9.669     8.23
timer:  DHSCF4           11       0.483       5.314     4.52
timer:  dfscf            11       0.221       2.429     2.07
timer:  overfsm          11       0.006       0.063     0.05
timer:  optical           1       0.038       0.038     0.03
  

elaps: ELAPSED times:
elaps:  Routine       Calls   Time/call    Tot.time        %
elaps:  siesta            1      61.400      61.400   100.00
elaps:  Setup             1       0.605       0.605     0.99
elaps:  bands             1       0.000       0.000     0.00
elaps:  writewave         1       0.001       0.001     0.00
elaps:  KSV_init          1       0.001       0.001     0.00
elaps:  IterMD           11       5.523      60.751    98.94
elaps:  hsparse          11       0.026       0.287     0.47
elaps:  overlap          11       0.008       0.087     0.14
elaps:  IterSCF          81       0.659      53.413    86.99
elaps:  kinefsm          22       0.005       0.118     0.19
elaps:  nlefsm           22       0.210       4.617     7.52
elaps:  DHSCF            92       0.203      18.676    30.42
elaps:  DHSCF1           11       0.074       0.809     1.32
elaps:  DHSCF2           11       0.830       9.135    14.88
elaps:  REORD           574       0.000       0.026     0.04
elaps:  POISON          103       0.007       0.681     1.11
elaps:  DHSCF3           92       0.064       5.894     9.60
elaps:  rhoofd           92       0.029       2.647     4.31
elaps:  cellXC           92       0.009       0.859     1.40
elaps:  vmat             92       0.018       1.659     2.70
elaps:  MolMec           22       0.000       0.000     0.00
elaps:  diagon           81       0.436      35.342    57.56
elaps:  c-eigval       4878       0.003      14.000    22.80
elaps:  c-buildHS      4878       0.000       2.383     3.88
elaps:  cdiag          9756       0.002      24.136    39.31
elaps:  cdiag1         9756       0.000       1.112     1.81
elaps:  cdiag2         9756       0.000       1.129     1.84
elaps:  cdiag3         9756       0.002      19.606    31.93
elaps:  cdiag4         9756       0.000       1.101     1.79
elaps:  c-eigvec       4878       0.003      14.968    24.38
elaps:  c-buildD       4878       0.001       5.411     8.81
elaps:  DHSCF4           11       0.255       2.806     4.57
elaps:  dfscf            11       0.118       1.297     2.11
elaps:  overfsm          11       0.003       0.033     0.05
elaps:  optical           1       0.000       0.000     0.00
  
>> End of run:  30-JUN-2010  11:38:13
