Siesta Version (Arch framework):
agarcia@siesta.arch--2005/siesta-devel--agarcia--1.5--patch-11
Architecture  : powerpc-apple-darwin8.3.0--Xlf
Compiler flags: xlf95 -g  -O2 -qarch=auto -qtune=auto -qcache=auto -qnolm
SERIAL version

* Running in serial mode
>> Start of run:   7-DEC-2005  11:20:07

                           ***********************       
                           *  WELCOME TO SIESTA  *       
                           ***********************       

reinit: Reading from standard input
************************** Dump of input data file ****************************
#
# MgCO3 in primitive cell. SZ. Variable cell -- constant volume
#
SystemName	MgCo3 R-3c test -- SZ, 100 R
SystemLabel	constant_volume
NumberOfSpecies		3
NumberOfAtoms	       10
%block ChemicalSpeciesLabel
      1      12     Mg
      2       6     C
      3       8     O
%endblock ChemicalSpeciesLabel
PAO.BasisSize  SZ
# Rhombohedral primitive cell
# (HEX 3-fold cell had A=4.635 and C=15.023, so alpha=48.179 degrees
#  and a=5.67783 Ang)
LatticeConstant     5.67783 Ang
%block LatticeParameters
1.0 1.0 1.0 48.179 50.179 48.179
%endblock LatticeParameters
AtomicCoordinatesFormat    Fractional
%block AtomicCoordinatesAndAtomicSpecies
  0.0         0.0         0.0      1
  0.5         0.5         0.5      1
  0.25        0.25        0.25     2
 -0.25       -0.25       -0.25     2
  0.5274     -0.0274      0.25     3
  0.25        0.5274     -0.0274   3
 -0.0274      0.25        0.5274   3
 -0.5274      0.0274     -0.25     3
 -0.25       -0.5274      0.0274   3
  0.0274     -0.25       -0.5274   3
%endblock AtomicCoordinatesAndAtomicSpecies
kgrid_cutoff 10.0 Ang
Solution.Method       diagon
MeshCutoff             100 Ry
DM.NumberBroyden       4
DM.UseSaveDM           T
DM.MixingWeight        0.1         # New DM amount for next SCF cycle
DM.Tolerance           1.d-3       # Tolerance in maximum difference
                                   # between input and output DM
MaxSCFIterations       20
WriteCoorStep      .true.
WriteForces        .true.
#
#  Note "variable cell with constant volume" keywords
#
MD.TypeOfRun         CG
MD.Variable-Cell      T
MD.constant-volume   T
MD.Target-pressure   0.0 GPa
MD.Num-CG-steps	     10
************************** End of input data file *****************************

reinit: -----------------------------------------------------------------------
reinit: System Name: MgCo3 R-3c test -- SZ, 100 R                               
reinit: -----------------------------------------------------------------------
reinit: System Label: constant_volume     
reinit: -----------------------------------------------------------------------

initatom: Reading input for the pseudopotentials and atomic orbitals ----------
 Species number:  1  Label: Mg Atomic number: 12
 Species number:  2  Label: C Atomic number: 6
 Species number:  3  Label: O Atomic number: 8
Ground state valence configuration:   3s02
Reading pseudopotential information in formatted form from Mg.psf
Ground state valence configuration:   2s02  2p02
Reading pseudopotential information in formatted form from C.psf
Ground state valence configuration:   2s02  2p04
Reading pseudopotential information in formatted form from O.psf
For Mg, standard SIESTA heuristics set lmxkb to 1
 (one more than the basis l, including polarization orbitals).
Use PS.lmax or PS.KBprojectors blocks to override.
For C, standard SIESTA heuristics set lmxkb to 2
 (one more than the basis l, including polarization orbitals).
Use PS.lmax or PS.KBprojectors blocks to override.
For O, standard SIESTA heuristics set lmxkb to 2
 (one more than the basis l, including polarization orbitals).
Use PS.lmax or PS.KBprojectors blocks to override.

<basis_specs>
===============================================================================
Mg                   Z=  12    Mass=  24.310        Charge=  0.0000    
Lmxo=0 Lmxkb=1     BasisType=split      Semic=F
L=0  Nsemic=0  Cnfigmx=3
          n=1  nzeta=1  polorb=0
               vcte:    0.0000    
               rinn:    0.0000    
                rcs:    0.0000    
            lambdas:    1.0000    
-------------------------------------------------------------------------------
L=0  Nkbl=1  erefs: 0.17977+309
L=1  Nkbl=1  erefs: 0.17977+309
===============================================================================
</basis_specs>

atom: Called for Mg  (Z =  12)

read_vps: Pseudopotential generation method:
read_vps: ATM3      Troullier-Martins                       

read_vps: Valence configuration (pseudopotential and basis set generation):
3s( 2.00) rc: 2.59
3p( 0.00) rc: 2.59
Total valence charge:    2.00000

xc_check: Exchange-correlation functional:
xc_check: Ceperley-Alder
V l=0 = -2*Zval/r beyond r=  3.5878
V l=1 = -2*Zval/r beyond r=  3.5878
All V_l potentials equal beyond r=  2.5600
This should be close to max(r_c) in ps generation
All pots = -2*Zval/r beyond r=  3.5878
Using large-core scheme for Vlocal

atom: Estimated core radius    3.58779

atom: Including non-local core corrections could be a good idea
atom: Maximum radius for 4*pi*r*r*local-pseudopot. charge    3.91588
atom: Maximum radius for r*vlocal+2*Zval:    3.63292
GHOST: No ghost state for L =  0
GHOST: No ghost state for L =  1

KBgen: Kleinman-Bylander projectors: 
   l= 0   rc=  2.657845   el= -0.351328   Ekb=  2.184400   kbcos=  0.257081
   l= 1   rc=  2.657845   el= -0.101748   Ekb=  0.525536   kbcos=  0.270508

KBgen: Total number of  Kleinman-Bylander projectors:    4
atom: -------------------------------------------------------------------------

atom: SANKEY-TYPE ORBITALS:

SPLIT: Orbitals with angular momentum L= 0

SPLIT: Basis orbitals for state 3s

SPLIT: PAO cut-off radius determinated from an
SPLIT: energy shift=  0.020000 Ry

   izeta = 1
                 lambda =    1.000000
                     rc =    6.619780
                 energy =   -0.332103
                kinetic =    0.289627
    potential(screened) =   -0.621729
       potential(ionic) =   -1.387191
atom: Total number of Sankey-type orbitals:  1

atm_pop: Valence configuration(local Pseudopot. screening):
 3s( 2.00)                                                            
Vna: chval, zval:    2.00000   2.00000

Vna:  Cut-off radius for the neutral-atom potential:   6.619780

atom: _________________________________________________________________________

<basis_specs>
===============================================================================
C                    Z=   6    Mass=  12.010        Charge=  0.0000    
Lmxo=1 Lmxkb=2     BasisType=split      Semic=F
L=0  Nsemic=0  Cnfigmx=2
          n=1  nzeta=1  polorb=0
               vcte:    0.0000    
               rinn:    0.0000    
                rcs:    0.0000    
            lambdas:    1.0000    
L=1  Nsemic=0  Cnfigmx=2
          n=1  nzeta=1  polorb=0
               vcte:    0.0000    
               rinn:    0.0000    
                rcs:    0.0000    
            lambdas:    1.0000    
-------------------------------------------------------------------------------
L=0  Nkbl=1  erefs: 0.17977+309
L=1  Nkbl=1  erefs: 0.17977+309
L=2  Nkbl=1  erefs: 0.17977+309
===============================================================================
</basis_specs>

atom: Called for C   (Z =   6)

read_vps: Pseudopotential generation method:
read_vps: ATM3      Troullier-Martins                       

read_vps: Valence configuration (pseudopotential and basis set generation):
2s( 2.00) rc: 1.49
2p( 2.00) rc: 1.52
3d( 0.00) rc: 1.58
Total valence charge:    4.00000

xc_check: Exchange-correlation functional:
xc_check: Ceperley-Alder
V l=0 = -2*Zval/r beyond r=  1.4666
V l=1 = -2*Zval/r beyond r=  1.5038
V l=2 = -2*Zval/r beyond r=  1.5612
All V_l potentials equal beyond r=  1.5612
This should be close to max(r_c) in ps generation
All pots = -2*Zval/r beyond r=  1.5612

VLOCAL1: 99.0% of the norm of Vloc inside     17.809 Ry
VLOCAL1: 99.9% of the norm of Vloc inside     40.586 Ry
atom: Maximum radius for 4*pi*r*r*local-pseudopot. charge    1.88329
atom: Maximum radius for r*vlocal+2*Zval:    1.62091
GHOST: No ghost state for L =  0
GHOST: No ghost state for L =  1
GHOST: No ghost state for L =  2

KBgen: Kleinman-Bylander projectors: 
   l= 0   rc=  1.747182   el= -1.001947   Ekb=  5.181700   kbcos=  0.300603
   l= 1   rc=  1.747182   el= -0.398598   Ekb= -4.328763   kbcos= -0.367074
   l= 2   rc=  1.955272   el=  0.002326   Ekb= -1.016175   kbcos= -0.009979

KBgen: Total number of  Kleinman-Bylander projectors:    9
atom: -------------------------------------------------------------------------

atom: SANKEY-TYPE ORBITALS:

SPLIT: Orbitals with angular momentum L= 0

SPLIT: Basis orbitals for state 2s

SPLIT: PAO cut-off radius determinated from an
SPLIT: energy shift=  0.020000 Ry

   izeta = 1
                 lambda =    1.000000
                     rc =    4.191849
                 energy =   -0.983897
                kinetic =    0.886956
    potential(screened) =   -1.870853
       potential(ionic) =   -5.479661

SPLIT: Orbitals with angular momentum L= 1

SPLIT: Basis orbitals for state 2p

SPLIT: PAO cut-off radius determinated from an
SPLIT: energy shift=  0.020000 Ry

   izeta = 1
                 lambda =    1.000000
                     rc =    4.870301
                 energy =   -0.379093
                kinetic =    2.545357
    potential(screened) =   -2.924450
       potential(ionic) =   -6.433151
atom: Total number of Sankey-type orbitals:  4

atm_pop: Valence configuration(local Pseudopot. screening):
 2s( 2.00)                                                            
 2p( 2.00)                                                            
Vna: chval, zval:    4.00000   4.00000

Vna:  Cut-off radius for the neutral-atom potential:   4.870301

atom: _________________________________________________________________________

<basis_specs>
===============================================================================
O                    Z=   8    Mass=  16.000        Charge=  0.0000    
Lmxo=1 Lmxkb=2     BasisType=split      Semic=F
L=0  Nsemic=0  Cnfigmx=2
          n=1  nzeta=1  polorb=0
               vcte:    0.0000    
               rinn:    0.0000    
                rcs:    0.0000    
            lambdas:    1.0000    
L=1  Nsemic=0  Cnfigmx=2
          n=1  nzeta=1  polorb=0
               vcte:    0.0000    
               rinn:    0.0000    
                rcs:    0.0000    
            lambdas:    1.0000    
-------------------------------------------------------------------------------
L=0  Nkbl=1  erefs: 0.17977+309
L=1  Nkbl=1  erefs: 0.17977+309
L=2  Nkbl=1  erefs: 0.17977+309
===============================================================================
</basis_specs>

atom: Called for O   (Z =   8)

read_vps: Pseudopotential generation method:
read_vps: ATM3      Troullier-Martins                       

read_vps: Valence configuration (pseudopotential and basis set generation):
2s( 2.00) rc: 1.14
2p( 4.00) rc: 1.14
3d( 0.00) rc: 1.14
Total valence charge:    6.00000

xc_check: Exchange-correlation functional:
xc_check: Ceperley-Alder
V l=0 = -2*Zval/r beyond r=  1.1278
V l=1 = -2*Zval/r beyond r=  1.1278
V l=2 = -2*Zval/r beyond r=  1.1278
All V_l potentials equal beyond r=  1.1278
This should be close to max(r_c) in ps generation
All pots = -2*Zval/r beyond r=  1.1278

VLOCAL1: 99.0% of the norm of Vloc inside     34.126 Ry
VLOCAL1: 99.9% of the norm of Vloc inside     77.774 Ry
atom: Maximum radius for 4*pi*r*r*local-pseudopot. charge    1.37759
atom: Maximum radius for r*vlocal+2*Zval:    1.18566
GHOST: No ghost state for L =  0
GHOST: No ghost state for L =  1
GHOST: No ghost state for L =  2

KBgen: Kleinman-Bylander projectors: 
   l= 0   rc=  1.294105   el= -1.742414   Ekb=  9.135903   kbcos=  0.326910
   l= 1   rc=  1.294105   el= -0.676589   Ekb= -8.124878   kbcos= -0.395047
   l= 2   rc=  1.448233   el=  0.002386   Ekb= -2.039267   kbcos= -0.003484

KBgen: Total number of  Kleinman-Bylander projectors:    9
atom: -------------------------------------------------------------------------

atom: SANKEY-TYPE ORBITALS:

SPLIT: Orbitals with angular momentum L= 0

SPLIT: Basis orbitals for state 2s

SPLIT: PAO cut-off radius determinated from an
SPLIT: energy shift=  0.020000 Ry

   izeta = 1
                 lambda =    1.000000
                     rc =    3.305093
                 energy =   -1.723766
                kinetic =    1.614911
    potential(screened) =   -3.338677
       potential(ionic) =  -11.304675

SPLIT: Orbitals with angular momentum L= 1

SPLIT: Basis orbitals for state 2p

SPLIT: PAO cut-off radius determinated from an
SPLIT: energy shift=  0.020000 Ry

   izeta = 1
                 lambda =    1.000000
                     rc =    3.937239
                 energy =   -0.658841
                kinetic =    5.005986
    potential(screened) =   -5.664827
       potential(ionic) =  -13.452360
atom: Total number of Sankey-type orbitals:  4

atm_pop: Valence configuration(local Pseudopot. screening):
 2s( 2.00)                                                            
 2p( 4.00)                                                            
Vna: chval, zval:    6.00000   6.00000

Vna:  Cut-off radius for the neutral-atom potential:   3.937239

atom: _________________________________________________________________________

prinput: Basis input ----------------------------------------------------------

PAO.BasisType split     

%block ChemicalSpeciesLabel
    1   12 Mg                      # Species index, atomic number, species label
    2    6 C                       # Species index, atomic number, species label
    3    8 O                       # Species index, atomic number, species label
%endblock ChemicalSpeciesLabel

%block PAO.Basis                 # Define Basis set
Mg          1                    # Species label, number of l-shells
 n=3   0   1                         # n, l, Nzeta 
   6.620   
   1.000   
C           2                    # Species label, number of l-shells
 n=2   0   1                         # n, l, Nzeta 
   4.192   
   1.000   
 n=2   1   1                         # n, l, Nzeta 
   4.870   
   1.000   
O           2                    # Species label, number of l-shells
 n=2   0   1                         # n, l, Nzeta 
   3.305   
   1.000   
 n=2   1   1                         # n, l, Nzeta 
   3.937   
   1.000   
%endblock PAO.Basis

prinput: ----------------------------------------------------------------------


siesta: ******************** Simulation parameters ****************************
siesta:
siesta: The following are some of the parameters of the simulation.
siesta: A complete list of the parameters used, including defect values,
siesta: can be found in file out.fdf
siesta:
coor:   Atomic-coordinates input format  =     Fractional
redata: Number of spin components        =     1
redata: Long output                      =     F
redata: Number of Atomic Species         =     3
redata: Charge density info will appear in .RHO file
redata: Write Mulliken Pop.              =     NO
redata: Mesh Cutoff                      =   100.0000  Ry
redata: Net charge of the system         =     0.0000 |e|
redata: Max. number of SCF Iter          =    20
redata: Broyden mixing with     4 saved histories.
redata: Mix DM in first SCF step ?       =     F
redata: Write Pulay info on disk?        =     F
redata: New DM Mixing Weight             =     0.1000
redata: New DM Occupancy tolerance       = 0.000000000001
redata: No kicks to SCF
redata: DM Mixing Weight for Kicks       =     0.5000
redata: DM Tolerance for SCF             =     0.001000
redata: Require Energy convergence for SCF =     F
redata: DM Energy tolerance for SCF      =     0.000100 eV
redata: Using Saved Data (generic)   =     F
redata: Use continuation files for DM    =     T
redata: Neglect nonoverlap interactions  =     F
redata: Method of Calculation            =     Diagonalization
redata: Divide and Conquer               =     T
redata: Electronic Temperature           =     0.0019  Ry
redata: Fix the spin of the system       =     F
redata: Dynamics option                  =     CG coord. optimization
redata: Variable cell                    =     T
redata: Use continuation files for CG    =     F
redata: Maximum number of CG moves       =    10
redata: Max atomic displ per move        =     0.2000  Bohr
redata: Force tolerance                  =     0.0016  Ry/Bohr
redata: Stress tolerance                 =     1.0000  GPa
redata: Broyden Optimization             = F
redata: ***********************************************************************

siesta: Atomic coordinates (Bohr) and species
siesta:      0.00000   0.00000   0.00000  1        1
siesta:     12.37759   5.72419   3.74139  1        2
siesta:      6.18879   2.86210   1.87070  2        3
siesta:     -6.18879  -2.86210  -1.87070  2        4
siesta:      7.18051   0.64401   1.87070  3        5
siesta:      6.26741   4.12249  -0.20503  3        6
siesta:      5.11846   3.81979   3.94642  3        7
siesta:     -7.18051  -0.64401  -1.87070  3        8
siesta:     -6.26741  -4.12249   0.20503  3        9
siesta:     -5.11846  -3.81979  -3.94642  3       10

initatomlists: Number of atoms, orbitals, and projectors:        10       34       80

siesta: System type = bulk      

siesta: k-grid: Number of k-points =    32
siesta: k-grid: Cutoff             =     9.270 Ang
siesta: k-grid: Supercell and displacements
siesta: k-grid:    4   0   0      0.500
siesta: k-grid:    0   4   0      0.500
siesta: k-grid:    0   0   4      0.500

superc: Internal auxiliary supercell:     4 x     4 x     4  =      64
superc: Number of atoms, orbitals, and projectors:    640  2176  5120

* Maximum dynamic memory allocated =     1 MB

siesta:                 ==============================
                            Begin CG move =      0
                        ==============================

outcoor: Atomic coordinates (fractional):                   
    0.00000000    0.00000000    0.00000000   1  Mg         1
    0.50000000    0.50000000    0.50000000   1  Mg         2
    0.25000000    0.25000000    0.25000000   2  C          3
   -0.25000000   -0.25000000   -0.25000000   2  C          4
    0.52740000   -0.02740000    0.25000000   3  O          5
    0.25000000    0.52740000   -0.02740000   3  O          6
   -0.02740000    0.25000000    0.52740000   3  O          7
   -0.52740000    0.02740000   -0.25000000   3  O          8
   -0.25000000   -0.52740000    0.02740000   3  O          9
    0.02740000   -0.25000000   -0.52740000   3  O         10

superc: Internal auxiliary supercell:     4 x     4 x     4  =      64
superc: Number of atoms, orbitals, and projectors:    640  2176  5120

outcell: Unit cell vectors (Ang):
        5.677830    0.000000    0.000000
        3.786009    4.231299    0.000000
        3.636033    1.826925    3.959718

outcell: Cell vector modules (Ang)   :    5.677830    5.677830    5.677830
outcell: Cell angles (23,13,12) (deg):     48.1790     50.1790     48.1790
outcell: Cell volume (Ang**3)        :     95.1306

xijorb: WARNING: orbital pair      1   341 is multiply connected


InitMesh: MESH =    32 x    32 x    32 =       32768
InitMesh: Mesh cutoff (required, used) =   100.000   113.739 Ry

* Maximum dynamic memory allocated =    11 MB

stepf: Fermi-Dirac step function
 Broyden: No of relevant DM elements:  9712
 maxit for broyden:  4
 cycle on maxit:  T
 variable weight:  T
 initial alpha:  0.100000000000000006

siesta: Program's energy decomposition (eV):
siesta: Eions   =      5228.674091
siesta: Ena     =      1094.137230
siesta: Ekin    =      2100.835149
siesta: Enl     =      -258.862839
siesta: DEna    =        -0.000019
siesta: DUscf   =         0.000000
siesta: DUext   =         0.000000
siesta: Exc     =      -682.142452
siesta: eta*DQ  =         0.000000
siesta: Emadel  =         0.000000
siesta: Ekinion =         0.000000
siesta: Eharris =     -2966.454757
siesta: Etot    =     -2974.707023
siesta: FreeEng =     -2974.707023

siesta: iscf   Eharris(eV)      E_KS(eV)   FreeEng(eV)   dDmax  Ef(eV)
siesta:    1    -2966.4548    -2974.7070    -2974.7070  1.7486 -2.8783
timer: Routine,Calls,Time,% = IterSCF        1       2.360  68.41
elaps: Routine,Calls,Wall,% = IterSCF        1       2.360  68.21
siesta:    2    -2967.9601    -2949.8927    -2949.8927  0.8242 -2.1055
siesta:    3    -2963.9001    -2951.4711    -2951.4711  0.6367 -1.9767
siesta:    4    -2957.8619    -2954.2195    -2954.2195  0.0536 -2.7395
siesta:    5    -2957.8277    -2954.7982    -2954.7982  0.0397 -2.7528
siesta:    6    -2957.8189    -2956.0889    -2956.0889  0.0238 -2.8293
Cycling the Broyden process...
siesta:    7    -2957.8150    -2957.7330    -2957.7330  0.0054 -2.8920
Cycling the Broyden process...
siesta:    8    -2957.8146    -2957.5795    -2957.5795  0.0035 -2.8837
Cycling the Broyden process...
siesta:    9    -2957.8146    -2957.8026    -2957.8026  0.0002 -2.8799

siesta: E_KS(eV) =            -2957.8110

siesta: E_KS - E_eggbox =     -2957.8110

siesta: Atomic forces (eV/Ang):
     1    0.000000    0.000000    0.000000
     2    0.000011    0.000006    0.000013
     3   -1.138256    1.018604    2.207762
     4    1.138463   -1.018437   -2.207651
     5    2.893413   -7.217883    0.547161
     6    0.087962    4.550254   -6.329018
     7   -1.878612    1.680926    3.643248
     8   -2.893408    7.217871   -0.547158
     9   -0.087973   -4.550258    6.329011
    10    1.878614   -1.680914   -3.643254
----------------------------------------
 Tot    0.000215    0.000169    0.000113
----------------------------------------
 Max    7.217883
 Res    3.145082    sqrt( Sum f_i^2 / 3N )
----------------------------------------
 Max    7.217883    constrained

Stress-tensor-Voigt (kbar):      119.01     -203.31     -122.74      139.77      126.40       41.00
Target enthalpy (eV/cell)    -2957.8110

siesta: Stress tensor (static) (eV/Ang**3):
         0.074278    0.087239    0.025588
         0.087239   -0.126897    0.078892
         0.025588    0.078892   -0.076609

siesta: Pressure (static):         69.01631553  kBar

siesta: Stress tensor (total) (eV/Ang**3):
         0.074278    0.087239    0.025588
         0.087239   -0.126897    0.078892
         0.025588    0.078892   -0.076609

siesta: Pressure (total):         69.01631553  kBar

cgvc: No target stress found, assuming hydrostatic MD.TargetPressure.

cgvc: Target stress (kBar)
cgvc:        -0.000       0.000       0.000
cgvc:         0.000      -0.000       0.000
cgvc:         0.000       0.000      -0.000

* Maximum dynamic memory allocated =    11 MB

siesta:                 ==============================
                            Begin CG move =      1
                        ==============================

outcoor: Atomic coordinates (fractional):                   
    0.00000000    0.00000000    0.00000000   1  Mg         1
    0.50000002    0.50000002    0.50000003   1  Mg         2
    0.24800933    0.25000018    0.25199113   2  C          3
   -0.24800896   -0.24999972   -0.25199066   2  C          4
    0.53246023   -0.03343303    0.24984618   3  O          5
    0.25015384    0.53343302   -0.03246024   3  O          6
   -0.03068547    0.25000002    0.53068548   3  O          7
   -0.53246022    0.03343302   -0.24984618   3  O          8
   -0.25015385   -0.53343304    0.03246021   3  O          9
    0.03068547   -0.25000000   -0.53068547   3  O         10

siesta: k-grid: Number of k-points =    32
siesta: k-grid: Cutoff             =     9.310 Ang
siesta: k-grid: Supercell and displacements
siesta: k-grid:    4   0   0      0.500
siesta: k-grid:    0   4   0      0.500
siesta: k-grid:    0   0   4      0.500

superc: Internal auxiliary supercell:     4 x     4 x     4  =      64
superc: Number of atoms, orbitals, and projectors:    640  2176  5120

outcell: Unit cell vectors (Ang):
        5.652722   -0.018716   -0.005490
        3.755319    4.232271   -0.016274
        3.610103    1.808943    3.955822

outcell: Cell vector modules (Ang)   :    5.652755    5.658163    5.652755
outcell: Cell angles (23,13,12) (deg):     48.6069     50.4388     48.6069
outcell: Cell volume (Ang**3)        :     95.1306

InitMesh: MESH =    30 x    30 x    30 =       27000
InitMesh: Mesh cutoff (required, used) =   100.000   101.217 Ry

siesta: iscf   Eharris(eV)      E_KS(eV)   FreeEng(eV)   dDmax  Ef(eV)
siesta:    1    -2958.6900    -2956.6866    -2956.6866  0.0653 -3.4447
siesta:    2    -2958.7414    -2958.5804    -2958.5804  0.0681 -3.2205
siesta:    3    -2958.6936    -2958.5938    -2958.5938  0.0518 -3.2462
siesta:    4    -2958.6429    -2958.6112    -2958.6112  0.0081 -3.3099
siesta:    5    -2958.6415    -2958.6229    -2958.6229  0.0043 -3.3221
siesta:    6    -2958.6413    -2958.6243    -2958.6243  0.0019 -3.3257
Cycling the Broyden process...
siesta:    7    -2958.6412    -2958.6377    -2958.6377  0.0001 -3.3298

siesta: E_KS(eV) =            -2958.6382

siesta: Atomic forces (eV/Ang):
     1   -0.000017   -0.000007   -0.000006
     2   -0.000020   -0.000008   -0.000008
     3   -0.310484    0.277782    0.602067
     4    0.310438   -0.277835   -0.602091
     5    1.677442   -4.591807    0.376702
     6    0.140565    2.965176   -3.902360
     7   -1.597369    1.429286    3.097858
     8   -1.677414    4.591833   -0.376717
     9   -0.140570   -2.965143    3.902367
    10    1.597381   -1.429264   -3.097836
----------------------------------------
 Tot   -0.000049    0.000014   -0.000025
----------------------------------------
 Max    4.591833
 Res    2.046265    sqrt( Sum f_i^2 / 3N )
----------------------------------------
 Max    4.591833    constrained

Stress-tensor-Voigt (kbar):      144.62      -75.23      -34.70      100.35       78.14       37.56
Target enthalpy (eV/cell)    -2958.6382

siesta: Stress tensor (static) (eV/Ang**3):
         0.090265    0.062634    0.023444
         0.062636   -0.046955    0.048774
         0.023443    0.048774   -0.021657

siesta: Pressure (static):        -11.56453404  kBar

siesta: Stress tensor (total) (eV/Ang**3):
         0.090265    0.062634    0.023444
         0.062636   -0.046955    0.048774
         0.023443    0.048774   -0.021657

siesta: Pressure (total):        -11.56453404  kBar

* Maximum dynamic memory allocated =    11 MB

siesta:                 ==============================
                            Begin CG move =      2
                        ==============================

outcoor: Atomic coordinates (fractional):                   
    0.00000000    0.00000000    0.00000000   1  Mg         1
    0.50000005    0.50000005    0.50000008   1  Mg         2
    0.24482425    0.25000046    0.25517693   2  C          3
   -0.24482331   -0.24999926   -0.25517573   2  C          4
    0.54055660   -0.04308587    0.24960007   3  O          5
    0.25039997    0.54308585   -0.04055662   3  O          6
   -0.03594221    0.25000005    0.53594224   3  O          7
   -0.54055658    0.04308584   -0.24960006   3  O          8
   -0.25040002   -0.54308590    0.04055656   3  O          9
    0.03594222   -0.25000000   -0.53594223   3  O         10

siesta: k-grid: Number of k-points =    32
siesta: k-grid: Cutoff             =     9.376 Ang
siesta: k-grid: Supercell and displacements
siesta: k-grid:    4   0   0      0.500
siesta: k-grid:    0   4   0      0.500
siesta: k-grid:    0   0   4      0.500

superc: Internal auxiliary supercell:     4 x     4 x     4  =      64
superc: Number of atoms, orbitals, and projectors:    640  2176  5120

outcell: Unit cell vectors (Ang):
        5.612830   -0.048666   -0.014274
        3.706400    4.234041   -0.042315
        3.568794    1.780262    3.949786

outcell: Cell vector modules (Ang)   :    5.613059    5.627281    5.613059
outcell: Cell angles (23,13,12) (deg):     49.2986     50.8586     49.2986
outcell: Cell volume (Ang**3)        :     95.1306

InitMesh: MESH =    30 x    30 x    30 =       27000
InitMesh: Mesh cutoff (required, used) =   100.000   103.259 Ry

siesta: iscf   Eharris(eV)      E_KS(eV)   FreeEng(eV)   dDmax  Ef(eV)
siesta:    1    -2959.5751    -2956.6499    -2956.6499  0.1083 -3.8095
siesta:    2    -2959.7719    -2959.2557    -2959.2557  0.1198 -3.6252
siesta:    3    -2959.6114    -2959.2981    -2959.2981  0.0902 -3.6286
siesta:    4    -2959.4450    -2959.3489    -2959.3489  0.0107 -3.6471
siesta:    5    -2959.4429    -2959.3748    -2959.3748  0.0085 -3.6692
siesta:    6    -2959.4413    -2959.3889    -2959.3889  0.0035 -3.6782
Cycling the Broyden process...
siesta:    7    -2959.4410    -2959.4283    -2959.4283  0.0002 -3.6829

siesta: E_KS(eV) =            -2959.4300

siesta: Atomic forces (eV/Ang):
     1   -0.000015   -0.000005   -0.000004
     2   -0.000024   -0.000008   -0.000009
     3    0.628890   -0.562817   -1.219822
     4   -0.629033    0.562670    1.219760
     5    0.314623   -1.564620    0.187855
     6    0.170998    1.130195   -1.129511
     7   -1.026732    0.918717    1.991247
     8   -0.314572    1.564688   -0.187862
     9   -0.170955   -1.130141    1.129521
    10    1.026780   -0.918693   -1.991205
----------------------------------------
 Tot   -0.000041   -0.000013   -0.000031
----------------------------------------
 Max    1.991247
 Res    0.939082    sqrt( Sum f_i^2 / 3N )
----------------------------------------
 Max    1.991247    constrained

Stress-tensor-Voigt (kbar):      150.25       75.73       79.09       39.25       22.20       18.12
Target enthalpy (eV/cell)    -2959.4300

siesta: Stress tensor (static) (eV/Ang**3):
         0.093779    0.024494    0.011314
         0.024500    0.047265    0.013858
         0.011311    0.013855    0.049362

siesta: Pressure (static):       -101.68896502  kBar

siesta: Stress tensor (total) (eV/Ang**3):
         0.093779    0.024494    0.011314
         0.024500    0.047265    0.013858
         0.011311    0.013855    0.049362

siesta: Pressure (total):       -101.68896502  kBar

* Maximum dynamic memory allocated =    11 MB

siesta:                 ==============================
                            Begin CG move =      3
                        ==============================

outcoor: Atomic coordinates (fractional):                   
    0.00000000    0.00000000    0.00000000   1  Mg         1
    0.50000010    0.50000011    0.50000016   1  Mg         2
    0.23972813    0.25000091    0.26027421   2  C          3
   -0.23972626   -0.24999854   -0.26027183   2  C          4
    0.55351080   -0.05853042    0.24920629   3  O          5
    0.25079379    0.55853038   -0.05351082   3  O          6
   -0.04435301    0.25000010    0.54435306   3  O          7
   -0.55351075    0.05853036   -0.24920628   3  O          8
   -0.25079389   -0.55853047    0.05351071   3  O          9
    0.04435303   -0.25000000   -0.54435305   3  O         10

siesta: k-grid: Number of k-points =    32
siesta: k-grid: Cutoff             =     9.482 Ang
siesta: k-grid: Supercell and displacements
siesta: k-grid:    4   0   0      0.500
siesta: k-grid:    0   4   0      0.500
siesta: k-grid:    0   0   4      0.500

superc: Internal auxiliary supercell:     4 x     4 x     4  =      64
superc: Number of atoms, orbitals, and projectors:    640  2176  5120

outcell: Unit cell vectors (Ang):
        5.549711   -0.096606   -0.028335
        3.628585    4.237423   -0.084000
        3.503141    1.734589    3.940639

outcell: Cell vector modules (Ang)   :    5.550624    5.579376    5.550624
outcell: Cell angles (23,13,12) (deg):     50.4235     51.5407     50.4235
outcell: Cell volume (Ang**3)        :     95.1306

InitMesh: MESH =    30 x    30 x    30 =       27000
InitMesh: Mesh cutoff (required, used) =   100.000   106.629 Ry

siesta: iscf   Eharris(eV)      E_KS(eV)   FreeEng(eV)   dDmax  Ef(eV)
siesta:    1    -2959.6401    -2955.5803    -2955.5803  0.1801 -4.1612
siesta:    2    -2960.5136    -2958.6039    -2958.6039  0.2326 -4.2219
siesta:    3    -2959.8924    -2958.7590    -2958.7590  0.1708 -4.1660
siesta:    4    -2959.2584    -2958.9245    -2958.9245  0.0244 -4.0346
siesta:    5    -2959.2522    -2958.9585    -2958.9585  0.0133 -4.0574
siesta:    6    -2959.2508    -2959.0890    -2959.0890  0.0100 -4.0987
Cycling the Broyden process...
siesta:    7    -2959.2488    -2959.1910    -2959.1910  0.0007 -4.0932

siesta: E_KS(eV) =            -2959.2032

siesta: Atomic forces (eV/Ang):
     1   -0.000012   -0.000004    0.000000
     2   -0.000030   -0.000014   -0.000013
     3    1.526407   -1.366018   -2.960615
     4   -1.526735    1.365753    2.960471
     5   -1.185092    1.949635    0.065519
     6    0.086013   -0.966034    2.066218
     7   -0.286285    0.256224    0.555315
     8    1.185233   -1.949526   -0.065510
     9   -0.085906    0.966159   -2.066161
    10    0.286367   -0.256165   -0.555247
----------------------------------------
 Tot   -0.000040    0.000011   -0.000024
----------------------------------------
 Max    2.960615
 Res    1.260594    sqrt( Sum f_i^2 / 3N )
----------------------------------------
 Max    2.960615    constrained

Stress-tensor-Voigt (kbar):      151.48      269.98      231.88      -43.33      -46.46      -14.18
Target enthalpy (eV/cell)    -2959.2032

siesta: Stress tensor (static) (eV/Ang**3):
         0.094544   -0.027069   -0.008841
        -0.027045    0.168508   -0.028986
        -0.008852   -0.028998    0.144725

siesta: Pressure (static):       -217.77944040  kBar

siesta: Stress tensor (total) (eV/Ang**3):
         0.094544   -0.027069   -0.008841
        -0.027045    0.168508   -0.028986
        -0.008852   -0.028998    0.144725

siesta: Pressure (total):       -217.77944040  kBar

* Maximum dynamic memory allocated =    11 MB

siesta:                 ==============================
                            Begin CG move =      4
                        ==============================

outcoor: Atomic coordinates (fractional):                   
    0.00000000    0.00000000    0.00000000   1  Mg         1
    0.50000007    0.50000008    0.50000012   1  Mg         2
    0.24261157    0.25000065    0.25739011   2  C          3
   -0.24261022   -0.24999895   -0.25738840   2  C          4
    0.54618118   -0.04979173    0.24942909   3  O          5
    0.25057096    0.54979170   -0.04618120   3  O          6
   -0.03959409    0.25000007    0.53959413   3  O          7
   -0.54618115    0.04979170   -0.24942909   3  O          8
   -0.25057104   -0.54979177    0.04618112   3  O          9
    0.03959411   -0.25000000   -0.53959412   3  O         10

siesta: k-grid: Number of k-points =    32
siesta: k-grid: Cutoff             =     9.422 Ang
siesta: k-grid: Supercell and displacements
siesta: k-grid:    4   0   0      0.500
siesta: k-grid:    0   4   0      0.500
siesta: k-grid:    0   0   4      0.500

superc: Internal auxiliary supercell:     4 x     4 x     4  =      64
superc: Number of atoms, orbitals, and projectors:    640  2176  5120

outcell: Unit cell vectors (Ang):
        5.585319   -0.069477   -0.020378
        3.672546    4.235426   -0.060411
        3.540222    1.760400    3.945738

outcell: Cell vector modules (Ang)   :    5.585788    5.606253    5.585788
outcell: Cell angles (23,13,12) (deg):     49.7842     51.1532     49.7842
outcell: Cell volume (Ang**3)        :     95.1306

InitMesh: MESH =    30 x    30 x    30 =       27000
InitMesh: Mesh cutoff (required, used) =   100.000   104.706 Ry

siesta: iscf   Eharris(eV)      E_KS(eV)   FreeEng(eV)   dDmax  Ef(eV)
siesta:    1    -2959.6681    -2961.5303    -2961.5303  0.0968 -3.7912
siesta:    2    -2959.8707    -2959.3864    -2959.3864  0.1330 -3.8707
siesta:    3    -2959.6933    -2959.4240    -2959.4240  0.0860 -3.8902
siesta:    4    -2959.5561    -2959.4637    -2959.4637  0.0207 -3.9089
siesta:    5    -2959.5497    -2959.4850    -2959.4850  0.0082 -3.8912
siesta:    6    -2959.5488    -2959.4979    -2959.4979  0.0032 -3.8813
Cycling the Broyden process...
siesta:    7    -2959.5486    -2959.5366    -2959.5366  0.0004 -3.8751

siesta: E_KS(eV) =            -2959.5391

siesta: Atomic forces (eV/Ang):
     1   -0.000014   -0.000004   -0.000003
     2   -0.000026   -0.000010   -0.000011
     3    1.128236   -1.009687   -2.188317
     4   -1.128468    1.009465    2.188218
     5   -0.501306    0.284815    0.133928
     6    0.136075    0.042122    0.574578
     7   -0.693658    0.620733    1.345353
     8    0.501389   -0.284716   -0.133926
     9   -0.135996   -0.042054   -0.574547
    10    0.693734   -0.620678   -1.345287
----------------------------------------
 Tot   -0.000034   -0.000016   -0.000013
----------------------------------------
 Max    2.188317
 Res    0.834989    sqrt( Sum f_i^2 / 3N )
----------------------------------------
 Max    2.188317    constrained

Stress-tensor-Voigt (kbar):      153.82      172.85      156.85       -2.70      -12.23        3.53
Target enthalpy (eV/cell)    -2959.5391

siesta: Stress tensor (static) (eV/Ang**3):
         0.096005   -0.001692    0.002208
        -0.001684    0.107886   -0.007628
         0.002204   -0.007632    0.097895

siesta: Pressure (static):       -161.17343075  kBar

siesta: Stress tensor (total) (eV/Ang**3):
         0.096005   -0.001692    0.002208
        -0.001684    0.107886   -0.007628
         0.002204   -0.007632    0.097895

siesta: Pressure (total):       -161.17343075  kBar

cgvc: Finished line minimization    1.  Mean atomic displacement =    0.1853

* Maximum dynamic memory allocated =    11 MB

siesta:                 ==============================
                            Begin CG move =      5
                        ==============================

outcoor: Atomic coordinates (fractional):                   
   -0.00000026   -0.00000022   -0.00000022   1  Mg         1
    0.49999962    0.49999965    0.49999966   1  Mg         2
    0.26124741    0.24999837    0.23875000   2  C          3
   -0.26124981   -0.25000198   -0.23875298   2  C          4
    0.54304568   -0.05919852    0.24679991   3  O          5
    0.25320176    0.55920041   -0.04304390   3  O          6
   -0.05650687    0.25000109    0.55650889   3  O          7
   -0.54304414    0.05920084   -0.24679834   3  O          8
   -0.25320043   -0.55919862    0.04304549   3  O          9
    0.05650826   -0.24999934   -0.55650682   3  O         10

siesta: k-grid: Number of k-points =    32
siesta: k-grid: Cutoff             =     9.447 Ang
siesta: k-grid: Supercell and displacements
siesta: k-grid:    4   0   0      0.500
siesta: k-grid:    0   4   0      0.500
siesta: k-grid:    0   0   4      0.500

superc: Internal auxiliary supercell:     4 x     4 x     4  =      64
superc: Number of atoms, orbitals, and projectors:    640  2176  5120

outcell: Unit cell vectors (Ang):
        5.565746   -0.088272   -0.032063
        3.645488    4.227004   -0.070477
        3.513491    1.748010    3.947934

outcell: Cell vector modules (Ang)   :    5.566538    5.582303    5.566538
outcell: Cell angles (23,13,12) (deg):     50.1324     51.5358     50.1324
outcell: Cell volume (Ang**3)        :     95.1306

InitMesh: MESH =    30 x    30 x    30 =       27000
InitMesh: Mesh cutoff (required, used) =   100.000   105.937 Ry

siesta: iscf   Eharris(eV)      E_KS(eV)   FreeEng(eV)   dDmax  Ef(eV)
siesta:    1    -2959.9222    -2957.1334    -2957.1334  0.1252 -4.1986
siesta:    2    -2963.6290    -2957.5590    -2957.5590  0.5662 -1.9813
siesta:    3    -2960.4487    -2957.9416    -2957.9416  0.2164 -2.7076
siesta:    4    -2959.3540    -2958.2160    -2958.2160  0.1215 -3.1356
siesta:    5    -2959.1135    -2958.4209    -2958.4209  0.0489 -3.0891
siesta:    6    -2959.0935    -2958.5751    -2958.5751  0.0186 -3.1194
Cycling the Broyden process...
siesta:    7    -2959.0919    -2958.6678    -2958.6678  0.0126 -3.1286
Cycling the Broyden process...
siesta:    8    -2959.0899    -2959.0071    -2959.0071  0.0039 -3.1394
Cycling the Broyden process...
siesta:    9    -2959.0898    -2959.0238    -2959.0238  0.0032 -3.1399
Cycling the Broyden process...
siesta:   10    -2959.0898    -2959.0916    -2959.0916  0.0002 -3.1411

siesta: E_KS(eV) =            -2959.0904

siesta: Atomic forces (eV/Ang):
     1    0.000099    0.000067    0.000077
     2    0.000168    0.000043   -0.000011
     3   -1.500673    1.343441    2.911029
     4    1.501346   -1.342565   -2.910977
     5    0.609296    0.861787   -0.290003
     6   -0.465800   -0.991240    0.010529
     7    1.345790   -1.204046   -2.609974
     8   -0.609884   -0.862425    0.289999
     9    0.465302    0.990715   -0.010593
    10   -1.345822    1.204225    2.609852
----------------------------------------
 Tot   -0.000179    0.000001   -0.000072
----------------------------------------
 Max    2.911029
 Res    1.291026    sqrt( Sum f_i^2 / 3N )
----------------------------------------
 Max    2.911029    constrained

Stress-tensor-Voigt (kbar):      155.99      187.65      281.71      -49.92       43.95      -71.18
Target enthalpy (eV/cell)    -2959.0904

siesta: Stress tensor (static) (eV/Ang**3):
         0.097358   -0.031153   -0.044428
        -0.031157    0.117121    0.027430
        -0.044426    0.027431    0.175827

siesta: Pressure (static):       -208.44852579  kBar

siesta: Stress tensor (total) (eV/Ang**3):
         0.097358   -0.031153   -0.044428
        -0.031157    0.117121    0.027430
        -0.044426    0.027431    0.175827

siesta: Pressure (total):       -208.44852579  kBar

* Maximum dynamic memory allocated =    11 MB

siesta:                 ==============================
                            Begin CG move =      6
                        ==============================

outcoor: Atomic coordinates (fractional):                   
   -0.00000009   -0.00000008   -0.00000008   1  Mg         1
    0.49999991    0.49999993    0.49999995   1  Mg         2
    0.24918966    0.24999985    0.25081051   2  C          3
   -0.24918964   -0.25000002   -0.25081046   2  C          4
    0.54507441   -0.05311215    0.24850104   3  O          5
    0.25149959    0.55311279   -0.04507379   3  O          6
   -0.04556397    0.25000043    0.54556471   3  O          7
   -0.54507385    0.05311294   -0.24850048   3  O          8
   -0.25149916   -0.55311221    0.04507430   3  O          9
    0.04556448   -0.24999977   -0.54556398   3  O         10

siesta: k-grid: Number of k-points =    32
siesta: k-grid: Cutoff             =     9.431 Ang
siesta: k-grid: Supercell and displacements
siesta: k-grid:    4   0   0      0.500
siesta: k-grid:    0   4   0      0.500
siesta: k-grid:    0   0   4      0.500

superc: Internal auxiliary supercell:     4 x     4 x     4  =      64
superc: Number of atoms, orbitals, and projectors:    640  2176  5120

outcell: Unit cell vectors (Ang):
        5.578399   -0.076111   -0.024503
        3.662988    4.232445   -0.063964
        3.530780    1.756023    3.946505

outcell: Cell vector modules (Ang)   :    5.578972    5.597782    5.578972
outcell: Cell angles (23,13,12) (deg):     49.9068     51.2879     49.9068
outcell: Cell volume (Ang**3)        :     95.1306

InitMesh: MESH =    30 x    30 x    30 =       27000
InitMesh: Mesh cutoff (required, used) =   100.000   105.139 Ry

siesta: iscf   Eharris(eV)      E_KS(eV)   FreeEng(eV)   dDmax  Ef(eV)
siesta:    1    -2960.0006    -2960.8500    -2960.8500  0.0873 -3.1388
siesta:    2    -2961.3739    -2959.0333    -2959.0333  0.2768 -3.2782
siesta:    3    -2960.3303    -2959.2035    -2959.2035  0.1834 -3.2627
siesta:    4    -2959.6598    -2959.3233    -2959.3233  0.0193 -4.3377
siesta:    5    -2959.6592    -2959.3657    -2959.3657  0.0165 -4.3400
siesta:    6    -2959.6573    -2959.6063    -2959.6063  0.0021 -4.3345
Cycling the Broyden process...
siesta:    7    -2959.6573    -2959.6145    -2959.6145  0.0014 -4.3347
Cycling the Broyden process...
siesta:    8    -2959.6573    -2959.6121    -2959.6121  0.0016 -4.3346
Cycling the Broyden process...
siesta:    9    -2959.6573    -2959.6592    -2959.6592  0.0001 -4.3353

siesta: E_KS(eV) =            -2959.6567

siesta: Atomic forces (eV/Ang):
     1    0.000050    0.000029    0.000025
     2    0.000055    0.000025   -0.000000
     3   -0.103492    0.092732    0.200771
     4    0.103568   -0.092587   -0.200742
     5   -0.377778    0.298153   -0.076712
     6    0.199410   -0.138752    0.422487
     7    0.336781   -0.301253   -0.653064
     8    0.377712   -0.298270    0.076736
     9   -0.199483    0.138681   -0.422508
    10   -0.336703    0.301333    0.653042
----------------------------------------
 Tot    0.000122    0.000091    0.000034
----------------------------------------
 Max    0.653064
 Res    0.278722    sqrt( Sum f_i^2 / 3N )
----------------------------------------
 Max    0.653064    constrained

Stress-tensor-Voigt (kbar):      157.98      177.20      218.53      -23.46       19.13      -33.98
Target enthalpy (eV/cell)    -2959.6567

siesta: Stress tensor (static) (eV/Ang**3):
         0.098603   -0.014644   -0.021210
        -0.014641    0.110598    0.011939
        -0.021211    0.011937    0.136393

siesta: Pressure (static):       -184.56947068  kBar

siesta: Stress tensor (total) (eV/Ang**3):
         0.098603   -0.014644   -0.021210
        -0.014641    0.110598    0.011939
        -0.021211    0.011937    0.136393

siesta: Pressure (total):       -184.56947068  kBar

cgvc: Finished line minimization    2.  Mean atomic displacement =    0.0654

* Maximum dynamic memory allocated =    11 MB

siesta:                 ==============================
                            Begin CG move =      7
                        ==============================

outcoor: Atomic coordinates (fractional):                   
    0.00000057    0.00000066    0.00000073   1  Mg         1
    0.50000061    0.50000063    0.50000047   1  Mg         2
    0.25195502    0.25000077    0.24804543   2  C          3
   -0.25195477   -0.24999983   -0.24804479   2  C          4
    0.53877658   -0.05559324    0.24497860   3  O          5
    0.25502125    0.55559219   -0.03877670   3  O          6
   -0.04445260    0.25000161    0.54445484   3  O          7
   -0.53877661    0.05559265   -0.24497859   3  O          8
   -0.25502154   -0.55559264    0.03877638   3  O          9
    0.04445455   -0.24999891   -0.54445277   3  O         10

siesta: k-grid: Number of k-points =    32
siesta: k-grid: Cutoff             =     9.424 Ang
siesta: k-grid: Supercell and displacements
siesta: k-grid:    4   0   0      0.500
siesta: k-grid:    0   4   0      0.500
siesta: k-grid:    0   0   4      0.500

superc: Internal auxiliary supercell:     4 x     4 x     4  =      64
superc: Number of atoms, orbitals, and projectors:    640  2176  5120

outcell: Unit cell vectors (Ang):
        5.603926   -0.053742    0.011489
        3.696679    4.254394   -0.056717
        3.579425    1.757707    3.937663

outcell: Cell vector modules (Ang)   :    5.604196    5.636357    5.604195
outcell: Cell angles (23,13,12) (deg):     49.5659     50.4236     49.5659
outcell: Cell volume (Ang**3)        :     95.1306

InitMesh: MESH =    30 x    30 x    30 =       27000
InitMesh: Mesh cutoff (required, used) =   100.000   103.399 Ry

siesta: iscf   Eharris(eV)      E_KS(eV)   FreeEng(eV)   dDmax  Ef(eV)
siesta:    1    -2959.6355    -2960.2728    -2960.2728  0.0424 -4.2486
siesta:    2    -2959.6423    -2959.6141    -2959.6141  0.0317 -4.2940
siesta:    3    -2959.6325    -2959.6163    -2959.6163  0.0224 -4.2932
siesta:    4    -2959.6241    -2959.6188    -2959.6188  0.0043 -4.2817
siesta:    5    -2959.6239    -2959.6203    -2959.6203  0.0014 -4.2788
siesta:    6    -2959.6239    -2959.6217    -2959.6217  0.0010 -4.2790
Cycling the Broyden process...
siesta:    7    -2959.6238    -2959.6233    -2959.6233  0.0001 -4.2775

siesta: E_KS(eV) =            -2959.6240

siesta: Atomic forces (eV/Ang):
     1   -0.000037   -0.000076   -0.000011
     2   -0.000044   -0.000051    0.000031
     3   -0.309796    0.277020    0.600949
     4    0.309862   -0.277230   -0.600880
     5    0.951261    0.446020   -0.054586
     6   -0.714462   -0.657482   -0.404433
     7    0.141959   -0.126588   -0.274723
     8   -0.951184   -0.445832    0.054574
     9    0.714570    0.657657    0.404426
    10   -0.141502    0.126913    0.274826
----------------------------------------
 Tot    0.000627    0.000350    0.000171
----------------------------------------
 Max    0.951261
 Res    0.436554    sqrt( Sum f_i^2 / 3N )
----------------------------------------
 Max    0.951261    constrained

Stress-tensor-Voigt (kbar):      150.59      160.47      177.20      -14.40        3.65      -10.83
Target enthalpy (eV/cell)    -2959.6240

siesta: Stress tensor (static) (eV/Ang**3):
         0.093991   -0.008986   -0.006759
        -0.008990    0.100157    0.002278
        -0.006757    0.002280    0.110601

siesta: Pressure (static):       -162.75572145  kBar

siesta: Stress tensor (total) (eV/Ang**3):
         0.093991   -0.008986   -0.006759
        -0.008990    0.100157    0.002278
        -0.006757    0.002280    0.110601

siesta: Pressure (total):       -162.75572145  kBar

* Maximum dynamic memory allocated =    11 MB

siesta:                 ==============================
                            Begin CG move =      8
                        ==============================

outcoor: Atomic coordinates (fractional):                   
    0.00000012    0.00000016    0.00000018   1  Mg         1
    0.50000014    0.50000015    0.50000012   1  Mg         2
    0.25008350    0.25000015    0.24991676   2  C          3
   -0.25008341   -0.24999996   -0.24991652   2  C          4
    0.54303877   -0.05391411    0.24736249   3  O          5
    0.25263789    0.55391420   -0.04303840   3  O          6
   -0.04520475    0.25000081    0.54520597   3  O          7
   -0.54303840    0.05391445   -0.24736211   3  O          8
   -0.25263769   -0.55391395    0.04303864   3  O          9
    0.04520572   -0.24999949   -0.54520480   3  O         10

siesta: k-grid: Number of k-points =    32
siesta: k-grid: Cutoff             =     9.428 Ang
siesta: k-grid: Supercell and displacements
siesta: k-grid:    4   0   0      0.500
siesta: k-grid:    0   4   0      0.500
siesta: k-grid:    0   0   4      0.500

superc: Internal auxiliary supercell:     4 x     4 x     4  =      64
superc: Number of atoms, orbitals, and projectors:    640  2176  5120

outcell: Unit cell vectors (Ang):
        5.586608   -0.068880   -0.012869
        3.673850    4.239508   -0.061621
        3.546477    1.756554    3.943617

outcell: Cell vector modules (Ang)   :    5.587047    5.610205    5.587047
outcell: Cell angles (23,13,12) (deg):     49.7962     51.0077     49.7962
outcell: Cell volume (Ang**3)        :     95.1306

InitMesh: MESH =    30 x    30 x    30 =       27000
InitMesh: Mesh cutoff (required, used) =   100.000   104.573 Ry

siesta: iscf   Eharris(eV)      E_KS(eV)   FreeEng(eV)   dDmax  Ef(eV)
siesta:    1    -2959.6951    -2959.2268    -2959.2268  0.0292 -4.3360
siesta:    2    -2959.7017    -2959.6825    -2959.6825  0.0263 -4.3125
siesta:    3    -2959.6947    -2959.6840    -2959.6840  0.0168 -4.3123
siesta:    4    -2959.6890    -2959.6855    -2959.6855  0.0034 -4.3132
siesta:    5    -2959.6888    -2959.6868    -2959.6868  0.0009 -4.3165

siesta: E_KS(eV) =            -2959.6870

siesta: Atomic forces (eV/Ang):
     1   -0.000005   -0.000012    0.000004
     2   -0.000001   -0.000011    0.000002
     3   -0.187837    0.168077    0.364382
     4    0.187915   -0.168070   -0.364360
     5   -0.027830    0.316435   -0.107263
     6   -0.009239   -0.283314    0.179003
     7    0.277411   -0.247992   -0.537737
     8    0.027742   -0.316461    0.107238
     9    0.009198    0.283289   -0.179013
    10   -0.277181    0.248196    0.537740
----------------------------------------
 Tot    0.000173    0.000136   -0.000004
----------------------------------------
 Max    0.537740
 Res    0.237869    sqrt( Sum f_i^2 / 3N )
----------------------------------------
 Max    0.537740    constrained

Stress-tensor-Voigt (kbar):      153.13      173.52      206.26      -22.09       13.38      -27.77
Target enthalpy (eV/cell)    -2959.6870

siesta: Stress tensor (static) (eV/Ang**3):
         0.095573   -0.013534   -0.017452
        -0.013789    0.108300    0.008221
        -0.017334    0.008352    0.128735

siesta: Pressure (static):       -177.63421162  kBar

siesta: Stress tensor (total) (eV/Ang**3):
         0.095573   -0.013534   -0.017452
        -0.013789    0.108300    0.008221
        -0.017334    0.008352    0.128735

siesta: Pressure (total):       -177.63421162  kBar

cgvc: Finished line minimization    3.  Mean atomic displacement =    0.0211

* Maximum dynamic memory allocated =    11 MB

siesta:                 ==============================
                            Begin CG move =      9
                        ==============================

outcoor: Atomic coordinates (fractional):                   
    0.00000011    0.00000010    0.00000018   1  Mg         1
    0.50000015    0.50000012    0.50000012   1  Mg         2
    0.24902211    0.25000019    0.25097861   2  C          3
   -0.24902155   -0.24999965   -0.25097795   2  C          4
    0.54271329   -0.05265644    0.24732008   3  O          5
    0.25267999    0.55265630   -0.04271335   3  O          6
   -0.04352163    0.25000183    0.54352434   3  O          7
   -0.54271345    0.05265630   -0.24732019   3  O          8
   -0.25268006   -0.55265634    0.04271333   3  O          9
    0.04352397   -0.24999866   -0.54352189   3  O         10

siesta: k-grid: Number of k-points =    32
siesta: k-grid: Cutoff             =     9.422 Ang
siesta: k-grid: Supercell and displacements
siesta: k-grid:    4   0   0      0.500
siesta: k-grid:    0   4   0      0.500
siesta: k-grid:    0   0   4      0.500

superc: Internal auxiliary supercell:     4 x     4 x     4  =      64
superc: Number of atoms, orbitals, and projectors:    640  2176  5120

outcell: Unit cell vectors (Ang):
        5.598313   -0.058353    0.000700
        3.689500    4.248019   -0.057478
        3.566823    1.759350    3.940428

outcell: Cell vector modules (Ang)   :    5.598617    5.626845    5.598617
outcell: Cell angles (23,13,12) (deg):     49.6248     50.6639     49.6248
outcell: Cell volume (Ang**3)        :     95.1306

InitMesh: MESH =    30 x    30 x    30 =       27000
InitMesh: Mesh cutoff (required, used) =   100.000   103.800 Ry

siesta: iscf   Eharris(eV)      E_KS(eV)   FreeEng(eV)   dDmax  Ef(eV)
siesta:    1    -2959.7231    -2960.1494    -2960.1494  0.0193 -4.1673
siesta:    2    -2959.7477    -2959.7021    -2959.7021  0.0337 -4.2356
siesta:    3    -2959.7281    -2959.7054    -2959.7054  0.0200 -4.2226
siesta:    4    -2959.7155    -2959.7082    -2959.7082  0.0040 -4.2012
siesta:    5    -2959.7152    -2959.7110    -2959.7110  0.0013 -4.1984
siesta:    6    -2959.7152    -2959.7114    -2959.7114  0.0012 -4.1982
Cycling the Broyden process...
siesta:    7    -2959.7152    -2959.7144    -2959.7144  0.0000 -4.1971

siesta: E_KS(eV) =            -2959.7150

siesta: Atomic forces (eV/Ang):
     1    0.000013   -0.000015    0.000022
     2    0.000017   -0.000021    0.000013
     3    0.069258   -0.061925   -0.134239
     4   -0.069211    0.061908    0.134272
     5   -0.052932    0.061919   -0.107115
     6    0.088681   -0.093892    0.037819
     7   -0.031475    0.028664    0.061676
     8    0.052990   -0.061909    0.107106
     9   -0.088653    0.093923   -0.037800
    10    0.032025   -0.028243   -0.061581
----------------------------------------
 Tot    0.000713    0.000408    0.000173
----------------------------------------
 Max    0.134272
 Res    0.067571    sqrt( Sum f_i^2 / 3N )
----------------------------------------
 Max    0.134272    constrained

Stress-tensor-Voigt (kbar):      150.85      159.92      175.00      -10.61        5.54      -12.09
Target enthalpy (eV/cell)    -2959.7150

siesta: Stress tensor (static) (eV/Ang**3):
         0.094150   -0.006623   -0.007547
        -0.006623    0.099813    0.003458
        -0.007547    0.003459    0.109224

siesta: Pressure (static):       -161.92140666  kBar

siesta: Stress tensor (total) (eV/Ang**3):
         0.094150   -0.006623   -0.007547
        -0.006623    0.099813    0.003458
        -0.007547    0.003459    0.109224

siesta: Pressure (total):       -161.92140666  kBar

* Maximum dynamic memory allocated =    11 MB

siesta:                 ==============================
                            Begin CG move =     10
                        ==============================

outcoor: Atomic coordinates (fractional):                   
    0.00000008    0.00000001    0.00000016   1  Mg         1
    0.50000017    0.50000006    0.50000011   1  Mg         2
    0.24732388    0.25000027    0.25267756   2  C          3
   -0.24732258   -0.24999915   -0.25267625   2  C          4
    0.54219253   -0.05064418    0.24725223   3  O          5
    0.25274736    0.55064365   -0.04219328   3  O          6
   -0.04082863    0.25000345    0.54083372   3  O          7
   -0.54219353    0.05064326   -0.24725312   3  O          8
   -0.25274784   -0.55064417    0.04219284   3  O          9
    0.04083317   -0.24999733   -0.54082924   3  O         10

siesta: k-grid: Number of k-points =    32
siesta: k-grid: Cutoff             =     9.411 Ang
siesta: k-grid: Supercell and displacements
siesta: k-grid:    4   0   0      0.500
siesta: k-grid:    0   4   0      0.500
siesta: k-grid:    0   0   4      0.500

superc: Internal auxiliary supercell:     4 x     4 x     4  =      64
superc: Number of atoms, orbitals, and projectors:    640  2176  5120

outcell: Unit cell vectors (Ang):
        5.617165   -0.041510    0.022410
        3.714622    4.261732   -0.050852
        3.599455    1.763861    3.935414

outcell: Cell vector modules (Ang)   :    5.617363    5.653615    5.617363
outcell: Cell angles (23,13,12) (deg):     49.3524     50.1168     49.3524
outcell: Cell volume (Ang**3)        :     95.1306

InitMesh: MESH =    30 x    30 x    30 =       27000
InitMesh: Mesh cutoff (required, used) =   100.000   102.575 Ry

siesta: iscf   Eharris(eV)      E_KS(eV)   FreeEng(eV)   dDmax  Ef(eV)
siesta:    1    -2959.7005    -2960.4179    -2960.4179  0.0313 -3.9035
siesta:    2    -2959.7584    -2959.6481    -2959.6481  0.0505 -4.0568
siesta:    3    -2959.7118    -2959.6563    -2959.6563  0.0312 -4.0261
siesta:    4    -2959.6810    -2959.6630    -2959.6630  0.0061 -3.9749
siesta:    5    -2959.6802    -2959.6693    -2959.6693  0.0024 -3.9702
siesta:    6    -2959.6802    -2959.6711    -2959.6711  0.0018 -3.9695
Cycling the Broyden process...
siesta:    7    -2959.6802    -2959.6783    -2959.6783  0.0001 -3.9678

siesta: E_KS(eV) =            -2959.6776

siesta: Atomic forces (eV/Ang):
     1    0.000043   -0.000018    0.000041
     2    0.000042   -0.000033    0.000031
     3    0.521423   -0.466513   -1.011197
     4   -0.521445    0.466408    1.011244
     5   -0.063364   -0.294370   -0.149325
     6    0.239515    0.136896   -0.192016
     7   -0.583069    0.522641    1.131937
     8    0.063604    0.294488    0.149316
     9   -0.239406   -0.136784    0.192075
    10    0.584085   -0.521850   -1.131767
----------------------------------------
 Tot    0.001428    0.000864    0.000339
----------------------------------------
 Max    1.131937
 Res    0.492098    sqrt( Sum f_i^2 / 3N )
----------------------------------------
 Max    1.131937    constrained

Stress-tensor-Voigt (kbar):      147.07      144.96      124.88        7.76      -10.99       14.27
Target enthalpy (eV/cell)    -2959.6776

siesta: Stress tensor (static) (eV/Ang**3):
         0.091796    0.004851    0.008906
         0.004844    0.090473   -0.006864
         0.008909   -0.006861    0.077944

siesta: Pressure (static):       -138.97034989  kBar

siesta: Stress tensor (total) (eV/Ang**3):
         0.091796    0.004851    0.008906
         0.004844    0.090473   -0.006864
         0.008909   -0.006861    0.077944

siesta: Pressure (total):       -138.97034989  kBar

* Maximum dynamic memory allocated =    11 MB

outcoor: Final (unrelaxed) atomic coordinates (fractional): 
    0.00000010    0.00000009    0.00000017   1  Mg         1
    0.50000015    0.50000011    0.50000011   1  Mg         2
    0.24887513    0.25000020    0.25112565   2  C          3
   -0.24887450   -0.24999960   -0.25112494   2  C          4
    0.54266822   -0.05248228    0.24731421   3  O          5
    0.25268583    0.55248210   -0.04266834   3  O          6
   -0.04328855    0.25000197    0.54329146   3  O          7
   -0.54266845    0.05248207   -0.24731438   3  O          8
   -0.25268592   -0.55248219    0.04266828   3  O          9
    0.04329108   -0.24999854   -0.54328884   3  O         10

outcell: Unit cell vectors (Ang):
        5.599938   -0.056895    0.002579
        3.691671    4.249202   -0.056905
        3.569643    1.759738    3.939990

outcell: Cell vector modules (Ang)   :    5.600228    5.629155    5.600228
outcell: Cell angles (23,13,12) (deg):     49.6011     50.6164     49.6011
outcell: Cell volume (Ang**3)        :     95.1306

siesta: Eigenvalues (eV):
  ik is    eps
   1  1 -26.32 -25.65 -23.21 -23.06 -22.87 -22.65 -13.43 -12.98 -12.01 -11.58
        -10.93 -10.90 -10.44  -9.55  -7.39  -7.25  -6.66  -6.50  -6.30  -6.17
         -5.91  -5.51  -5.38  -5.24  -1.36  -0.64   1.07   4.25   5.91   6.27
          7.71   8.28   8.50   8.94
   2  1 -26.32 -25.64 -23.22 -22.96 -22.87 -22.78 -13.41 -12.95 -12.01 -11.67
        -10.87 -10.78 -10.45  -9.61  -7.32  -7.28  -6.70  -6.46  -6.35  -6.09
         -5.99  -5.63  -5.35  -5.17  -1.34  -0.66   1.08   4.30   5.90   6.15
          7.74   7.97   8.50   9.20
   3  1 -26.03 -25.76 -23.36 -23.11 -22.92 -22.83 -12.78 -12.67 -11.88 -11.36
        -11.13 -10.84 -10.13  -9.91  -8.14  -7.61  -6.91  -6.60  -6.41  -6.11
         -5.81  -5.73  -5.24  -5.10  -0.99  -0.67   2.85   4.19   4.98   5.32
          7.52   7.98   8.64   9.37
   4  1 -26.03 -25.78 -23.37 -23.14 -22.94 -22.74 -12.86 -12.62 -11.84 -11.39
        -11.13 -10.86 -10.26  -9.88  -7.96  -7.76  -6.80  -6.59  -6.41  -6.09
         -5.92  -5.57  -5.27  -5.18  -1.08  -0.58   2.81   4.20   4.95   5.49
          7.48   8.11   8.86   9.07
   5  1 -26.32 -25.65 -23.21 -23.06 -22.87 -22.65 -13.43 -12.98 -12.01 -11.58
        -10.93 -10.90 -10.44  -9.55  -7.39  -7.25  -6.66  -6.50  -6.30  -6.17
         -5.91  -5.51  -5.38  -5.24  -1.36  -0.64   1.07   4.25   5.91   6.27
          7.71   8.28   8.50   8.94
   6  1 -26.47 -25.62 -23.18 -22.90 -22.84 -22.55 -13.88 -13.33 -12.18 -11.14
        -11.05 -10.82 -10.70  -9.49  -7.36  -6.61  -6.58  -6.48  -6.35  -5.84
         -5.79  -5.79  -5.16  -5.05  -1.60  -0.84  -0.10   4.15   6.91   7.02
          7.78   7.93   8.48   8.58
   7  1 -26.26 -25.72 -23.29 -23.01 -22.82 -22.71 -13.55 -13.09 -11.67 -11.44
        -11.05 -10.86 -10.35  -9.81  -7.38  -7.33  -6.55  -6.41  -6.24  -6.06
         -6.04  -5.64  -5.50  -5.19  -1.29  -0.77   1.40   4.16   5.69   6.26
          7.69   8.17   8.55   8.91
   8  1 -25.96 -25.87 -23.39 -23.15 -22.87 -22.77 -13.06 -12.71 -11.56 -11.23
        -11.06 -10.88 -10.32  -9.94  -8.04  -7.96  -6.68  -6.60  -6.48  -5.95
         -5.91  -5.63  -5.29  -5.15  -0.98  -0.69   3.35   3.47   5.23   5.33
          7.50   8.09   8.75   9.15
   9  1 -26.03 -25.77 -23.30 -23.23 -22.89 -22.80 -12.77 -12.69 -11.85 -11.30
        -11.18 -10.78 -10.17  -9.96  -8.11  -7.65  -6.91  -6.59  -6.44  -6.21
         -5.78  -5.65  -5.17  -5.11  -1.02  -0.63   2.87   4.20   4.90   5.27
          7.60   7.86   8.88   9.22
  10  1 -26.25 -25.72 -23.11 -23.07 -22.96 -22.72 -13.52 -13.15 -11.62 -11.43
        -11.03 -10.68 -10.40  -9.83  -7.47  -7.28  -6.53  -6.45  -6.25  -6.24
         -6.01  -5.65  -5.42  -5.12  -1.29  -0.79   1.45   4.11   5.75   6.08
          7.77   7.93   8.76   8.86
  11  1 -26.19 -25.79 -23.22 -23.15 -22.84 -22.64 -13.47 -13.42 -11.48 -11.32
        -10.90 -10.65 -10.56  -9.86  -7.30  -7.14  -6.88  -6.59  -6.29  -6.13
         -5.80  -5.55  -5.47  -5.35  -1.34  -0.75   1.94   3.73   5.84   6.07
          7.65   8.32   8.41   8.87
  12  1 -25.94 -25.83 -23.40 -23.31 -22.80 -22.73 -12.87 -12.78 -11.51 -11.40
        -11.15 -10.53 -10.31 -10.16  -7.92  -7.82  -6.86  -6.76  -6.39  -6.22
         -5.72  -5.56  -5.30  -5.20  -0.91  -0.71   3.49   4.08   4.81   5.14
          7.61   7.88   8.96   9.05
  13  1 -26.03 -25.77 -23.30 -23.23 -22.89 -22.80 -12.77 -12.69 -11.85 -11.30
        -11.18 -10.78 -10.17  -9.96  -8.11  -7.65  -6.91  -6.59  -6.44  -6.21
         -5.78  -5.65  -5.17  -5.11  -1.02  -0.63   2.87   4.20   4.90   5.27
          7.60   7.86   8.88   9.22
  14  1 -25.94 -25.87 -23.20 -23.07 -23.06 -22.91 -13.01 -12.70 -11.49 -11.20
        -11.02 -10.96 -10.15 -10.02  -7.99  -7.94  -6.74  -6.71  -6.57  -6.06
         -5.79  -5.76  -5.15  -5.06  -0.94  -0.75   3.40   3.59   5.04   5.09
          7.67   7.74   8.84   9.25
  15  1 -25.93 -25.84 -23.40 -23.15 -22.97 -22.75 -12.86 -12.83 -11.45 -11.40
        -11.12 -10.47 -10.23 -10.15  -7.98  -7.82  -6.85  -6.74  -6.41  -6.25
         -5.81  -5.59  -5.24  -5.16  -0.93  -0.71   3.61   4.08   4.81   4.98
          7.52   7.97   8.83   9.15
  16  1 -25.95 -25.82 -23.50 -23.17 -22.87 -22.70 -13.22 -12.50 -11.54 -11.31
        -11.15 -10.63 -10.28  -9.89  -8.00  -7.75  -7.00  -6.74  -6.57  -6.14
         -5.72  -5.45  -5.35  -5.21  -1.10  -0.48   3.78   3.82   4.81   5.19
          7.42   8.21   8.67   9.17
  17  1 -25.96 -25.87 -23.39 -23.15 -22.87 -22.77 -13.06 -12.71 -11.56 -11.23
        -11.06 -10.88 -10.32  -9.94  -8.04  -7.96  -6.68  -6.60  -6.48  -5.95
         -5.91  -5.63  -5.29  -5.15  -0.98  -0.69   3.35   3.47   5.23   5.33
          7.50   8.09   8.75   9.15
  18  1 -26.03 -25.76 -23.36 -23.11 -22.92 -22.83 -12.78 -12.67 -11.88 -11.36
        -11.13 -10.84 -10.13  -9.91  -8.14  -7.61  -6.91  -6.60  -6.41  -6.11
         -5.81  -5.73  -5.24  -5.10  -0.99  -0.67   2.85   4.19   4.98   5.32
          7.52   7.98   8.64   9.37
  19  1 -25.96 -25.79 -23.29 -23.20 -22.98 -22.84 -13.19 -12.46 -11.58 -11.30
        -11.12 -10.59 -10.11  -9.93  -7.95  -7.62  -7.08  -6.80  -6.73  -5.92
         -5.90  -5.67  -5.31  -5.10  -1.03  -0.57   3.82   3.99   4.75   5.01
          7.63   7.88   8.38   9.48
  20  1 -25.95 -25.82 -23.41 -23.08 -22.99 -22.79 -12.88 -12.80 -11.60 -11.33
        -11.05 -10.54 -10.29 -10.02  -8.05  -7.74  -6.85  -6.71  -6.39  -6.24
         -5.76  -5.71  -5.27  -5.18  -0.85  -0.79   3.52   4.17   4.80   5.10
          7.47   8.06   8.56   9.31
  21  1 -26.03 -25.78 -23.37 -23.14 -22.94 -22.74 -12.86 -12.62 -11.84 -11.39
        -11.13 -10.86 -10.26  -9.88  -7.96  -7.76  -6.80  -6.59  -6.41  -6.09
         -5.92  -5.57  -5.27  -5.18  -1.08  -0.58   2.81   4.20   4.95   5.49
          7.48   8.11   8.86   9.07
  22  1 -26.26 -25.72 -23.29 -23.01 -22.82 -22.71 -13.55 -13.09 -11.67 -11.44
        -11.05 -10.86 -10.35  -9.81  -7.38  -7.33  -6.55  -6.41  -6.24  -6.06
         -6.04  -5.64  -5.50  -5.19  -1.29  -0.77   1.40   4.16   5.69   6.26
          7.69   8.17   8.55   8.91
  23  1 -26.19 -25.77 -23.26 -22.92 -22.90 -22.81 -13.43 -13.40 -11.50 -11.41
        -10.83 -10.62 -10.48  -9.91  -7.15  -7.14  -6.98  -6.52  -6.34  -6.05
         -5.96  -5.62  -5.40  -5.36  -1.31  -0.78   1.92   3.86   5.72   6.05
          7.82   8.04   8.23   9.15
  24  1 -25.95 -25.82 -23.41 -23.08 -22.99 -22.79 -12.88 -12.80 -11.60 -11.33
        -11.05 -10.54 -10.29 -10.02  -8.05  -7.74  -6.85  -6.71  -6.39  -6.24
         -5.76  -5.71  -5.27  -5.18  -0.85  -0.79   3.52   4.17   4.80   5.10
          7.47   8.06   8.56   9.31
  25  1 -25.95 -25.82 -23.50 -23.17 -22.87 -22.70 -13.22 -12.50 -11.54 -11.31
        -11.15 -10.63 -10.28  -9.89  -8.00  -7.75  -7.00  -6.74  -6.57  -6.14
         -5.72  -5.45  -5.35  -5.21  -1.10  -0.48   3.78   3.82   4.81   5.19
          7.42   8.21   8.67   9.17
  26  1 -26.19 -25.79 -23.22 -23.15 -22.84 -22.64 -13.47 -13.42 -11.48 -11.32
        -10.90 -10.65 -10.56  -9.86  -7.30  -7.14  -6.88  -6.59  -6.29  -6.13
         -5.80  -5.55  -5.47  -5.35  -1.34  -0.75   1.94   3.73   5.84   6.07
          7.65   8.32   8.41   8.87
  27  1 -26.26 -25.91 -23.10 -22.99 -22.76 -22.64 -13.99 -13.89 -11.17 -10.99
        -10.95 -10.82 -10.79 -10.09  -6.72  -6.64  -6.63  -6.48  -6.39  -6.11
         -5.65  -5.63  -5.35  -5.28  -1.63  -1.21   1.30   2.97   6.62   6.76
          7.83   7.89   8.52   8.55
  28  1 -26.04 -25.94 -23.31 -23.08 -22.78 -22.70 -13.64 -13.39 -11.13 -11.07
        -10.84 -10.81 -10.46 -10.30  -7.34  -7.20  -6.80  -6.55  -6.15  -6.01
         -5.86  -5.70  -5.54  -5.38  -1.08  -1.05   2.57   3.27   5.72   6.04
          7.64   8.20   8.49   8.86
  29  1 -25.94 -25.83 -23.40 -23.31 -22.80 -22.73 -12.87 -12.78 -11.51 -11.40
        -11.15 -10.53 -10.31 -10.16  -7.92  -7.82  -6.86  -6.76  -6.39  -6.22
         -5.72  -5.56  -5.30  -5.20  -0.91  -0.71   3.49   4.08   4.81   5.14
          7.60   7.88   8.96   9.05
  30  1 -25.93 -25.84 -23.40 -23.15 -22.97 -22.75 -12.86 -12.83 -11.45 -11.40
        -11.12 -10.47 -10.23 -10.15  -7.98  -7.82  -6.85  -6.74  -6.41  -6.25
         -5.81  -5.59  -5.24  -5.16  -0.93  -0.71   3.61   4.08   4.81   4.98
          7.52   7.97   8.83   9.15
  31  1 -26.03 -25.94 -23.19 -22.98 -22.98 -22.75 -13.60 -13.43 -11.21 -11.02
        -10.77 -10.71 -10.38 -10.37  -7.37  -7.15  -6.81  -6.52  -6.32  -5.98
         -5.84  -5.81  -5.55  -5.28  -1.09  -1.07   2.68   3.20   5.80   5.86
          7.89   7.90   8.41   8.97
  32  1 -26.04 -25.94 -23.31 -23.08 -22.78 -22.70 -13.64 -13.39 -11.13 -11.07
        -10.84 -10.81 -10.46 -10.30  -7.34  -7.20  -6.80  -6.55  -6.15  -6.01
         -5.86  -5.70  -5.54  -5.38  -1.08  -1.05   2.57   3.27   5.72   6.04
          7.64   8.20   8.49   8.86
siesta: Fermi energy =      -3.967820 eV

siesta: Program's energy decomposition (eV):
siesta: Eions   =      5228.674091
siesta: Ena     =      1099.237182
siesta: Ekin    =      2242.737997
siesta: Enl     =      -348.404637
siesta: DEna    =       -35.187055
siesta: DUscf   =         6.534646
siesta: DUext   =         0.000000
siesta: Exc     =      -695.921676
siesta: eta*DQ  =         0.000000
siesta: Emadel  =         0.000000
siesta: Ekinion =         0.000000
siesta: Eharris =     -2959.680173
siesta: Etot    =     -2959.677635
siesta: FreeEng =     -2959.677635

siesta: Final energy (eV):
siesta:       Kinetic =    2242.737997
siesta:       Hartree =     951.677507
siesta:    Ext. field =       0.000000
siesta:   Exch.-corr. =    -695.921676
siesta:  Ion-electron =   -3830.516766
siesta:       Ion-ion =   -1627.654697
siesta:       Ekinion =       0.000000
siesta:         Total =   -2959.677635

siesta: Atomic forces (eV/Ang):
siesta:      1    0.000043   -0.000018    0.000041
siesta:      2    0.000042   -0.000033    0.000031
siesta:      3    0.521423   -0.466513   -1.011197
siesta:      4   -0.521445    0.466408    1.011244
siesta:      5   -0.063364   -0.294370   -0.149325
siesta:      6    0.239515    0.136896   -0.192016
siesta:      7   -0.583069    0.522641    1.131937
siesta:      8    0.063604    0.294488    0.149316
siesta:      9   -0.239406   -0.136784    0.192075
siesta:     10    0.584085   -0.521850   -1.131767
siesta: ----------------------------------------
siesta:  Tot    0.001428    0.000864    0.000339

siesta: Stress tensor (static) (eV/Ang**3):
siesta:     0.091796    0.004851    0.008906
siesta:     0.004844    0.090473   -0.006864
siesta:     0.008909   -0.006861    0.077944

siesta: Constrained stress tensor (static) (eV/Ang**3):
siesta:     0.091796    0.004847    0.008908
siesta:     0.004847    0.090473   -0.006863
siesta:     0.008908   -0.006863    0.077944

siesta: Cell volume =         95.130619 Ang**3

siesta: Pressure (static):
siesta:                Solid            Molecule  Units
siesta:          -0.00094468         -0.00114525  Ry/Bohr**3
siesta:          -0.08673753         -0.10515316  eV/Ang**3
siesta:        -138.97034989       -168.47574909  kBar

* Maximum dynamic memory allocated : Node    0 =    11 MB

* Maximum memory occured during poison                        

timer: CPU execution times:
timer:  Routine       Calls   Time/call    Tot.time        %
timer:  siesta            1      64.690      64.690   100.00
timer:  Setup             1       0.590       0.590     0.91
timer:  bands             1       0.000       0.000     0.00
timer:  writewave         1       0.000       0.000     0.00
timer:  KSV_init          1       0.000       0.000     0.00
timer:  IterMD           11       5.826      64.090    99.07
timer:  hsparse          12       0.178       2.140     3.31
timer:  overfsm          22       0.014       0.310     0.48
timer:  IterSCF          93       0.647      60.200    93.06
timer:  kinefsm          22       0.015       0.320     0.49
timer:  nlefsm           22       0.430       9.460    14.62
timer:  DHSCF            93       0.285      26.550    41.04
timer:  DHSCF1           11       0.172       1.890     2.92
timer:  DHSCF2           11       0.728       8.010    12.38
timer:  REORD           580       0.000       0.100     0.15
timer:  POISON          104       0.005       0.530     0.82
timer:  DHSCF3           93       0.119      11.090    17.14
timer:  rhoofd           93       0.058       5.350     8.27
timer:  cellXC           93       0.019       1.730     2.67
timer:  vmat             93       0.035       3.270     5.05
timer:  diagon           82       0.280      22.940    35.46
timer:  cdiag          5248       0.002      12.660    19.57
timer:  cdiag1         5248       0.001       7.180    11.10
timer:  cdiag2         5248       0.000       1.400     2.16
timer:  cdiag3         5248       0.001       3.420     5.29
timer:  cdiag4         5248       0.000       0.140     0.22
timer:  DHSCF4           11       0.501       5.510     8.52
timer:  dfscf            11       0.318       3.500     5.41
timer:  optical           1       0.000       0.000     0.00
  

elaps: ELAPSED times:
elaps:  Routine       Calls   Time/call    Tot.time        %
elaps:  siesta            1      65.190      65.190   100.00
elaps:  Setup             1       0.590       0.590     0.91
elaps:  bands             1       0.000       0.000     0.00
elaps:  writewave         1       0.000       0.000     0.00
elaps:  KSV_init          1       0.000       0.000     0.00
elaps:  IterMD           11       5.871      64.580    99.06
elaps:  hsparse          12       0.180       2.160     3.31
elaps:  overfsm          22       0.017       0.370     0.57
elaps:  IterSCF          93       0.652      60.660    93.05
elaps:  kinefsm          22       0.017       0.380     0.58
elaps:  nlefsm           22       0.434       9.550    14.65
elaps:  DHSCF            93       0.288      26.800    41.11
elaps:  DHSCF1           11       0.172       1.890     2.90
elaps:  DHSCF2           11       0.728       8.010    12.29
elaps:  REORD           580       0.000       0.080     0.12
elaps:  POISON          104       0.005       0.560     0.86
elaps:  DHSCF3           93       0.122      11.350    17.41
elaps:  rhoofd           93       0.059       5.510     8.45
elaps:  cellXC           93       0.019       1.750     2.68
elaps:  vmat             93       0.036       3.320     5.09
elaps:  diagon           82       0.283      23.210    35.60
elaps:  cdiag          5248       0.002      11.620    17.82
elaps:  cdiag1         5248       0.001       6.590    10.11
elaps:  cdiag2         5248       0.000       1.490     2.29
elaps:  cdiag3         5248       0.001       2.910     4.46
elaps:  cdiag4         5248       0.000       0.250     0.38
elaps:  DHSCF4           11       0.501       5.510     8.45
elaps:  dfscf            11       0.322       3.540     5.43
elaps:  optical           1       0.000       0.000     0.00
  
>> End of run:   7-DEC-2005  11:21:12
