Siesta Version: siesta-trunk-479
Architecture  : atto-intel12-openmpi
Compiler flags: /share/apps/openmpi-1.6.5-intel/bin/mpif90 -w  -O2 -mp
PP flags      : -DCDF -DMPI 
PARALLEL version
NetCDF support

* Running on    4 nodes in parallel
>> Start of run:  29-SEP-2015  15:30:40

                           ***********************       
                           *  WELCOME TO SIESTA  *       
                           ***********************       

reinit: Reading from standard input
************************** Dump of input data file ****************************
#
# MgCO3 in primitive cell. SZ. Variable cell -- constant volume
#
SystemName	MgCo3 R-3c test -- SZ, 100 R
SystemLabel	constant_volume
NumberOfSpecies		3
NumberOfAtoms	       10
%block ChemicalSpeciesLabel
      1      12     Mg
      2       6     C
      3       8     O
%endblock ChemicalSpeciesLabel
PAO.BasisSize  SZ
# Rhombohedral primitive cell
# (HEX 3-fold cell had A=4.635 and C=15.023, so alpha=48.179 degrees
#  and a=5.67783 Ang)
LatticeConstant     5.67783 Ang
%block LatticeParameters
1.0 1.0 1.0 48.179 50.179 48.179
%endblock LatticeParameters
AtomicCoordinatesFormat    Fractional
%block AtomicCoordinatesAndAtomicSpecies
  0.0         0.0         0.0      1
  0.5         0.5         0.5      1
  0.25        0.25        0.25     2
 -0.25       -0.25       -0.25     2
  0.5274     -0.0274      0.25     3
  0.25        0.5274     -0.0274   3
 -0.0274      0.25        0.5274   3
 -0.5274      0.0274     -0.25     3
 -0.25       -0.5274      0.0274   3
  0.0274     -0.25       -0.5274   3
%endblock AtomicCoordinatesAndAtomicSpecies
kgrid_cutoff 10.0 Ang
Solution.Method       diagon
MeshCutoff             100 Ry
DM.NumberBroyden       4
DM.UseSaveDM           T
DM.MixingWeight        0.1         # New DM amount for next SCF cycle
DM.Tolerance           1.d-3       # Tolerance in maximum difference
                                   # between input and output DM
MaxSCFIterations       20
WriteCoorStep      .true.
WriteForces        .true.
#
#  Note "variable cell with constant volume" keywords
#
MD.TypeOfRun         CG
MD.Variable-Cell      T
MD.constant-volume   T
MD.Target-pressure   0.0 GPa
MD.Num-CG-steps	     10
************************** End of input data file *****************************

reinit: -----------------------------------------------------------------------
reinit: System Name: MgCo3 R-3c test -- SZ, 100 R
reinit: -----------------------------------------------------------------------
reinit: System Label: constant_volume                                             
reinit: -----------------------------------------------------------------------

initatom: Reading input for the pseudopotentials and atomic orbitals ----------
 Species number:            1  Label: Mg Atomic number:          12
 Species number:            2  Label: C Atomic number:           6
 Species number:            3  Label: O Atomic number:           8
Ground state valence configuration:   3s02
Reading pseudopotential information in formatted form from Mg.psf

Valence configuration for pseudopotential generation:
3s( 2.00) rc: 2.59
3p( 0.00) rc: 2.59
3d( 0.00) rc: 2.59
4f( 0.00) rc: 2.59
Ground state valence configuration:   2s02  2p02
Reading pseudopotential information in formatted form from C.psf

Valence configuration for pseudopotential generation:
2s( 2.00) rc: 1.49
2p( 2.00) rc: 1.52
3d( 0.00) rc: 1.58
Ground state valence configuration:   2s02  2p04
Reading pseudopotential information in formatted form from O.psf

Valence configuration for pseudopotential generation:
2s( 2.00) rc: 1.14
2p( 4.00) rc: 1.14
3d( 0.00) rc: 1.14
4f( 0.00) rc: 1.14
For Mg, standard SIESTA heuristics set lmxkb to 1
 (one more than the basis l, including polarization orbitals).
Use PS.lmax or PS.KBprojectors blocks to override.
For C, standard SIESTA heuristics set lmxkb to 2
 (one more than the basis l, including polarization orbitals).
Use PS.lmax or PS.KBprojectors blocks to override.
For O, standard SIESTA heuristics set lmxkb to 2
 (one more than the basis l, including polarization orbitals).
Use PS.lmax or PS.KBprojectors blocks to override.

<basis_specs>
===============================================================================
Mg                   Z=  12    Mass=  24.310        Charge= 0.17977+309
Lmxo=0 Lmxkb= 1    BasisType=split      Semic=F
L=0  Nsemic=0  Cnfigmx=3
          n=1  nzeta=1  polorb=0
            splnorm:   0.15000    
               vcte:    0.0000    
               rinn:    0.0000    
               qcoe:    0.0000    
               qyuk:    0.0000    
               qwid:   0.10000E-01
                rcs:    0.0000    
            lambdas:   1.00000    
-------------------------------------------------------------------------------
L=0  Nkbl=1  erefs: 0.17977+309
L=1  Nkbl=1  erefs: 0.17977+309
===============================================================================
</basis_specs>

atom: Called for Mg                    (Z =  12)

read_vps: Pseudopotential generation method:
read_vps: ATM3      Troullier-Martins                       
Total valence charge:    2.00000

xc_check: Exchange-correlation functional:
xc_check: Ceperley-Alder
V l=0 = -2*Zval/r beyond r=  3.5878
V l=1 = -2*Zval/r beyond r=  3.5878
All V_l potentials equal beyond r=  2.5600
This should be close to max(r_c) in ps generation
All pots = -2*Zval/r beyond r=  3.5878
Using large-core scheme for Vlocal

atom: Estimated core radius    3.58779

atom: Including non-local core corrections could be a good idea
atom: Maximum radius for 4*pi*r*r*local-pseudopot. charge    3.91588
atom: Maximum radius for r*vlocal+2*Zval:    3.63292
GHOST: No ghost state for L =  0
GHOST: No ghost state for L =  1

KBgen: Kleinman-Bylander projectors: 
   l= 0   rc=  2.657845   el= -0.351328   Ekb=  2.184400   kbcos=  0.257081
   l= 1   rc=  2.657845   el= -0.101748   Ekb=  0.525536   kbcos=  0.270508

KBgen: Total number of  Kleinman-Bylander projectors:    4
atom: -------------------------------------------------------------------------

atom: SANKEY-TYPE ORBITALS:

SPLIT: Orbitals with angular momentum L= 0

SPLIT: Basis orbitals for state 3s

SPLIT: PAO cut-off radius determined from an
SPLIT: energy shift=  0.020000 Ry

   izeta = 1
                 lambda =    1.000000
                     rc =    6.619780
                 energy =   -0.332103
                kinetic =    0.289627
    potential(screened) =   -0.621729
       potential(ionic) =   -1.387191
atom: Total number of Sankey-type orbitals:  1

atm_pop: Valence configuration (for local Pseudopot. screening):
 3s( 2.00)                                                            
Vna: chval, zval:    2.00000   2.00000

Vna:  Cut-off radius for the neutral-atom potential:   6.619780

atom: _________________________________________________________________________

<basis_specs>
===============================================================================
C                    Z=   6    Mass=  12.010        Charge= 0.17977+309
Lmxo=1 Lmxkb= 2    BasisType=split      Semic=F
L=0  Nsemic=0  Cnfigmx=2
          n=1  nzeta=1  polorb=0
            splnorm:   0.15000    
               vcte:    0.0000    
               rinn:    0.0000    
               qcoe:    0.0000    
               qyuk:    0.0000    
               qwid:   0.10000E-01
                rcs:    0.0000    
            lambdas:   1.00000    
L=1  Nsemic=0  Cnfigmx=2
          n=1  nzeta=1  polorb=0
            splnorm:   0.15000    
               vcte:    0.0000    
               rinn:    0.0000    
               qcoe:    0.0000    
               qyuk:    0.0000    
               qwid:   0.10000E-01
                rcs:    0.0000    
            lambdas:   1.00000    
-------------------------------------------------------------------------------
L=0  Nkbl=1  erefs: 0.17977+309
L=1  Nkbl=1  erefs: 0.17977+309
L=2  Nkbl=1  erefs: 0.17977+309
===============================================================================
</basis_specs>

atom: Called for C                     (Z =   6)

read_vps: Pseudopotential generation method:
read_vps: ATM3      Troullier-Martins                       
Total valence charge:    4.00000

xc_check: Exchange-correlation functional:
xc_check: Ceperley-Alder
V l=0 = -2*Zval/r beyond r=  1.4666
V l=1 = -2*Zval/r beyond r=  1.5038
V l=2 = -2*Zval/r beyond r=  1.5612
All V_l potentials equal beyond r=  1.5612
This should be close to max(r_c) in ps generation
All pots = -2*Zval/r beyond r=  1.5612

VLOCAL1: 99.0% of the norm of Vloc inside     17.809 Ry
VLOCAL1: 99.9% of the norm of Vloc inside     40.586 Ry
atom: Maximum radius for 4*pi*r*r*local-pseudopot. charge    1.88329
atom: Maximum radius for r*vlocal+2*Zval:    1.62091
GHOST: No ghost state for L =  0
GHOST: No ghost state for L =  1
GHOST: No ghost state for L =  2

KBgen: Kleinman-Bylander projectors: 
   l= 0   rc=  1.747182   el= -1.001947   Ekb=  5.181700   kbcos=  0.300603
   l= 1   rc=  1.747182   el= -0.398598   Ekb= -4.328763   kbcos= -0.367074
   l= 2   rc=  1.955272   el=  0.002326   Ekb= -1.016175   kbcos= -0.009979

KBgen: Total number of  Kleinman-Bylander projectors:    9
atom: -------------------------------------------------------------------------

atom: SANKEY-TYPE ORBITALS:

SPLIT: Orbitals with angular momentum L= 0

SPLIT: Basis orbitals for state 2s

SPLIT: PAO cut-off radius determined from an
SPLIT: energy shift=  0.020000 Ry

   izeta = 1
                 lambda =    1.000000
                     rc =    4.191849
                 energy =   -0.983897
                kinetic =    0.886956
    potential(screened) =   -1.870853
       potential(ionic) =   -5.479661

SPLIT: Orbitals with angular momentum L= 1

SPLIT: Basis orbitals for state 2p

SPLIT: PAO cut-off radius determined from an
SPLIT: energy shift=  0.020000 Ry

   izeta = 1
                 lambda =    1.000000
                     rc =    4.870301
                 energy =   -0.379093
                kinetic =    2.545357
    potential(screened) =   -2.924450
       potential(ionic) =   -6.433151
atom: Total number of Sankey-type orbitals:  4

atm_pop: Valence configuration (for local Pseudopot. screening):
 2s( 2.00)                                                            
 2p( 2.00)                                                            
Vna: chval, zval:    4.00000   4.00000

Vna:  Cut-off radius for the neutral-atom potential:   4.870301

atom: _________________________________________________________________________

<basis_specs>
===============================================================================
O                    Z=   8    Mass=  16.000        Charge= 0.17977+309
Lmxo=1 Lmxkb= 2    BasisType=split      Semic=F
L=0  Nsemic=0  Cnfigmx=2
          n=1  nzeta=1  polorb=0
            splnorm:   0.15000    
               vcte:    0.0000    
               rinn:    0.0000    
               qcoe:    0.0000    
               qyuk:    0.0000    
               qwid:   0.10000E-01
                rcs:    0.0000    
            lambdas:   1.00000    
L=1  Nsemic=0  Cnfigmx=2
          n=1  nzeta=1  polorb=0
            splnorm:   0.15000    
               vcte:    0.0000    
               rinn:    0.0000    
               qcoe:    0.0000    
               qyuk:    0.0000    
               qwid:   0.10000E-01
                rcs:    0.0000    
            lambdas:   1.00000    
-------------------------------------------------------------------------------
L=0  Nkbl=1  erefs: 0.17977+309
L=1  Nkbl=1  erefs: 0.17977+309
L=2  Nkbl=1  erefs: 0.17977+309
===============================================================================
</basis_specs>

atom: Called for O                     (Z =   8)

read_vps: Pseudopotential generation method:
read_vps: ATM3      Troullier-Martins                       
Total valence charge:    6.00000

xc_check: Exchange-correlation functional:
xc_check: Ceperley-Alder
V l=0 = -2*Zval/r beyond r=  1.1278
V l=1 = -2*Zval/r beyond r=  1.1278
V l=2 = -2*Zval/r beyond r=  1.1278
All V_l potentials equal beyond r=  1.1278
This should be close to max(r_c) in ps generation
All pots = -2*Zval/r beyond r=  1.1278

VLOCAL1: 99.0% of the norm of Vloc inside     34.126 Ry
VLOCAL1: 99.9% of the norm of Vloc inside     77.774 Ry
atom: Maximum radius for 4*pi*r*r*local-pseudopot. charge    1.37759
atom: Maximum radius for r*vlocal+2*Zval:    1.18566
GHOST: No ghost state for L =  0
GHOST: No ghost state for L =  1
GHOST: No ghost state for L =  2

KBgen: Kleinman-Bylander projectors: 
   l= 0   rc=  1.294105   el= -1.742414   Ekb=  9.135903   kbcos=  0.326910
   l= 1   rc=  1.294105   el= -0.676589   Ekb= -8.124878   kbcos= -0.395047
   l= 2   rc=  1.448233   el=  0.002386   Ekb= -2.039267   kbcos= -0.003484

KBgen: Total number of  Kleinman-Bylander projectors:    9
atom: -------------------------------------------------------------------------

atom: SANKEY-TYPE ORBITALS:

SPLIT: Orbitals with angular momentum L= 0

SPLIT: Basis orbitals for state 2s

SPLIT: PAO cut-off radius determined from an
SPLIT: energy shift=  0.020000 Ry

   izeta = 1
                 lambda =    1.000000
                     rc =    3.305093
                 energy =   -1.723766
                kinetic =    1.614911
    potential(screened) =   -3.338677
       potential(ionic) =  -11.304675

SPLIT: Orbitals with angular momentum L= 1

SPLIT: Basis orbitals for state 2p

SPLIT: PAO cut-off radius determined from an
SPLIT: energy shift=  0.020000 Ry

   izeta = 1
                 lambda =    1.000000
                     rc =    3.937239
                 energy =   -0.658841
                kinetic =    5.005986
    potential(screened) =   -5.664827
       potential(ionic) =  -13.452360
atom: Total number of Sankey-type orbitals:  4

atm_pop: Valence configuration (for local Pseudopot. screening):
 2s( 2.00)                                                            
 2p( 4.00)                                                            
Vna: chval, zval:    6.00000   6.00000

Vna:  Cut-off radius for the neutral-atom potential:   3.937239

atom: _________________________________________________________________________

prinput: Basis input ----------------------------------------------------------

PAO.BasisType split     

%block ChemicalSpeciesLabel
    1   12 Mg                      # Species index, atomic number, species label
    2    6 C                       # Species index, atomic number, species label
    3    8 O                       # Species index, atomic number, species label
%endblock ChemicalSpeciesLabel

%block PAO.Basis                 # Define Basis set
Mg                    1                    # Species label, number of l-shells
 n=3   0   1                         # n, l, Nzeta 
   6.620   
   1.000   
C                     2                    # Species label, number of l-shells
 n=2   0   1                         # n, l, Nzeta 
   4.192   
   1.000   
 n=2   1   1                         # n, l, Nzeta 
   4.870   
   1.000   
O                     2                    # Species label, number of l-shells
 n=2   0   1                         # n, l, Nzeta 
   3.305   
   1.000   
 n=2   1   1                         # n, l, Nzeta 
   3.937   
   1.000   
%endblock PAO.Basis

prinput: ----------------------------------------------------------------------

Dumping basis to NetCDF file Mg.ion.nc
Dumping basis to NetCDF file C.ion.nc
Dumping basis to NetCDF file O.ion.nc
coor:   Atomic-coordinates input format  =     Fractional

siesta: Atomic coordinates (Bohr) and species
siesta:      0.00000   0.00000   0.00000  1        1
siesta:     12.37759   5.72419   3.74139  1        2
siesta:      6.18879   2.86210   1.87070  2        3
siesta:     -6.18879  -2.86210  -1.87070  2        4
siesta:      7.18051   0.64401   1.87070  3        5
siesta:      6.26741   4.12249  -0.20503  3        6
siesta:      5.11846   3.81979   3.94642  3        7
siesta:     -7.18051  -0.64401  -1.87070  3        8
siesta:     -6.26741  -4.12249   0.20503  3        9
siesta:     -5.11846  -3.81979  -3.94642  3       10

siesta: System type = bulk      

initatomlists: Number of atoms, orbitals, and projectors:     10    34    80

siesta: ******************** Simulation parameters ****************************
siesta:
siesta: The following are some of the parameters of the simulation.
siesta: A complete list of the parameters used, including default values,
siesta: can be found in file out.fdf
siesta:
redata: Non-Collinear-spin run           =     F
redata: SpinPolarized (Up/Down) run      =     F
redata: Number of spin components        =     1
redata: Long output                      =     F
redata: Number of Atomic Species         =        3
redata: Charge density info will appear in .RHO file
redata: Write Mulliken Pop.              =     NO
redata: Mesh Cutoff                      =   100.0000  Ry
redata: Net charge of the system         =     0.0000 |e|
redata: Min. number of SCF Iter          =        0
redata: Max. number of SCF Iter          =       20
redata: Mix DM or H after convergence    =     F
redata: Recompute H after scf cycle      =     F
redata: Broyden mixing with     4 saved histories.
redata: Mix DM in first SCF step ?       =     F
redata: Write Pulay info on disk?        =     F
redata: Discard 1st Pulay DM after  kick =     F
redata: New DM Mixing Weight             =     0.1000
redata: New DM Occupancy tolerance       = 0.000000000001
redata: No kicks to SCF
redata: DM Mixing Weight for Kicks       =     0.5000
redata: DM Tolerance for SCF             =     0.001000
redata: Require (free) Energy convergence in SCF =     F
redata: DM (free)Energy tolerance for SCF =     0.000010 eV
redata: Require Harris convergence for SCF =     F
redata: DM Harris energy tolerance for SCF =     0.000010 eV
redata: Using Saved Data (generic)   =     F
redata: Use continuation files for DM    =     T
redata: Neglect nonoverlap interactions  =     F
redata: Method of Calculation            =     Diagonalization
redata: Divide and Conquer               =     T
redata: Electronic Temperature           =     0.0019  Ry
redata: Fix the spin of the system       =     F
redata: Dynamics option                  =     CG coord. optimization
redata: Variable cell                    =     T
redata: Use continuation files for CG    =     F
redata: Max atomic displ per move        =     0.2000  Bohr
redata: Maximum number of CG moves       =       10
redata: Force tolerance                  =     0.0016  Ry/Bohr
redata: Stress tolerance                 =     1.0000  GPa
redata: ***********************************************************************
Total number of electrons:    48.000000
Total ionic charge:    48.000000

* ProcessorY, Blocksize:    2   9


* Orbital distribution balance (max,min):     9     7

 Kpoints in:          100 . Kpoints trimmed:           64

siesta: k-grid: Number of k-points =    64
siesta: k-grid: Cutoff (effective) =    11.356 Ang
siesta: k-grid: Supercell and displacements
siesta: k-grid:    5  -5   0      0.500
siesta: k-grid:    0   0   4      0.000
siesta: k-grid:    0  -5   5      0.000
Naive supercell factors:     4    4    4
Auxiliary supercell needs to be larger than naive one...

superc: Internal auxiliary supercell:     5 x     5 x     4  =     100
superc: Number of atoms, orbitals, and projectors:   1000   3400   8000

                     ====================================
                        Begin CG opt. move =      0
                     ====================================

outcoor: Atomic coordinates (fractional):                   
    0.00000000    0.00000000    0.00000000   1       1  Mg
    0.50000000    0.50000000    0.50000000   1       2  Mg
    0.25000000    0.25000000    0.25000000   2       3  C
   -0.25000000   -0.25000000   -0.25000000   2       4  C
    0.52740000   -0.02740000    0.25000000   3       5  O
    0.25000000    0.52740000   -0.02740000   3       6  O
   -0.02740000    0.25000000    0.52740000   3       7  O
   -0.52740000    0.02740000   -0.25000000   3       8  O
   -0.25000000   -0.52740000    0.02740000   3       9  O
    0.02740000   -0.25000000   -0.52740000   3      10  O

superc: Internal auxiliary supercell:     5 x     5 x     4  =     100
superc: Number of atoms, orbitals, and projectors:   1000   3400   8000

outcell: Unit cell vectors (Ang):
        5.677830    0.000000    0.000000
        3.786009    4.231299    0.000000
        3.636033    1.826925    3.959718

outcell: Cell vector modules (Ang)   :    5.677830    5.677830    5.677830
outcell: Cell angles (23,13,12) (deg):     48.1790     50.1790     48.1790
outcell: Cell volume (Ang**3)        :     95.1306
New_DM. Step:     1
Initializing Density Matrix...
New grid distribution:   1
           1       1:   16    1:    8    1:    8
           2       1:   16    1:    8    9:   16
           3       1:   16    9:   16    1:    8
           4       1:   16    9:   16    9:   16

InitMesh: MESH =    32 x    32 x    32 =       32768
InitMesh: (bp) =    16 x    16 x    16 =        4096
InitMesh: Mesh cutoff (required, used) =   100.000   113.739 Ry
ExtMesh (bp) on 0 =    76 x    68 x    68 =      351424
New grid distribution:   2
           1       1:   16    1:    7    1:    8
           2       1:   16    1:    9    9:   16
           3       1:   16    8:   16    1:    8
           4       1:   16   10:   16    9:   16
New grid distribution:   3
           1       1:   16    1:    8    1:    8
           2       1:   16    1:    8    9:   16
           3       1:   16    9:   16    1:    8
           4       1:   16    9:   16    9:   16
Setting up quadratic distribution...
ExtMesh (bp) on 0 =    76 x    67 x    68 =      346256
PhiOnMesh: Number of (b)points on node 0 =                  896
PhiOnMesh: nlist on node 0 =                19674

stepf: Fermi-Dirac step function

siesta: Program's energy decomposition (eV):
siesta: Ebs     =      -692.855380
siesta: Eions   =      5228.674091
siesta: Ena     =      1094.137208
siesta: Ekin    =      2100.835149
siesta: Enl     =      -258.862835
siesta: DEna    =        -0.000017
siesta: DUscf   =         0.000000
siesta: DUext   =         0.000000
siesta: Exc     =      -682.142451
siesta: eta*DQ  =         0.000000
siesta: Emadel  =         0.000000
siesta: Emeta   =         0.000000
siesta: Emolmec =         0.000000
siesta: Ekinion =         0.000000
siesta: Eharris =     -2966.454850
siesta: Etot    =     -2974.707038
siesta: FreeEng =     -2974.707038

   scf: iscf   Eharris(eV)      E_KS(eV)   FreeEng(eV)    dDmax  Ef(eV)
   scf:    1    -2966.4549    -2974.7070    -2974.7070  1.74856 -2.8753
 Broyden: No of relevant DM elements:         9718
 maxit for broyden:            4
 cycle on maxit:  T
 variable weight:  T
 initial alpha:   0.100000000000000     
timer: Routine,Calls,Time,% =    IterSCF     1       0.461  23.95
   scf:    2    -2967.9627    -2949.8931    -2949.8931  0.82438 -2.0897
   scf:    3    -2963.9012    -2951.4716    -2951.4716  0.63679 -1.9635
   scf:    4    -2957.8626    -2954.2194    -2954.2194  0.05360 -2.7334
   scf:    5    -2957.8282    -2954.7986    -2954.7986  0.03970 -2.7470
   scf:    6    -2957.8195    -2956.0871    -2956.0871  0.02380 -2.8238
   scf:    7    -2957.8156    -2957.7334    -2957.7334  0.00538 -2.8862
Cycling the Broyden process...
   scf:    8    -2957.8151    -2957.5810    -2957.5810  0.00355 -2.8781
Cycling the Broyden process...
   scf:    9    -2957.8151    -2957.8029    -2957.8029  0.00018 -2.8743

SCF Convergence by dMax criterion
max |DM_out - DM_in|:     0.00018343
SCF cycle converged after    9 iterations

Using DM_out to compute the final energy and forces

siesta: E_KS(eV) =            -2957.8151

siesta: E_KS - E_eggbox =     -2957.8151

siesta: Atomic forces (eV/Ang):
     1   -0.000000   -0.000000    0.000000
     2   -0.000000    0.000000    0.000000
     3   -1.139492    1.019594    2.209817
     4    1.139492   -1.019594   -2.209817
     5    2.892945   -7.216500    0.546883
     6    0.087995    4.549223   -6.327870
     7   -1.876833    1.679335    3.639807
     8   -2.892945    7.216500   -0.546883
     9   -0.087995   -4.549223    6.327870
    10    1.876833   -1.679335   -3.639807
----------------------------------------
   Tot    0.000000   -0.000000    0.000000
----------------------------------------
   Max    7.216500
   Res    3.144343    sqrt( Sum f_i^2 / 3N )
----------------------------------------
   Max    7.216500    constrained

Stress-tensor-Voigt (kbar):      119.00     -203.24     -122.62      139.72      126.42       40.92
(Free)E + p*V (eV/cell)    -2953.7211
Target enthalpy (eV/cell)    -2957.8151

siesta: Stress tensor (static) (eV/Ang**3):
         0.074271    0.087208    0.025542
         0.087208   -0.126848    0.078904
         0.025542    0.078904   -0.076530

siesta: Pressure (static):         68.95170089  kBar

siesta: Stress tensor (total) (eV/Ang**3):
         0.074271    0.087208    0.025542
         0.087208   -0.126848    0.078904
         0.025542    0.078904   -0.076530

siesta: Pressure (total):         68.95170089  kBar

cgvc: No target stress found, assuming hydrostatic MD.TargetPressure.
***Target stress set to zero for constant-volume calculation

cgvc: Target stress (kBar)
cgvc:         0.000       0.000       0.000
cgvc:         0.000       0.000       0.000
cgvc:         0.000       0.000       0.000
Volume before coercion:      95.1272

                     ====================================
                        Begin CG opt. move =      1
                     ====================================

outcoor: Atomic coordinates (fractional):                   
   -0.00000000   -0.00000000    0.00000000   1       1  Mg
    0.50000000    0.50000000    0.50000000   1       2  Mg
    0.24800668    0.25000002    0.25199329   2       3  C
   -0.24800668   -0.25000002   -0.25199329   2       4  C
    0.53246065   -0.03343324    0.24984606   3       5  O
    0.25015393    0.53343318   -0.03246061   3       6  O
   -0.03068316    0.25000002    0.53068318   3       7  O
   -0.53246065    0.03343324   -0.24984606   3       8  O
   -0.25015393   -0.53343318    0.03246061   3       9  O
    0.03068316   -0.25000002   -0.53068318   3      10  O
 Kpoints in:           60 . Kpoints trimmed:           60

siesta: k-grid: Number of k-points =    60
siesta: k-grid: Cutoff (effective) =    11.306 Ang
siesta: k-grid: Supercell and displacements
siesta: k-grid:    5  -5   0      0.500
siesta: k-grid:    4   0   0      0.000
siesta: k-grid:    0  -5   5      0.000
Naive supercell factors:     4    4    4
Auxiliary supercell needs to be larger than naive one...

superc: Internal auxiliary supercell:     5 x     5 x     4  =     100
superc: Number of atoms, orbitals, and projectors:   1000   3400   8000

outcell: Unit cell vectors (Ang):
        5.652726   -0.018714   -0.005481
        3.755323    4.232275   -0.016273
        3.610112    1.808941    3.955820

outcell: Cell vector modules (Ang)   :    5.652759    5.658168    5.652760
outcell: Cell angles (23,13,12) (deg):     48.6069     50.4386     48.6069
outcell: Cell volume (Ang**3)        :     95.1306
New_DM. Step:     2
Re-using DM from previous geometry...
Re-using DM without extrapolation (not allowed)
Density Matrix sparsity pattern changed.
New grid distribution:   1
           1       1:   15    1:    8    1:    8
           2       1:   15    1:    8    9:   15
           3       1:   15    9:   15    1:    8
           4       1:   15    9:   15    9:   15

InitMesh: MESH =    30 x    30 x    30 =       27000
InitMesh: (bp) =    15 x    15 x    15 =        3375
InitMesh: Mesh cutoff (required, used) =   100.000   101.217 Ry
ExtMesh (bp) on 0 =    71 x    64 x    64 =      290816
New grid distribution:   2
           1       1:   15    1:    7    1:    7
           2       1:   15    1:    8    8:   15
           3       1:   15    8:   15    1:    7
           4       1:   15    9:   15    8:   15
New grid distribution:   3
           1       1:   15    1:    8    1:    8
           2       1:   15    1:    8    9:   15
           3       1:   15    9:   15    1:    8
           4       1:   15    9:   15    9:   15
Setting up quadratic distribution...
ExtMesh (bp) on 0 =    71 x    63 x    63 =      281799
PhiOnMesh: Number of (b)points on node 0 =                  735
PhiOnMesh: nlist on node 0 =                16250

   scf: iscf   Eharris(eV)      E_KS(eV)   FreeEng(eV)    dDmax  Ef(eV)
   scf:    1    -2958.6903    -2956.6908    -2956.6908  0.06526 -3.4372
   scf:    2    -2958.7405    -2958.5815    -2958.5815  0.06806 -3.2183
   scf:    3    -2958.6935    -2958.5947    -2958.5947  0.05175 -3.2439
   scf:    4    -2958.6433    -2958.6120    -2958.6120  0.00794 -3.3020
   scf:    5    -2958.6420    -2958.6235    -2958.6235  0.00425 -3.3161
   scf:    6    -2958.6417    -2958.6249    -2958.6249  0.00191 -3.3188
   scf:    7    -2958.6417    -2958.6383    -2958.6383  0.00013 -3.3228

SCF Convergence by dMax criterion
max |DM_out - DM_in|:     0.00013087
SCF cycle converged after    7 iterations

Using DM_out to compute the final energy and forces

siesta: E_KS(eV) =            -2958.6417

siesta: Atomic forces (eV/Ang):
     1    0.000000   -0.000000   -0.000000
     2   -0.000000   -0.000000    0.000000
     3   -0.308688    0.276210    0.598629
     4    0.308688   -0.276210   -0.598629
     5    1.676515   -4.589990    0.376803
     6    0.140479    2.964173   -3.900525
     7   -1.598330    1.430145    3.099700
     8   -1.676515    4.589990   -0.376803
     9   -0.140479   -2.964173    3.900525
    10    1.598330   -1.430145   -3.099700
----------------------------------------
   Tot   -0.000000   -0.000000    0.000000
----------------------------------------
   Max    4.589990
   Res    2.045791    sqrt( Sum f_i^2 / 3N )
----------------------------------------
   Max    4.589990    constrained

Stress-tensor-Voigt (kbar):      144.61      -75.15      -34.67      100.30       78.07       37.59
(Free)E + p*V (eV/cell)    -2959.3302
Target enthalpy (eV/cell)    -2958.6417

siesta: Stress tensor (static) (eV/Ang**3):
         0.090259    0.062600    0.023463
         0.062601   -0.046905    0.048728
         0.023462    0.048727   -0.021641

siesta: Pressure (static):        -11.59622892  kBar

siesta: Stress tensor (total) (eV/Ang**3):
         0.090259    0.062600    0.023463
         0.062601   -0.046905    0.048728
         0.023462    0.048727   -0.021641

siesta: Pressure (total):        -11.59622892  kBar
Volume before coercion:      95.1072

                     ====================================
                        Begin CG opt. move =      2
                     ====================================

outcoor: Atomic coordinates (fractional):                   
   -0.00000000   -0.00000000    0.00000000   1       1  Mg
    0.50000000    0.50000000    0.50000000   1       2  Mg
    0.24481737    0.25000006    0.25518256   2       3  C
   -0.24481737   -0.25000006   -0.25518256   2       4  C
    0.54055768   -0.04308642    0.24959975   3       5  O
    0.25040022    0.54308628   -0.04055760   3       6  O
   -0.03593620    0.25000005    0.53593626   3       7  O
   -0.54055768    0.04308642   -0.24959975   3       8  O
   -0.25040022   -0.54308628    0.04055760   3       9  O
    0.03593620   -0.25000005   -0.53593626   3      10  O
 Kpoints in:           60 . Kpoints trimmed:           60

siesta: k-grid: Number of k-points =    60
siesta: k-grid: Cutoff (effective) =    11.226 Ang
siesta: k-grid: Supercell and displacements
siesta: k-grid:    5  -5   0      0.500
siesta: k-grid:    4   0   0      0.000
siesta: k-grid:    0  -5   5      0.000
Naive supercell factors:     4    4    4
Auxiliary supercell needs to be larger than naive one...

superc: Internal auxiliary supercell:     5 x     5 x     4  =     100
superc: Number of atoms, orbitals, and projectors:   1000   3400   8000

outcell: Unit cell vectors (Ang):
        5.612841   -0.048660   -0.014252
        3.706411    4.234050   -0.042314
        3.568818    1.780256    3.949783

outcell: Cell vector modules (Ang)   :    5.613070    5.627295    5.613070
outcell: Cell angles (23,13,12) (deg):     49.2985     50.8581     49.2985
outcell: Cell volume (Ang**3)        :     95.1306
New_DM. Step:     3
Re-using DM from previous geometry...
Re-using DM without extrapolation (not allowed)
Density Matrix sparsity pattern changed.
New grid distribution:   1
           1       1:   15    1:    8    1:    8
           2       1:   15    1:    8    9:   15
           3       1:   15    9:   15    1:    8
           4       1:   15    9:   15    9:   15

InitMesh: MESH =    30 x    30 x    30 =       27000
InitMesh: (bp) =    15 x    15 x    15 =        3375
InitMesh: Mesh cutoff (required, used) =   100.000   103.258 Ry
ExtMesh (bp) on 0 =    71 x    64 x    64 =      290816
New grid distribution:   2
           1       1:   15    1:    7    1:    8
           2       1:   15    1:    8    9:   15
           3       1:   15    8:   15    1:    8
           4       1:   15    9:   15    9:   15
New grid distribution:   3
           1       1:   15    1:    8    1:    8
           2       1:   15    1:    8    9:   15
           3       1:   15    9:   15    1:    8
           4       1:   15    9:   15    9:   15
Setting up quadratic distribution...
ExtMesh (bp) on 0 =    71 x    63 x    64 =      286272
PhiOnMesh: Number of (b)points on node 0 =                  840
PhiOnMesh: nlist on node 0 =                18308

   scf: iscf   Eharris(eV)      E_KS(eV)   FreeEng(eV)    dDmax  Ef(eV)
   scf:    1    -2959.5758    -2956.6536    -2956.6536  0.10836 -3.8027
   scf:    2    -2959.7752    -2959.2549    -2959.2549  0.12004 -3.6148
   scf:    3    -2959.6131    -2959.2976    -2959.2976  0.09017 -3.6183
   scf:    4    -2959.4454    -2959.3486    -2959.3486  0.01079 -3.6374
   scf:    5    -2959.4432    -2959.3745    -2959.3745  0.00853 -3.6596
   scf:    6    -2959.4416    -2959.3889    -2959.3889  0.00349 -3.6689
   scf:    7    -2959.4413    -2959.4286    -2959.4286  0.00025 -3.6737

SCF Convergence by dMax criterion
max |DM_out - DM_in|:     0.00024571
SCF cycle converged after    7 iterations

Using DM_out to compute the final energy and forces

siesta: E_KS(eV) =            -2959.4413

siesta: Atomic forces (eV/Ang):
     1   -0.000000    0.000000    0.000000
     2   -0.000000    0.000000   -0.000000
     3    0.631554   -0.565099   -1.224796
     4   -0.631554    0.565100    1.224796
     5    0.312410   -1.559779    0.187676
     6    0.170922    1.127280   -1.124987
     7   -1.027379    0.919285    1.992432
     8   -0.312410    1.559779   -0.187676
     9   -0.170922   -1.127280    1.124987
    10    1.027379   -0.919285   -1.992432
----------------------------------------
   Tot   -0.000000   -0.000000   -0.000000
----------------------------------------
   Max    1.992432
   Res    0.938794    sqrt( Sum f_i^2 / 3N )
----------------------------------------
   Max    1.992432    constrained

Stress-tensor-Voigt (kbar):      150.28       75.98       79.25       39.11       22.04       18.17
(Free)E + p*V (eV/cell)    -2965.4878
Target enthalpy (eV/cell)    -2959.4413

siesta: Stress tensor (static) (eV/Ang**3):
         0.093798    0.024408    0.011342
         0.024409    0.047422    0.013759
         0.011341    0.013758    0.049460

siesta: Pressure (static):       -101.83546972  kBar

siesta: Stress tensor (total) (eV/Ang**3):
         0.093798    0.024408    0.011342
         0.024409    0.047422    0.013759
         0.011341    0.013758    0.049460

siesta: Pressure (total):       -101.83546972  kBar
Volume before coercion:      95.0384

                     ====================================
                        Begin CG opt. move =      3
                     ====================================

outcoor: Atomic coordinates (fractional):                   
   -0.00000000   -0.00000000    0.00000000   1       1  Mg
    0.50000000    0.50000000    0.50000000   1       2  Mg
    0.23971446    0.25000013    0.26028538   2       3  C
   -0.23971446   -0.25000013   -0.26028538   2       4  C
    0.55351294   -0.05853151    0.24920567   3       5  O
    0.25079428    0.55853123   -0.05351277   3       6  O
   -0.04434108    0.25000010    0.54434119   3       7  O
   -0.55351294    0.05853151   -0.24920567   3       8  O
   -0.25079428   -0.55853123    0.05351277   3       9  O
    0.04434108   -0.25000010   -0.54434119   3      10  O
 Kpoints in:           60 . Kpoints trimmed:           60

siesta: k-grid: Number of k-points =    60
siesta: k-grid: Cutoff (effective) =    11.101 Ang
siesta: k-grid: Supercell and displacements
siesta: k-grid:    5  -5   0      0.500
siesta: k-grid:    4   0   0      0.000
siesta: k-grid:    0  -5   5      0.000
Naive supercell factors:     4    4    4
Auxiliary supercell needs to be larger than naive one...

superc: Internal auxiliary supercell:     5 x     5 x     4  =     100
superc: Number of atoms, orbitals, and projectors:   1000   3400   8000

outcell: Unit cell vectors (Ang):
        5.549732   -0.096595   -0.028291
        3.628607    4.237440   -0.083996
        3.503189    1.734576    3.940632

outcell: Cell vector modules (Ang)   :    5.550645    5.579403    5.550646
outcell: Cell angles (23,13,12) (deg):     50.4233     51.5398     50.4233
outcell: Cell volume (Ang**3)        :     95.1306
New_DM. Step:     4
Re-using DM from previous geometry...
Re-using DM without extrapolation (not allowed)
Density Matrix sparsity pattern changed.
Note: For starting DM, Qtot, Tr[D*S] =         48.00000000         47.90039016
New grid distribution:   1
           1       1:   15    1:    8    1:    8
           2       1:   15    1:    8    9:   15
           3       1:   15    9:   15    1:    8
           4       1:   15    9:   15    9:   15

InitMesh: MESH =    30 x    30 x    30 =       27000
InitMesh: (bp) =    15 x    15 x    15 =        3375
InitMesh: Mesh cutoff (required, used) =   100.000   106.628 Ry
ExtMesh (bp) on 0 =    71 x    64 x    64 =      290816
New grid distribution:   2
           1       1:   15    1:    7    1:    8
           2       1:   15    1:    8    9:   15
           3       1:   15    8:   15    1:    8
           4       1:   15    9:   15    9:   15
New grid distribution:   3
           1       1:   15    1:    8    1:    8
           2       1:   15    1:    8    9:   15
           3       1:   15    9:   15    1:    8
           4       1:   15    9:   15    9:   15
Setting up quadratic distribution...
ExtMesh (bp) on 0 =    71 x    63 x    64 =      286272
PhiOnMesh: Number of (b)points on node 0 =                  840
PhiOnMesh: nlist on node 0 =                18188

   scf: iscf   Eharris(eV)      E_KS(eV)   FreeEng(eV)    dDmax  Ef(eV)
   scf:    1    -2959.6421    -2955.5916    -2955.5916  0.18023 -4.1554
   scf:    2    -2960.5256    -2958.5989    -2958.5989  0.23235 -4.2149
   scf:    3    -2959.8988    -2958.7554    -2958.7554  0.17072 -4.1582
   scf:    4    -2959.2588    -2958.9221    -2958.9221  0.02474 -4.0253
   scf:    5    -2959.2524    -2958.9565    -2958.9565  0.01341 -4.0486
   scf:    6    -2959.2509    -2959.0874    -2959.0874  0.01008 -4.0906
   scf:    7    -2959.2489    -2959.1899    -2959.1899  0.00075 -4.0849

SCF Convergence by dMax criterion
max |DM_out - DM_in|:     0.00074918
SCF cycle converged after    7 iterations

Using DM_out to compute the final energy and forces

siesta: E_KS(eV) =            -2959.2489

siesta: Atomic forces (eV/Ang):
     1    0.000000   -0.000000    0.000000
     2   -0.000000    0.000000    0.000000
     3    1.527306   -1.366595   -2.961955
     4   -1.527306    1.366595    2.961955
     5   -1.191202    1.964504    0.063872
     6    0.086173   -0.975799    2.079221
     7   -0.290271    0.259756    0.562923
     8    1.191202   -1.964504   -0.063872
     9   -0.086173    0.975799   -2.079221
    10    0.290271   -0.259756   -0.562924
----------------------------------------
   Tot    0.000000    0.000000    0.000000
----------------------------------------
   Max    2.961955
   Res    1.265099    sqrt( Sum f_i^2 / 3N )
----------------------------------------
   Max    2.961955    constrained

Stress-tensor-Voigt (kbar):      151.50      270.64      232.00      -43.63      -47.04      -13.89
(Free)E + p*V (eV/cell)    -2972.1953
Target enthalpy (eV/cell)    -2959.2489

siesta: Stress tensor (static) (eV/Ang**3):
         0.094555   -0.027235   -0.008665
        -0.027230    0.168918   -0.029355
        -0.008667   -0.029357    0.144799

siesta: Pressure (static):       -218.04399306  kBar

siesta: Stress tensor (total) (eV/Ang**3):
         0.094555   -0.027235   -0.008665
        -0.027230    0.168918   -0.029355
        -0.008667   -0.029357    0.144799

siesta: Pressure (total):       -218.04399306  kBar
Volume before coercion:      95.0831

                     ====================================
                        Begin CG opt. move =      4
                     ====================================

outcoor: Atomic coordinates (fractional):                   
   -0.00000000   -0.00000000    0.00000000   1       1  Mg
    0.50000000    0.50000000    0.50000000   1       2  Mg
    0.24261286    0.25000009    0.25738703   2       3  C
   -0.24261286   -0.25000009   -0.25738703   2       4  C
    0.54615450   -0.04975887    0.24942950   3       5  O
    0.25057046    0.54975866   -0.04615437   3       6  O
   -0.03956720    0.25000007    0.53956728   3       7  O
   -0.54615450    0.04975887   -0.24942950   3       8  O
   -0.25057046   -0.54975866    0.04615437   3       9  O
    0.03956720   -0.25000007   -0.53956728   3      10  O
 Kpoints in:           60 . Kpoints trimmed:           60

siesta: k-grid: Number of k-points =    60
siesta: k-grid: Cutoff (effective) =    11.172 Ang
siesta: k-grid: Supercell and displacements
siesta: k-grid:    5  -5   0      0.500
siesta: k-grid:    4   0   0      0.000
siesta: k-grid:    0  -5   5      0.000
Naive supercell factors:     4    4    4
Auxiliary supercell needs to be larger than naive one...

superc: Internal auxiliary supercell:     5 x     5 x     4  =     100
superc: Number of atoms, orbitals, and projectors:   1000   3400   8000

outcell: Unit cell vectors (Ang):
        5.585471   -0.069364   -0.020316
        3.672731    4.235431   -0.060317
        3.540400    1.760490    3.945753

outcell: Cell vector modules (Ang)   :    5.585939    5.606378    5.585940
outcell: Cell angles (23,13,12) (deg):     49.7817     51.1510     49.7817
outcell: Cell volume (Ang**3)        :     95.1306
New_DM. Step:     5
Re-using DM from previous geometry...
Re-using DM without extrapolation (not allowed)
Density Matrix sparsity pattern changed.
Note: For starting DM, Qtot, Tr[D*S] =         48.00000000         48.06403041
New grid distribution:   1
           1       1:   15    1:    8    1:    8
           2       1:   15    1:    8    9:   15
           3       1:   15    9:   15    1:    8
           4       1:   15    9:   15    9:   15

InitMesh: MESH =    30 x    30 x    30 =       27000
InitMesh: (bp) =    15 x    15 x    15 =        3375
InitMesh: Mesh cutoff (required, used) =   100.000   104.698 Ry
ExtMesh (bp) on 0 =    71 x    64 x    64 =      290816
New grid distribution:   2
           1       1:   15    1:    7    1:    8
           2       1:   15    1:    8    9:   15
           3       1:   15    8:   15    1:    8
           4       1:   15    9:   15    9:   15
New grid distribution:   3
           1       1:   15    1:    8    1:    8
           2       1:   15    1:    8    9:   15
           3       1:   15    9:   15    1:    8
           4       1:   15    9:   15    9:   15
Setting up quadratic distribution...
ExtMesh (bp) on 0 =    71 x    63 x    64 =      286272
PhiOnMesh: Number of (b)points on node 0 =                  840
PhiOnMesh: nlist on node 0 =                18250

   scf: iscf   Eharris(eV)      E_KS(eV)   FreeEng(eV)    dDmax  Ef(eV)
   scf:    1    -2959.6675    -2961.5856    -2961.5856  0.09708 -3.7766
   scf:    2    -2959.8595    -2959.3901    -2959.3901  0.12692 -3.8710
   scf:    3    -2959.6909    -2959.4268    -2959.4268  0.08669 -3.8870
   scf:    4    -2959.5560    -2959.4663    -2959.4663  0.01956 -3.9003
   scf:    5    -2959.5501    -2959.4867    -2959.4867  0.00768 -3.8816
   scf:    6    -2959.5493    -2959.4997    -2959.4997  0.00318 -3.8719
   scf:    7    -2959.5492    -2959.5375    -2959.5375  0.00035 -3.8661

SCF Convergence by dMax criterion
max |DM_out - DM_in|:     0.00034914
SCF cycle converged after    7 iterations

Using DM_out to compute the final energy and forces

siesta: E_KS(eV) =            -2959.5492

siesta: Atomic forces (eV/Ang):
     1    0.000000   -0.000000    0.000000
     2   -0.000000    0.000000   -0.000000
     3    1.124423   -1.006106   -2.180628
     4   -1.124423    1.006106    2.180628
     5   -0.499064    0.280703    0.133583
     6    0.136105    0.044028    0.570357
     7   -0.692502    0.619653    1.342991
     8    0.499064   -0.280703   -0.133583
     9   -0.136105   -0.044028   -0.570357
    10    0.692502   -0.619653   -1.342991
----------------------------------------
   Tot    0.000000    0.000000    0.000000
----------------------------------------
   Max    2.180628
   Res    0.832280    sqrt( Sum f_i^2 / 3N )
----------------------------------------
   Max    2.180628    constrained

Stress-tensor-Voigt (kbar):      153.91      172.76      156.90       -2.66      -12.09        3.48
(Free)E + p*V (eV/cell)    -2969.1199
Target enthalpy (eV/cell)    -2959.5492

siesta: Stress tensor (static) (eV/Ang**3):
         0.096064   -0.001658    0.002175
        -0.001658    0.107826   -0.007543
         0.002175   -0.007544    0.097928

siesta: Pressure (static):       -161.19049187  kBar

siesta: Stress tensor (total) (eV/Ang**3):
         0.096064   -0.001658    0.002175
        -0.001658    0.107826   -0.007543
         0.002175   -0.007544    0.097928

siesta: Pressure (total):       -161.19049187  kBar

cgvc: Finished line minimization    1.  Mean atomic displacement =    0.1853
Volume before coercion:      95.0626

                     ====================================
                        Begin CG opt. move =      5
                     ====================================

outcoor: Atomic coordinates (fractional):                   
    0.00000000   -0.00000000    0.00000000   1       1  Mg
    0.50000000    0.50000000    0.50000000   1       2  Mg
    0.26125282    0.24999992    0.23874692   2       3  C
   -0.26125282   -0.24999992   -0.23874692   2       4  C
    0.54300274   -0.05916842    0.24679082   3       5  O
    0.25320893    0.55916770   -0.04300201   3       6  O
   -0.05647803    0.25000049    0.55647831   3       7  O
   -0.54300274    0.05916842   -0.24679082   3       8  O
   -0.25320893   -0.55916770    0.04300201   3       9  O
    0.05647803   -0.25000049   -0.55647831   3      10  O
 Kpoints in:           60 . Kpoints trimmed:           60

siesta: k-grid: Number of k-points =    60
siesta: k-grid: Cutoff (effective) =    11.134 Ang
siesta: k-grid: Supercell and displacements
siesta: k-grid:    5  -5   0      0.500
siesta: k-grid:    4   0   0      0.000
siesta: k-grid:    0  -5   5      0.000
Naive supercell factors:     4    4    4
Auxiliary supercell needs to be larger than naive one...

superc: Internal auxiliary supercell:     5 x     5 x     4  =     100
superc: Number of atoms, orbitals, and projectors:   1000   3400   8000

outcell: Unit cell vectors (Ang):
        5.565970   -0.088105   -0.031903
        3.645761    4.227049   -0.070356
        3.513800    1.748101    3.947938

outcell: Cell vector modules (Ang)   :    5.566759    5.582515    5.566764
outcell: Cell angles (23,13,12) (deg):     50.1289     51.5313     50.1288
outcell: Cell volume (Ang**3)        :     95.1306
New_DM. Step:     6
Re-using DM from previous geometry...
Re-using DM without extrapolation (not allowed)
Density Matrix sparsity pattern changed.
Note: For starting DM, Qtot, Tr[D*S] =         48.00000000         47.89620037
New grid distribution:   1
           1       1:   15    1:    8    1:    8
           2       1:   15    1:    8    9:   15
           3       1:   15    9:   15    1:    8
           4       1:   15    9:   15    9:   15

InitMesh: MESH =    30 x    30 x    30 =       27000
InitMesh: (bp) =    15 x    15 x    15 =        3375
InitMesh: Mesh cutoff (required, used) =   100.000   105.924 Ry
ExtMesh (bp) on 0 =    71 x    64 x    64 =      290816
New grid distribution:   2
           1       1:   15    1:    7    1:    8
           2       1:   15    1:    8    9:   15
           3       1:   15    8:   15    1:    8
           4       1:   15    9:   15    9:   15
New grid distribution:   3
           1       1:   15    1:    8    1:    8
           2       1:   15    1:    8    9:   15
           3       1:   15    9:   15    1:    8
           4       1:   15    9:   15    9:   15
Setting up quadratic distribution...
ExtMesh (bp) on 0 =    71 x    63 x    64 =      286272
PhiOnMesh: Number of (b)points on node 0 =                  840
PhiOnMesh: nlist on node 0 =                18212

   scf: iscf   Eharris(eV)      E_KS(eV)   FreeEng(eV)    dDmax  Ef(eV)
   scf:    1    -2959.9259    -2957.1445    -2957.1445  0.12542 -4.1651
   scf:    2    -2963.6391    -2957.5572    -2957.5572  0.56610 -1.9328
   scf:    3    -2960.4553    -2957.9408    -2957.9408  0.21639 -2.6765
   scf:    4    -2959.3573    -2958.2161    -2958.2161  0.12180 -3.1035
   scf:    5    -2959.1157    -2958.4216    -2958.4216  0.04893 -3.0553
   scf:    6    -2959.0957    -2958.5761    -2958.5761  0.01858 -3.0852
   scf:    7    -2959.0941    -2958.6685    -2958.6685  0.01268 -3.0942
Cycling the Broyden process...
   scf:    8    -2959.0921    -2959.0091    -2959.0091  0.00385 -3.1052
Cycling the Broyden process...
   scf:    9    -2959.0920    -2959.0258    -2959.0258  0.00316 -3.1057
Cycling the Broyden process...
   scf:   10    -2959.0920    -2959.0938    -2959.0938  0.00020 -3.1069

SCF Convergence by dMax criterion
max |DM_out - DM_in|:     0.00019855
SCF cycle converged after   10 iterations

Using DM_out to compute the final energy and forces

siesta: E_KS(eV) =            -2959.0920

siesta: Atomic forces (eV/Ang):
     1    0.000000   -0.000000   -0.000000
     2   -0.000000   -0.000000    0.000000
     3   -1.502848    1.344694    2.914564
     4    1.502848   -1.344695   -2.914564
     5    0.613898    0.855252   -0.289356
     6   -0.466475   -0.987125    0.003568
     7    1.344140   -1.202656   -2.606693
     8   -0.613898   -0.855252    0.289356
     9    0.466475    0.987125   -0.003568
    10   -1.344140    1.202655    2.606694
----------------------------------------
   Tot    0.000000   -0.000000    0.000000
----------------------------------------
   Max    2.914564
   Res    1.290826    sqrt( Sum f_i^2 / 3N )
----------------------------------------
   Max    2.914564    constrained

Stress-tensor-Voigt (kbar):      156.02      187.23      281.44      -49.80       44.08      -71.08
(Free)E + p*V (eV/cell)    -2971.4557
Target enthalpy (eV/cell)    -2959.0920

siesta: Stress tensor (static) (eV/Ang**3):
         0.097380   -0.031084   -0.044364
        -0.031083    0.116860    0.027513
        -0.044364    0.027513    0.175657

siesta: Pressure (static):       -208.23056345  kBar

siesta: Stress tensor (total) (eV/Ang**3):
         0.097380   -0.031084   -0.044364
        -0.031083    0.116860    0.027513
        -0.044364    0.027513    0.175657

siesta: Pressure (total):       -208.23056345  kBar
Volume before coercion:      95.0764

                     ====================================
                        Begin CG opt. move =      6
                     ====================================

outcoor: Atomic coordinates (fractional):                   
    0.00000000   -0.00000000    0.00000000   1       1  Mg
    0.50000000    0.50000000    0.50000000   1       2  Mg
    0.24918349    0.25000003    0.25081635   2       3  C
   -0.24918349   -0.25000003   -0.25081635   2       4  C
    0.54504350   -0.05307576    0.24849936   3       5  O
    0.25150052    0.55307537   -0.04504316   3       6  O
   -0.04552831    0.25000022    0.54552846   3       7  O
   -0.54504350    0.05307576   -0.24849936   3       8  O
   -0.25150052   -0.55307537    0.04504316   3       9  O
    0.04552831   -0.25000022   -0.54552846   3      10  O
 Kpoints in:           60 . Kpoints trimmed:           60

siesta: k-grid: Number of k-points =    60
siesta: k-grid: Cutoff (effective) =    11.158 Ang
siesta: k-grid: Supercell and displacements
siesta: k-grid:    5  -5   0      0.500
siesta: k-grid:    4   0   0      0.000
siesta: k-grid:    0  -5   5      0.000
Naive supercell factors:     4    4    4
Auxiliary supercell needs to be larger than naive one...

superc: Internal auxiliary supercell:     5 x     5 x     4  =     100
superc: Number of atoms, orbitals, and projectors:   1000   3400   8000

outcell: Unit cell vectors (Ang):
        5.578586   -0.075970   -0.024400
        3.663218    4.232468   -0.063856
        3.531017    1.756119    3.946516

outcell: Cell vector modules (Ang)   :    5.579157    5.597949    5.579159
outcell: Cell angles (23,13,12) (deg):     49.9038     51.2848     49.9038
outcell: Cell volume (Ang**3)        :     95.1306
New_DM. Step:     7
Re-using DM from previous geometry...
Re-using DM without extrapolation (not allowed)
Density Matrix sparsity pattern changed.
New grid distribution:   1
           1       1:   15    1:    8    1:    8
           2       1:   15    1:    8    9:   15
           3       1:   15    9:   15    1:    8
           4       1:   15    9:   15    9:   15

InitMesh: MESH =    30 x    30 x    30 =       27000
InitMesh: (bp) =    15 x    15 x    15 =        3375
InitMesh: Mesh cutoff (required, used) =   100.000   105.128 Ry
ExtMesh (bp) on 0 =    71 x    64 x    64 =      290816
New grid distribution:   2
           1       1:   15    1:    7    1:    8
           2       1:   15    1:    8    9:   15
           3       1:   15    8:   15    1:    8
           4       1:   15    9:   15    9:   15
New grid distribution:   3
           1       1:   15    1:    8    1:    8
           2       1:   15    1:    8    9:   15
           3       1:   15    9:   15    1:    8
           4       1:   15    9:   15    9:   15
Setting up quadratic distribution...
ExtMesh (bp) on 0 =    71 x    63 x    64 =      286272
PhiOnMesh: Number of (b)points on node 0 =                  840
PhiOnMesh: nlist on node 0 =                18243

   scf: iscf   Eharris(eV)      E_KS(eV)   FreeEng(eV)    dDmax  Ef(eV)
   scf:    1    -2960.0022    -2960.8511    -2960.8511  0.08709 -3.1364
   scf:    2    -2961.3735    -2959.0351    -2959.0351  0.27649 -3.2562
   scf:    3    -2960.3309    -2959.2051    -2959.2051  0.18313 -3.2422
   scf:    4    -2959.6612    -2959.3249    -2959.3249  0.01936 -4.3327
   scf:    5    -2959.6606    -2959.3672    -2959.3672  0.01655 -4.3351
   scf:    6    -2959.6587    -2959.6073    -2959.6073  0.00220 -4.3301
   scf:    7    -2959.6587    -2959.6157    -2959.6157  0.00149 -4.3303
Cycling the Broyden process...
   scf:    8    -2959.6587    -2959.6130    -2959.6130  0.00167 -4.3302
Cycling the Broyden process...
   scf:    9    -2959.6586    -2959.6604    -2959.6604  0.00011 -4.3309

SCF Convergence by dMax criterion
max |DM_out - DM_in|:     0.00011362
SCF cycle converged after    9 iterations

Using DM_out to compute the final energy and forces

siesta: E_KS(eV) =            -2959.6586

siesta: Atomic forces (eV/Ang):
     1    0.000000   -0.000000   -0.000000
     2   -0.000000    0.000000    0.000000
     3   -0.103102    0.092262    0.199945
     4    0.103103   -0.092263   -0.199944
     5   -0.375803    0.291321   -0.076621
     6    0.200372   -0.134381    0.416931
     7    0.333363   -0.298250   -0.646477
     8    0.375802   -0.291321    0.076620
     9   -0.200371    0.134381   -0.416931
    10   -0.333363    0.298250    0.646477
----------------------------------------
   Tot    0.000000   -0.000000   -0.000000
----------------------------------------
   Max    0.646477
   Res    0.275819    sqrt( Sum f_i^2 / 3N )
----------------------------------------
   Max    0.646477    constrained

Stress-tensor-Voigt (kbar):      157.99      176.90      218.20      -23.35       19.14      -33.82
(Free)E + p*V (eV/cell)    -2970.6054
Target enthalpy (eV/cell)    -2959.6586

siesta: Stress tensor (static) (eV/Ang**3):
         0.098610   -0.014574   -0.021110
        -0.014575    0.110412    0.011944
        -0.021110    0.011944    0.136191

siesta: Pressure (static):       -184.36628637  kBar

siesta: Stress tensor (total) (eV/Ang**3):
         0.098610   -0.014574   -0.021110
        -0.014575    0.110412    0.011944
        -0.021110    0.011944    0.136191

siesta: Pressure (total):       -184.36628637  kBar

cgvc: Finished line minimization    2.  Mean atomic displacement =    0.0653
Volume before coercion:      95.0828

                     ====================================
                        Begin CG opt. move =      7
                     ====================================

outcoor: Atomic coordinates (fractional):                   
    0.00000000   -0.00000000   -0.00000000   1       1  Mg
    0.50000000    0.50000000    0.50000000   1       2  Mg
    0.25192163    0.25000010    0.24807817   2       3  C
   -0.25192163   -0.25000010   -0.24807816   2       4  C
    0.53876948   -0.05559895    0.24496269   3       5  O
    0.25503734    0.55559811   -0.03876837   3       6  O
   -0.04443156    0.25000064    0.54443212   3       7  O
   -0.53876948    0.05559895   -0.24496269   3       8  O
   -0.25503734   -0.55559811    0.03876836   3       9  O
    0.04443156   -0.25000065   -0.54443212   3      10  O
 Kpoints in:           60 . Kpoints trimmed:           60

siesta: k-grid: Number of k-points =    60
siesta: k-grid: Cutoff (effective) =    11.208 Ang
siesta: k-grid: Supercell and displacements
siesta: k-grid:    5  -5   0      0.500
siesta: k-grid:    4   0   0      0.000
siesta: k-grid:    0  -5   5      0.000
Naive supercell factors:     4    4    4
Auxiliary supercell needs to be larger than naive one...

superc: Internal auxiliary supercell:     5 x     5 x     4  =     100
superc: Number of atoms, orbitals, and projectors:   1000   3400   8000

outcell: Unit cell vectors (Ang):
        5.603965   -0.053643    0.011506
        3.696779    4.254477   -0.056704
        3.579494    1.757780    3.937631

outcell: Cell vector modules (Ang)   :    5.604234    5.636485    5.604240
outcell: Cell angles (23,13,12) (deg):     49.5647     50.4225     49.5647
outcell: Cell volume (Ang**3)        :     95.1306
New_DM. Step:     8
Re-using DM from previous geometry...
Re-using DM without extrapolation (not allowed)
Density Matrix sparsity pattern changed.
New grid distribution:   1
           1       1:   15    1:    8    1:    8
           2       1:   15    1:    8    9:   15
           3       1:   15    9:   15    1:    8
           4       1:   15    9:   15    9:   15

InitMesh: MESH =    30 x    30 x    30 =       27000
InitMesh: (bp) =    15 x    15 x    15 =        3375
InitMesh: Mesh cutoff (required, used) =   100.000   103.395 Ry
ExtMesh (bp) on 0 =    71 x    64 x    64 =      290816
New grid distribution:   2
           1       1:   15    1:    7    1:    8
           2       1:   15    1:    8    9:   15
           3       1:   15    8:   15    1:    8
           4       1:   15    9:   15    9:   15
New grid distribution:   3
           1       1:   15    1:    8    1:    8
           2       1:   15    1:    8    9:   15
           3       1:   15    9:   15    1:    8
           4       1:   15    9:   15    9:   15
Setting up quadratic distribution...
ExtMesh (bp) on 0 =    71 x    63 x    64 =      286272
PhiOnMesh: Number of (b)points on node 0 =                  840
PhiOnMesh: nlist on node 0 =                18250

   scf: iscf   Eharris(eV)      E_KS(eV)   FreeEng(eV)    dDmax  Ef(eV)
   scf:    1    -2959.6357    -2960.2651    -2960.2651  0.04225 -4.2348
   scf:    2    -2959.6421    -2959.6147    -2959.6147  0.03128 -4.2904
   scf:    3    -2959.6326    -2959.6168    -2959.6168  0.02213 -4.2826
   scf:    4    -2959.6245    -2959.6193    -2959.6193  0.00429 -4.2667
   scf:    5    -2959.6242    -2959.6208    -2959.6208  0.00137 -4.2641
   scf:    6    -2959.6242    -2959.6222    -2959.6222  0.00100 -4.2643

SCF Convergence by dMax criterion
max |DM_out - DM_in|:     0.00099999
SCF cycle converged after    6 iterations

Using DM_out to compute the final energy and forces

siesta: E_KS(eV) =            -2959.6242

siesta: Atomic forces (eV/Ang):
     1    0.000000    0.000000    0.000000
     2   -0.000000   -0.000000    0.000000
     3   -0.313740    0.280755    0.608669
     4    0.313739   -0.280756   -0.608671
     5    0.957280    0.440583   -0.054532
     6   -0.716764   -0.655802   -0.411938
     7    0.144066   -0.128839   -0.279308
     8   -0.957280   -0.440582    0.054532
     9    0.716765    0.655802    0.411939
    10   -0.144066    0.128839    0.279308
----------------------------------------
   Tot   -0.000000   -0.000001    0.000001
----------------------------------------
   Max    0.957280
   Res    0.438945    sqrt( Sum f_i^2 / 3N )
----------------------------------------
   Max    0.957280    constrained

Stress-tensor-Voigt (kbar):      150.50      160.41      177.06      -14.16        3.83      -11.00
(Free)E + p*V (eV/cell)    -2969.2819
Target enthalpy (eV/cell)    -2959.6242

siesta: Stress tensor (static) (eV/Ang**3):
         0.093936   -0.008816   -0.006873
        -0.008837    0.100118    0.002382
        -0.006863    0.002393    0.110511

siesta: Pressure (static):       -162.65696358  kBar

siesta: Stress tensor (total) (eV/Ang**3):
         0.093936   -0.008816   -0.006873
        -0.008837    0.100118    0.002382
        -0.006863    0.002393    0.110511

siesta: Pressure (total):       -162.65696358  kBar
Volume before coercion:      95.0806

                     ====================================
                        Begin CG opt. move =      8
                     ====================================

outcoor: Atomic coordinates (fractional):                   
    0.00000000   -0.00000000   -0.00000000   1       1  Mg
    0.50000000    0.50000000    0.50000000   1       2  Mg
    0.25006182    0.25000005    0.24993801   2       3  C
   -0.25006182   -0.25000005   -0.24993801   2       4  C
    0.54303094   -0.05388514    0.24736488   3       5  O
    0.25263505    0.55388460   -0.04303036   3       6  O
   -0.04517650    0.25000035    0.54517678   3       7  O
   -0.54303094    0.05388514   -0.24736488   3       8  O
   -0.25263505   -0.55388460    0.04303036   3       9  O
    0.04517650   -0.25000035   -0.54517678   3      10  O
 Kpoints in:           60 . Kpoints trimmed:           60

siesta: k-grid: Number of k-points =    60
siesta: k-grid: Cutoff (effective) =    11.174 Ang
siesta: k-grid: Supercell and displacements
siesta: k-grid:    5  -5   0      0.500
siesta: k-grid:    4   0   0      0.000
siesta: k-grid:    0  -5   5      0.000
Naive supercell factors:     4    4    4
Auxiliary supercell needs to be larger than naive one...

superc: Internal auxiliary supercell:     5 x     5 x     4  =     100
superc: Number of atoms, orbitals, and projectors:   1000   3400   8000

outcell: Unit cell vectors (Ang):
        5.586685   -0.068807   -0.012882
        3.673956    4.239497   -0.061561
        3.546541    1.756639    3.943636

outcell: Cell vector modules (Ang)   :    5.587124    5.610265    5.587128
outcell: Cell angles (23,13,12) (deg):     49.7945     51.0074     49.7945
outcell: Cell volume (Ang**3)        :     95.1306
New_DM. Step:     9
Re-using DM from previous geometry...
Re-using DM without extrapolation (not allowed)
Density Matrix sparsity pattern changed.
New grid distribution:   1
           1       1:   15    1:    8    1:    8
           2       1:   15    1:    8    9:   15
           3       1:   15    9:   15    1:    8
           4       1:   15    9:   15    9:   15

InitMesh: MESH =    30 x    30 x    30 =       27000
InitMesh: (bp) =    15 x    15 x    15 =        3375
InitMesh: Mesh cutoff (required, used) =   100.000   104.569 Ry
ExtMesh (bp) on 0 =    71 x    64 x    64 =      290816
New grid distribution:   2
           1       1:   15    1:    7    1:    8
           2       1:   15    1:    8    9:   15
           3       1:   15    8:   15    1:    8
           4       1:   15    9:   15    9:   15
New grid distribution:   3
           1       1:   15    1:    8    1:    8
           2       1:   15    1:    8    9:   15
           3       1:   15    9:   15    1:    8
           4       1:   15    9:   15    9:   15
Setting up quadratic distribution...
ExtMesh (bp) on 0 =    71 x    63 x    64 =      286272
PhiOnMesh: Number of (b)points on node 0 =                  840
PhiOnMesh: nlist on node 0 =                18230

   scf: iscf   Eharris(eV)      E_KS(eV)   FreeEng(eV)    dDmax  Ef(eV)
   scf:    1    -2959.6957    -2959.2319    -2959.2319  0.03056 -4.3347
   scf:    2    -2959.6987    -2959.6849    -2959.6849  0.02374 -4.3061
   scf:    3    -2959.6943    -2959.6861    -2959.6861  0.01687 -4.3076
   scf:    4    -2959.6900    -2959.6874    -2959.6874  0.00241 -4.3117
   scf:    5    -2959.6899    -2959.6883    -2959.6883  0.00080 -4.3142

SCF Convergence by dMax criterion
max |DM_out - DM_in|:     0.00079941
SCF cycle converged after    5 iterations

Using DM_out to compute the final energy and forces

siesta: E_KS(eV) =            -2959.6899

siesta: Atomic forces (eV/Ang):
     1   -0.000000   -0.000000   -0.000000
     2    0.000000    0.000000    0.000000
     3   -0.166099    0.148615    0.322154
     4    0.166099   -0.148616   -0.322154
     5   -0.043814    0.324022   -0.099622
     6   -0.006708   -0.278826    0.197662
     7    0.269874   -0.241434   -0.523340
     8    0.043815   -0.324021    0.099621
     9    0.006709    0.278826   -0.197662
    10   -0.269874    0.241434    0.523339
----------------------------------------
   Tot    0.000001   -0.000000   -0.000001
----------------------------------------
   Max    0.523340
   Res    0.229806    sqrt( Sum f_i^2 / 3N )
----------------------------------------
   Max    0.523340    constrained

Stress-tensor-Voigt (kbar):      153.23      173.38      206.51      -22.26       13.19      -27.71
(Free)E + p*V (eV/cell)    -2970.2412
Target enthalpy (eV/cell)    -2959.6899

siesta: Stress tensor (static) (eV/Ang**3):
         0.095635   -0.013921   -0.017284
        -0.013894    0.108215    0.008244
        -0.017297    0.008230    0.128892

siesta: Pressure (static):       -177.70594414  kBar

siesta: Stress tensor (total) (eV/Ang**3):
         0.095635   -0.013921   -0.017284
        -0.013894    0.108215    0.008244
        -0.017297    0.008230    0.128892

siesta: Pressure (total):       -177.70594414  kBar

cgvc: Finished line minimization    3.  Mean atomic displacement =    0.0210
Volume before coercion:      95.0855

                     ====================================
                        Begin CG opt. move =      9
                     ====================================

outcoor: Atomic coordinates (fractional):                   
   -0.00000000   -0.00000000   -0.00000000   1       1  Mg
    0.50000000    0.50000000    0.50000000   1       2  Mg
    0.24908065    0.25000003    0.25091931   2       3  C
   -0.24908065   -0.25000004   -0.25091931   2       4  C
    0.54266910   -0.05260374    0.24734470   3       5  O
    0.25265533    0.55260315   -0.04266837   3       6  O
   -0.04351535    0.25000054    0.54351585   3       7  O
   -0.54266910    0.05260374   -0.24734470   3       8  O
   -0.25265533   -0.55260314    0.04266837   3       9  O
    0.04351535   -0.25000054   -0.54351586   3      10  O
 Kpoints in:           60 . Kpoints trimmed:           60

siesta: k-grid: Number of k-points =    60
siesta: k-grid: Cutoff (effective) =    11.197 Ang
siesta: k-grid: Supercell and displacements
siesta: k-grid:    5  -5   0      0.500
siesta: k-grid:    4   0   0      0.000
siesta: k-grid:    0  -5   5      0.000
Naive supercell factors:     4    4    4
Auxiliary supercell needs to be larger than naive one...

superc: Internal auxiliary supercell:     5 x     5 x     4  =     100
superc: Number of atoms, orbitals, and projectors:   1000   3400   8000

outcell: Unit cell vectors (Ang):
        5.598352   -0.058109    0.000516
        3.689708    4.248152   -0.057432
        3.566798    1.759651    3.940376

outcell: Cell vector modules (Ang)   :    5.598654    5.627081    5.598659
outcell: Cell angles (23,13,12) (deg):     49.6216     50.6653     49.6215
outcell: Cell volume (Ang**3)        :     95.1306
New_DM. Step:    10
Re-using DM from previous geometry...
Re-using DM without extrapolation (not allowed)
Density Matrix sparsity pattern changed.
New grid distribution:   1
           1       1:   15    1:    8    1:    8
           2       1:   15    1:    8    9:   15
           3       1:   15    9:   15    1:    8
           4       1:   15    9:   15    9:   15

InitMesh: MESH =    30 x    30 x    30 =       27000
InitMesh: (bp) =    15 x    15 x    15 =        3375
InitMesh: Mesh cutoff (required, used) =   100.000   103.794 Ry
ExtMesh (bp) on 0 =    71 x    64 x    64 =      290816
New grid distribution:   2
           1       1:   15    1:    7    1:    8
           2       1:   15    1:    8    9:   15
           3       1:   15    8:   15    1:    8
           4       1:   15    9:   15    9:   15
New grid distribution:   3
           1       1:   15    1:    8    1:    8
           2       1:   15    1:    8    9:   15
           3       1:   15    9:   15    1:    8
           4       1:   15    9:   15    9:   15
Setting up quadratic distribution...
ExtMesh (bp) on 0 =    71 x    63 x    64 =      286272
PhiOnMesh: Number of (b)points on node 0 =                  840
PhiOnMesh: nlist on node 0 =                18234

   scf: iscf   Eharris(eV)      E_KS(eV)   FreeEng(eV)    dDmax  Ef(eV)
   scf:    1    -2959.7246    -2960.1555    -2960.1555  0.02029 -4.1666
   scf:    2    -2959.7533    -2959.7008    -2959.7008  0.03492 -4.2371
   scf:    3    -2959.7308    -2959.7047    -2959.7047  0.02148 -4.2231
   scf:    4    -2959.7162    -2959.7078    -2959.7078  0.00440 -4.1998
   scf:    5    -2959.7159    -2959.7109    -2959.7109  0.00132 -4.1970
   scf:    6    -2959.7159    -2959.7114    -2959.7114  0.00117 -4.1969
   scf:    7    -2959.7159    -2959.7149    -2959.7149  0.00004 -4.1959

SCF Convergence by dMax criterion
max |DM_out - DM_in|:     0.00004238
SCF cycle converged after    7 iterations

Using DM_out to compute the final energy and forces

siesta: E_KS(eV) =            -2959.7159

siesta: Atomic forces (eV/Ang):
     1    0.000000    0.000000    0.000000
     2   -0.000000    0.000000   -0.000000
     3    0.057876   -0.051785   -0.112192
     4   -0.057877    0.051785    0.112191
     5   -0.050173    0.047345   -0.108280
     6    0.092404   -0.085171    0.026380
     7   -0.029127    0.026136    0.056572
     8    0.050173   -0.047346    0.108280
     9   -0.092403    0.085171   -0.026380
    10    0.029127   -0.026136   -0.056571
----------------------------------------
   Tot   -0.000000   -0.000001    0.000000
----------------------------------------
   Max    0.112192
   Res    0.061276    sqrt( Sum f_i^2 / 3N )
----------------------------------------
   Max    0.112192    constrained

Stress-tensor-Voigt (kbar):      150.98      159.42      175.09      -10.49        6.03      -12.30
(Free)E + p*V (eV/cell)    -2969.3246
Target enthalpy (eV/cell)    -2959.7159

siesta: Stress tensor (static) (eV/Ang**3):
         0.094234   -0.006547   -0.007676
        -0.006547    0.099501    0.003765
        -0.007676    0.003765    0.109281

siesta: Pressure (static):       -161.83030147  kBar

siesta: Stress tensor (total) (eV/Ang**3):
         0.094234   -0.006547   -0.007676
        -0.006547    0.099501    0.003765
        -0.007676    0.003765    0.109281

siesta: Pressure (total):       -161.83030147  kBar
Volume before coercion:      95.0871

                     ====================================
                        Begin CG opt. move =     10
                     ====================================

outcoor: Atomic coordinates (fractional):                   
   -0.00000000   -0.00000000   -0.00000000   1       1  Mg
    0.50000000    0.50000000    0.50000000   1       2  Mg
    0.24751078    0.25000000    0.25248940   2       3  C
   -0.24751077   -0.25000001   -0.25248940   2       4  C
    0.54209015   -0.05055350    0.24731240   3       5  O
    0.25268778    0.55055282   -0.04208919   3       6  O
   -0.04085751    0.25000083    0.54085837   3       7  O
   -0.54209015    0.05055351   -0.24731240   3       8  O
   -0.25268778   -0.55055281    0.04208919   3       9  O
    0.04085751   -0.25000083   -0.54085838   3      10  O
 Kpoints in:           60 . Kpoints trimmed:           60

siesta: k-grid: Number of k-points =    60
siesta: k-grid: Cutoff (effective) =    11.235 Ang
siesta: k-grid: Supercell and displacements
siesta: k-grid:    5  -5   0      0.500
siesta: k-grid:    4   0   0      0.000
siesta: k-grid:    0  -5   5      0.000
Naive supercell factors:     4    4    4
Auxiliary supercell needs to be larger than naive one...

superc: Internal auxiliary supercell:     5 x     5 x     4  =     100
superc: Number of atoms, orbitals, and projectors:   1000   3400   8000

outcell: Unit cell vectors (Ang):
        5.617143   -0.040994    0.021953
        3.714993    4.262093   -0.050826
        3.599289    1.764508    3.935247

outcell: Cell vector modules (Ang)   :    5.617336    5.654131    5.617343
outcell: Cell angles (23,13,12) (deg):     49.3466     50.1209     49.3466
outcell: Cell volume (Ang**3)        :     95.1306
New_DM. Step:    11
Re-using DM from previous geometry...
Re-using DM without extrapolation (not allowed)
Density Matrix sparsity pattern changed.
New grid distribution:   1
           1       1:   15    1:    8    1:    8
           2       1:   15    1:    8    9:   15
           3       1:   15    9:   15    1:    8
           4       1:   15    9:   15    9:   15

InitMesh: MESH =    30 x    30 x    30 =       27000
InitMesh: (bp) =    15 x    15 x    15 =        3375
InitMesh: Mesh cutoff (required, used) =   100.000   102.567 Ry
ExtMesh (bp) on 0 =    71 x    64 x    64 =      290816
New grid distribution:   2
           1       1:   15    1:    7    1:    8
           2       1:   15    1:    8    9:   15
           3       1:   15    8:   15    1:    8
           4       1:   15    9:   15    9:   15
New grid distribution:   3
           1       1:   15    1:    8    1:    8
           2       1:   15    1:    8    9:   15
           3       1:   15    9:   15    1:    8
           4       1:   15    9:   15    9:   15
Setting up quadratic distribution...
ExtMesh (bp) on 0 =    71 x    63 x    64 =      286272
PhiOnMesh: Number of (b)points on node 0 =                  840
PhiOnMesh: nlist on node 0 =                18245

   scf: iscf   Eharris(eV)      E_KS(eV)   FreeEng(eV)    dDmax  Ef(eV)
   scf:    1    -2959.7019    -2960.4250    -2960.4250  0.03155 -3.9092
   scf:    2    -2959.7549    -2959.6526    -2959.6526  0.04719 -4.0569
   scf:    3    -2959.7121    -2959.6602    -2959.6602  0.03003 -4.0277
   scf:    4    -2959.6834    -2959.6665    -2959.6665  0.00606 -3.9786
   scf:    5    -2959.6827    -2959.6726    -2959.6726  0.00223 -3.9735
   scf:    6    -2959.6827    -2959.6740    -2959.6740  0.00176 -3.9732
   scf:    7    -2959.6826    -2959.6809    -2959.6809  0.00007 -3.9715

SCF Convergence by dMax criterion
max |DM_out - DM_in|:     0.00007207
SCF cycle converged after    7 iterations

Using DM_out to compute the final energy and forces

siesta: E_KS(eV) =            -2959.6826

siesta: Atomic forces (eV/Ang):
     1    0.000000    0.000000   -0.000000
     2   -0.000000   -0.000000   -0.000000
     3    0.484773   -0.433736   -0.940092
     4   -0.484775    0.433738    0.940090
     5   -0.052544   -0.330638   -0.154542
     6    0.247779    0.155854   -0.224136
     7   -0.568733    0.509021    1.103144
     8    0.052544    0.330637    0.154543
     9   -0.247778   -0.155855    0.224136
    10    0.568732   -0.509022   -1.103145
----------------------------------------
   Tot   -0.000001   -0.000001   -0.000001
----------------------------------------
   Max    1.103145
   Res    0.474572    sqrt( Sum f_i^2 / 3N )
----------------------------------------
   Max    1.103145    constrained

Stress-tensor-Voigt (kbar):      147.25      143.27      124.72        8.13       -9.74       13.87
(Free)E + p*V (eV/cell)    -2967.9011
Target enthalpy (eV/cell)    -2959.6826

siesta: Stress tensor (static) (eV/Ang**3):
         0.091906    0.005071    0.008657
         0.005072    0.089423   -0.006079
         0.008657   -0.006079    0.077845

siesta: Pressure (static):       -138.41536549  kBar

siesta: Stress tensor (total) (eV/Ang**3):
         0.091906    0.005071    0.008657
         0.005072    0.089423   -0.006079
         0.008657   -0.006079    0.077845

siesta: Pressure (total):       -138.41536549  kBar
Volume before coercion:      95.0860

outcoor: Final (unrelaxed) atomic coordinates (fractional): 
   -0.00000000   -0.00000000   -0.00000000   1       1  Mg
    0.50000000    0.50000000    0.50000000   1       2  Mg
    0.24751078    0.25000000    0.25248940   2       3  C
   -0.24751077   -0.25000001   -0.25248940   2       4  C
    0.54209015   -0.05055350    0.24731240   3       5  O
    0.25268778    0.55055282   -0.04208919   3       6  O
   -0.04085751    0.25000083    0.54085837   3       7  O
   -0.54209015    0.05055351   -0.24731240   3       8  O
   -0.25268778   -0.55055281    0.04208919   3       9  O
    0.04085751   -0.25000083   -0.54085838   3      10  O

outcell: Unit cell vectors (Ang):
        5.617143   -0.040994    0.021953
        3.714993    4.262093   -0.050826
        3.599289    1.764508    3.935247

outcell: Cell vector modules (Ang)   :    5.617336    5.654131    5.617343
outcell: Cell angles (23,13,12) (deg):     49.3466     50.1209     49.3466
outcell: Cell volume (Ang**3)        :     95.1306

siesta: Program's energy decomposition (eV):
siesta: Ebs     =      -596.370602
siesta: Eions   =      5228.674091
siesta: Ena     =      1099.221970
siesta: Ekin    =      2242.780713
siesta: Enl     =      -348.422748
siesta: DEna    =       -35.189244
siesta: DUscf   =         6.535809
siesta: DUext   =         0.000000
siesta: Exc     =      -695.935054
siesta: eta*DQ  =         0.000000
siesta: Emadel  =         0.000000
siesta: Emeta   =         0.000000
siesta: Emolmec =         0.000000
siesta: Ekinion =         0.000000
siesta: Eharris =     -2959.682646
siesta: Etot    =     -2959.682646
siesta: FreeEng =     -2959.682646

siesta: Final energy (eV):
siesta:  Band Struct. =    -596.370602
siesta:       Kinetic =    2242.780713
siesta:       Hartree =     951.882583
siesta:    Ext. field =       0.000000
siesta:   Exch.-corr. =    -695.935054
siesta:  Ion-electron =   -3831.005480
siesta:       Ion-ion =   -1627.405407
siesta:       Ekinion =       0.000000
siesta:         Total =   -2959.682646

siesta: Atomic forces (eV/Ang):
siesta:      1    0.000000    0.000000   -0.000000
siesta:      2   -0.000000   -0.000000   -0.000000
siesta:      3    0.484773   -0.433736   -0.940092
siesta:      4   -0.484775    0.433738    0.940090
siesta:      5   -0.052544   -0.330638   -0.154542
siesta:      6    0.247779    0.155854   -0.224136
siesta:      7   -0.568733    0.509021    1.103144
siesta:      8    0.052544    0.330637    0.154543
siesta:      9   -0.247778   -0.155855    0.224136
siesta:     10    0.568732   -0.509022   -1.103145
siesta: ----------------------------------------
siesta:    Tot   -0.000001   -0.000001   -0.000001

siesta: Stress tensor (static) (eV/Ang**3):
siesta:     0.091906    0.005071    0.008657
siesta:     0.005072    0.089423   -0.006079
siesta:     0.008657   -0.006079    0.077845

siesta: Constrained stress tensor (static) (eV/Ang**3):
siesta:     0.091906    0.005072    0.008657
siesta:     0.005072    0.089423   -0.006079
siesta:     0.008657   -0.006079    0.077845

siesta: Cell volume =         95.130619 Ang**3

siesta: Pressure (static):
siesta:                Solid            Molecule  Units
siesta:          -0.00094091         -0.00114271  Ry/Bohr**3
siesta:          -0.08639114         -0.10492018  eV/Ang**3
siesta:        -138.41536549       -168.10247027  kBar
(Free)E+ p_basis*V_orbitals  =       -2958.488349
(Free)Eharris+ p_basis*V_orbitals  =       -2958.488349
>> End of run:  29-SEP-2015  15:31:22
