Siesta Version  : siesta-4.0--578
Architecture    : x86_64-linux-n-62-25-35
Compiler version: GNU Fortran (GCC) 7.3.0
Compiler flags  : mpif90 -m64 -fPIC -O3 -march=native -ftree-vectorize -fexpensive-optimizationns -funroll-loops -fprefetch-loop-arrays -fno-second-underscore
PP flags        : -I/zdata/groups/common/nicpa/2018-feb/generic/build-tools/1.0/include -I/zdatta/groups/common/nicpa/2018-feb/generic/gcc/7.3.0/include -I/zdata/groups/common/nicpa/2018-feb/generic/gcc/7.3.0/include -I/zdata/groups/common/nicpa/2018-feb/XeonE5-2660v3/zlib/1.2.11/gnu-7.3.0/include -I/zdata/groups/common/nicpa/2018-feb/generic/numactl/2.0.11/include -I/zdata/groups/common/nicpa/2018-feb/XeonE5-2660v3/libxml2/2.9.7/gnu-7.3.0/include -I/zdata/groups/common/nicpa/2018-feb/XeonE5-2660v3/hwloc/1.11.9/gnu-7.3.0/include -I/zdata/groups/common/nicpa/2018-feb/XeonE5-2660v3/openmpi/3.0.0/gnu-7.3.0/include -I/zdata/groups/common/nicpa/2018-feb/XeonE5-2660v3/szip/2.1.1/gnu-7.3.0/include -I/zdata/groups/common/nicpa/2018-feb/XeonE5-2660v3/hdf5-serial/1.8.18/gnu-7.3.0/include -I/zdata/groups/common/nicpa/2018-feb/XeonE5-2660v3/netcdf-serial/4.6.0/gnu-7.3.0/include -I/zdata/groups/common/nicpa/2018-feb/XeonE5-2660v3/scalapack/204/gnu-7.3.0/include -I/zdata/groups/common/nicpa/2018-feb/XeonE5-2660v3/openblas/0.2.20/gnu-7.3.0/include -I/zdata/groups/common/nicpa/2018-feb/XeonE5-2660v3/elpa/2017.05.003/gnu-7.3.0/include -DSIESTA__ELPA -DMPI -D1 -DFC_HAVE_ABORT -DCDF -DSIESTA__MRRR 
PARALLEL version
NetCDF support

* Running on    8 nodes in parallel
>> Start of run:  10-JUN-2018  21:03:05

                           ***********************       
                           *  WELCOME TO SIESTA  *       
                           ***********************       

reinit: Reading from standard input
************************** Dump of input data file ****************************
SystemName          Linear Fe3 cluster.
SystemLabel         fe_clust_noncollinear
NumberOfAtoms       3
NumberOfSpecies     1
%block ChemicalSpeciesLabel
 1  26  fe_nc      # Species index, atomic number, species label
%endblock ChemicalSpeciesLabel
LatticeConstant    1.0 Bohr
%block LatticeVectors
 12.000   0.000   0.000
  0.000  12.000   0.000
  0.000   0.000  20.000
%endblock LatticeVectors
AtomicCoordinatesFormat  NotScaledCartesianBohr
%block AtomicCoordinatesAndAtomicSpecies
  0.000   0.000   3.644  1
  0.000   0.000   0.000  1
  0.000   0.000  -3.644  1
%endblock AtomicCoordinatesAndAtomicSpecies
%block AtomicCoordinatesOrigin
  0.000   0.000   0.000
%endblock AtomicCoordinatesOrigin
PAO.BasisType    split
PAO.SplitNorm    0.15
%block PAO.BasisAndPSlmax
  1   26   2   3
    0    2
      5.30   0.00
      1.00   1.00
    1    1
      5.30   0.00
      1.00   1.00
    2    2
      4.50   0.00
      1.00   1.00
%endblock PAO.BasisAndPSlmax
MeshCutoff        150. Ry
ElectronicTemperature   0.1 eV
DM.MixingWeight         0.01
DM.NumberPulay          4
MaxSCFiterations      200
MD.TypeOfRun      CG
MD.NumCGsteps     0
WriteMullikenPop  1
SpinPolarized     yes
NonCollinearSpin  yes
DM.UseSaveDM      yes
%block DM.InitSpin
 1  +3.00     0.   0.   # atom,spin,theta,phi (deg)
 2  +1.50    90.   0.
 3  +3.00   180.   0.
%endblock DM.InitSpin
************************** End of input data file *****************************

reinit: -----------------------------------------------------------------------
reinit: System Name: Linear Fe3 cluster.
reinit: -----------------------------------------------------------------------
reinit: System Label: fe_clust_noncollinear                                       
reinit: -----------------------------------------------------------------------

initatom: Reading input for the pseudopotentials and atomic orbitals ----------
 Species number:            1  Label: fe_nc Atomic number:          26
Ground state valence configuration:   4s02  3d06
Reading pseudopotential information in formatted form from fe_nc.psf

Valence configuration for pseudopotential generation:
4s( 1.00) rc: 2.00
4p( 0.00) rc: 2.00
3d( 7.00) rc: 2.00
4f( 0.00) rc: 2.00
For fe_nc, standard SIESTA heuristics set lmxkb to 3
 (one more than the basis l, including polarization orbitals).
Use PS.lmax or PS.KBprojectors blocks to override.

<basis_specs>
===============================================================================
fe_nc                Z=  26    Mass=  55.850        Charge= 0.17977+309
Lmxo=2 Lmxkb= 3    BasisType=split      Semic=F
L=0  Nsemic=0  Cnfigmx=4
          n=1  nzeta=2  polorb=1
            splnorm:   0.15000    
               vcte:    0.0000    
               rinn:    0.0000    
               qcoe:    0.0000    
               qyuk:    0.0000    
               qwid:   0.10000E-01
                rcs:    0.0000      0.0000    
            lambdas:    1.0000      1.0000    
L=1  Nsemic=0  Cnfigmx=4
L=2  Nsemic=0  Cnfigmx=3
          n=1  nzeta=2  polorb=0
            splnorm:   0.15000    
               vcte:    0.0000    
               rinn:    0.0000    
               qcoe:    0.0000    
               qyuk:    0.0000    
               qwid:   0.10000E-01
                rcs:    0.0000      0.0000    
            lambdas:    1.0000      1.0000    
-------------------------------------------------------------------------------
L=0  Nkbl=1  erefs: 0.17977+309
L=1  Nkbl=1  erefs: 0.17977+309
L=2  Nkbl=1  erefs: 0.17977+309
L=3  Nkbl=1  erefs: 0.17977+309
===============================================================================
</basis_specs>

atom: Called for fe_nc                 (Z =  26)

read_vps: Pseudopotential generation method:
read_vps: ATM3      Troullier-Martins                       
Total valence charge:    8.00000

read_vps: Pseudopotential includes a core correction:
read_vps: Pseudo-core for xc-correction

xc_check: Exchange-correlation functional:
xc_check: Ceperley-Alder
V l=0 = -2*Zval/r beyond r=  2.8345
V l=1 = -2*Zval/r beyond r=  2.8345
V l=2 = -2*Zval/r beyond r=  2.8345
V l=3 = -2*Zval/r beyond r=  2.8345
All V_l potentials equal beyond r=  1.9726
This should be close to max(r_c) in ps generation
All pots = -2*Zval/r beyond r=  2.8345
Using large-core scheme for Vlocal

atom: Estimated core radius    2.83451
atom: Maximum radius for 4*pi*r*r*local-pseudopot. charge    3.13263
atom: Maximum radius for r*vlocal+2*Zval:    2.87017
GHOST: No ghost state for L =  0
GHOST: No ghost state for L =  1
GHOST: No ghost state for L =  2
GHOST: No ghost state for L =  3

KBgen: Kleinman-Bylander projectors: 
   l= 0   rc=  2.047986   el= -0.319855   Ekb=  3.923406   kbcos=  0.252820
   l= 1   rc=  2.047986   el= -0.070931   Ekb=  3.313875   kbcos=  0.157841
   l= 2   rc=  2.022544   el= -0.307264   Ekb=-12.478630   kbcos= -0.654791
   l= 3   rc=  2.047986   el=  0.003534   Ekb= -1.656634   kbcos= -0.005966

KBgen: Total number of  Kleinman-Bylander projectors:   16
atom: -------------------------------------------------------------------------

atom: SANKEY-TYPE ORBITALS:
atom: Selected multiple-zeta basis: split     

SPLIT: Orbitals with angular momentum L= 0

SPLIT: Basis orbitals for state 4s

SPLIT: PAO cut-off radius determined from an
SPLIT: energy shift=  0.020000 Ry

   izeta = 1
                 lambda =    1.000000
                     rc =    6.799774
                 energy =   -0.302238
                kinetic =    0.298810
    potential(screened) =   -0.601048
       potential(ionic) =   -5.818758

   izeta = 2
                 rmatch =    6.468141
              splitnorm =    0.150000
                 energy =   -0.257217
                kinetic =    0.445909
    potential(screened) =   -0.703126
       potential(ionic) =   -6.273620

SPLIT: Orbitals with angular momentum L= 2

SPLIT: Basis orbitals for state 3d

SPLIT: PAO cut-off radius determined from an
SPLIT: energy shift=  0.020000 Ry

   izeta = 1
                 lambda =    1.000000
                     rc =    4.022404
                 energy =   -0.287031
                kinetic =    8.952870
    potential(screened) =   -9.239901
       potential(ionic) =  -18.247427

   izeta = 2
                 rmatch =    2.291856
              splitnorm =    0.150000
                 energy =    0.070417
                kinetic =   12.282791
    potential(screened) =  -12.212374
       potential(ionic) =  -21.929746

POLgen: Perturbative polarization orbital with L=  1

POLgen: Polarization orbital for state 4s

   izeta = 1
                     rc =    6.799774
                 energy =   -0.003154
                kinetic =    0.566601
    potential(screened) =   -0.569755
       potential(ionic) =   -5.393577
atom: Total number of Sankey-type orbitals: 15

atm_pop: Valence configuration (for local Pseudopot. screening):
 4s( 2.00)                                                            
 4p( 0.00)                                                            
 3d( 6.00)                                                            
Vna: chval, zval:    8.00000   8.00000

Vna:  Cut-off radius for the neutral-atom potential:   6.799774
comcore: Pseudo-core radius Rcore=  3.874354

atom: _________________________________________________________________________

prinput: Basis input ----------------------------------------------------------

PAO.BasisType split     

%block ChemicalSpeciesLabel
    1   26 fe_nc                   # Species index, atomic number, species label
%endblock ChemicalSpeciesLabel

%block PAO.Basis                 # Define Basis set
fe_nc                 2                    # Species label, number of l-shells
 n=4   0   2 P   1                   # n, l, Nzeta, Polarization, NzetaPol
   6.800      6.468   
   1.000      1.000   
 n=3   2   2                         # n, l, Nzeta 
   4.022      2.292   
   1.000      1.000   
%endblock PAO.Basis

prinput: ----------------------------------------------------------------------

Dumping basis to NetCDF file fe_nc.ion.nc
coor:   Atomic-coordinates input format  =     Cartesian coordinates
coor:                                            (in Bohr units)

siesta: Atomic coordinates (Bohr) and species
siesta:      0.00000   0.00000   3.64400  1        1
siesta:      0.00000   0.00000   0.00000  1        2
siesta:      0.00000   0.00000  -3.64400  1        3

siesta: System type = bulk      

initatomlists: Number of atoms, orbitals, and projectors:      3    45    48

siesta: ******************** Simulation parameters ****************************
siesta:
siesta: The following are some of the parameters of the simulation.
siesta: A complete list of the parameters used, including default values,
siesta: can be found in file out.fdf
siesta:
redata: Non-Collinear-spin run           =     T
redata: SpinPolarized (Up/Down) run      =     F
redata: Number of spin components        =     4
redata: Long output                      =     F
redata: Number of Atomic Species         =        1
redata: Charge density info will appear in .RHO file
redata: Write Mulliken Pop.              =     Atomic and Orbital charges
redata: Matel table size (NRTAB)         =     1024
redata: Mesh Cutoff                      =   150.0000 Ry
redata: Net charge of the system         =     0.0000 |e|
redata: Min. number of SCF Iter          =        0
redata: Max. number of SCF Iter          =      200
redata: Mix DM or H after convergence    =     F
redata: Recompute H after scf cycle      =     F
redata: Performing Pulay mixing using    =     4 iterations
redata: Mix DM in first SCF step ?       =     F
redata: Write Pulay info on disk?        =     F
redata: Discard 1st Pulay DM after  kick =     F
redata: New DM Mixing Weight             =     0.0100
redata: New DM Occupancy tolerance       = 0.000000000001
redata: No kicks to SCF
redata: DM Mixing Weight for Kicks       =     0.5000
redata: DM Tolerance for SCF             =     0.000100
redata: Require (free) Energy convergence in SCF =     F
redata: DM (free)Energy tolerance for SCF =     0.000010 eV
redata: Require Harris convergence for SCF =     F
redata: DM Harris energy tolerance for SCF =     0.000010 eV
redata: Using Saved Data (generic)   =     F
redata: Use continuation files for DM    =     T
redata: Neglect nonoverlap interactions  =     F
redata: Method of Calculation            =     Diagonalization
redata: Divide and Conquer               =     T
redata: Electronic Temperature           =     0.0073  Ry
redata: Fix the spin of the system       =     F
redata: Dynamics option                  =     Single-point calculation
redata: ***********************************************************************
Total number of electrons:    24.000000
Total ionic charge:    24.000000

* ProcessorY, Blocksize:    2   6


* Orbital distribution balance (max,min):     6     3


Time-reversal symmetry not used.

siesta: k-grid: Number of k-points =     1
siesta: k-grid: Cutoff (effective) =     3.175 Ang
siesta: k-grid: Supercell and displacements
siesta: k-grid:    1   0   0      0.000
siesta: k-grid:    0   1   0      0.000
siesta: k-grid:    0   0   1      0.000

                     ====================================
                        Single-point calculation
                     ====================================

outcell: Unit cell vectors (Ang):
        6.350124    0.000000    0.000000
        0.000000    6.350124    0.000000
        0.000000    0.000000   10.583540

outcell: Cell vector modules (Ang)   :    6.350124    6.350124   10.583540
outcell: Cell angles (23,13,12) (deg):     90.0000     90.0000     90.0000
outcell: Cell volume (Ang**3)        :    426.7715
Gamma-point calculation with interaction between periodic images
Some features might not work optimally:
e.g. DM initialization from atomic data
New_DM. Step:     1
Initializing Density Matrix...
     spin moment: S , {S} =    1.50000   1.50000   0.00000   0.00000
New grid distribution:   1
           1       1:   24    1:   12    1:   10
           2       1:   24    1:   12   11:   20
           3       1:   24    1:   12   21:   30
           4       1:   24    1:   12   31:   40
           5       1:   24   13:   24    1:   10
           6       1:   24   13:   24   11:   20
           7       1:   24   13:   24   21:   30
           8       1:   24   13:   24   31:   40

InitMesh: MESH =    48 x    48 x    80 =      184320
InitMesh: (bp) =    24 x    24 x    40 =       23040
InitMesh: Mesh cutoff (required, used) =   150.000   157.914 Ry
ExtMesh (bp) on 0 =    80 x    68 x    66 =      359040
New grid distribution:   2
           1      12:   24    1:   11    1:   15
           2       1:   11    1:   11    1:   15
           3      12:   24    1:   11   16:   40
           4       1:   11    1:   11   16:   40
           5      12:   24   12:   24    1:   15
           6       1:   11   12:   24    1:   15
           7      12:   24   12:   24   16:   40
           8       1:   11   12:   24   16:   40
New grid distribution:   3
           1       1:   12   13:   24   20:   40
           2      13:   24    1:   12    1:   19
           3      13:   24    1:   12   20:   40
           4      13:   24   13:   24    1:   19
           5       1:   12    1:   12   20:   40
           6       1:   12    1:   12    1:   19
           7      13:   24   13:   24   20:   40
           8       1:   12   13:   24    1:   19
Setting up quadratic distribution...
ExtMesh (bp) on 0 =    69 x    67 x    71 =      328233
PhiOnMesh: Number of (b)points on node 0 =                 2145
PhiOnMesh: nlist on node 0 =                25197

stepf: Fermi-Dirac step function

siesta: Program's energy decomposition (eV):
siesta: Ebs     =      -252.541953
siesta: Eions   =      2141.484345
siesta: Ena     =        95.469235
siesta: Ekin    =      2216.688826
siesta: Enl     =     -1359.194850
siesta: DEna    =         0.037323
siesta: DUscf   =         0.000053
siesta: DUext   =         0.000000
siesta: Exc     =     -1125.235373
siesta: eta*DQ  =         0.000000
siesta: Emadel  =         0.000000
siesta: Emeta   =         0.000000
siesta: Emolmec =         0.000000
siesta: Ekinion =         0.000000
siesta: Eharris =     -2337.983600
siesta: Etot    =     -2313.719131
siesta: FreeEng =     -2314.273296

   scf: iscf   Eharris(eV)      E_KS(eV)   FreeEng(eV)    dDmax  Ef(eV)
   scf:    1    -2337.9836    -2313.7191    -2314.2733  0.98160 -7.9836
     spin moment: S , {S} =    1.52543   1.52543   0.00000   0.00000
timer: Routine,Calls,Time,% =    IterSCF     1       0.067   5.88
   scf:    2    -2546.7009    -2279.7502    -2280.0152  1.94450  3.5995
     spin moment: S , {S} =    0.83060   0.83060   0.00000  -0.00000
   scf:    3    -2339.5016    -2316.1307    -2316.1425  0.60715 -4.3429
     spin moment: S , {S} =    0.10719   0.10719   0.00000   0.00000
   scf:    4    -2339.3859    -2316.1827    -2316.1913  0.60666 -4.2719
     spin moment: S , {S} =    0.10407   0.10407   0.00000   0.00000
   scf:    5    -2331.3862    -2316.8237    -2316.8558  0.60648 -3.5795
     spin moment: S , {S} =    0.35203   0.35203   0.00000  -0.00000
   scf:    6    -2339.5545    -2316.4871    -2316.4880  0.63278 -3.8088
     spin moment: S , {S} =    0.08967   0.08967   0.00000   0.00000
   scf:    7    -2335.1215    -2320.8873    -2320.8940  0.51220 -3.5657
     spin moment: S , {S} =    0.15136   0.15136   0.00000   0.00000
   scf:    8    -2332.4194    -2327.0242    -2327.0299  0.82241 -2.9363
     spin moment: S , {S} =    0.09667   0.09667   0.00000   0.00000
   scf:    9    -2330.5395    -2325.2999    -2325.3023  0.71979 -2.8743
     spin moment: S , {S} =    0.21668   0.21668   0.00000   0.00000
   scf:   10    -2327.8735    -2323.4948    -2323.5643  0.48367 -3.0059
     spin moment: S , {S} =    0.69401   0.69401   0.00000   0.00000
   scf:   11    -2327.7624    -2323.0645    -2323.1291  0.47140 -3.0888
     spin moment: S , {S} =    0.68609   0.68609   0.00000   0.00000
   scf:   12    -2327.8587    -2323.1870    -2323.2293  0.53740 -3.7792
     spin moment: S , {S} =    0.49361   0.49361   0.00000   0.00000
   scf:   13    -2327.8800    -2323.2745    -2323.3233  0.49867 -2.8889
     spin moment: S , {S} =    0.60609   0.60609   0.00000   0.00000
   scf:   14    -2327.7298    -2323.1329    -2323.2362  0.42040 -3.3040
     spin moment: S , {S} =    0.87291   0.87291   0.00000   0.00000
   scf:   15    -2328.0340    -2324.7563    -2324.8665  0.45914 -3.0982
     spin moment: S , {S} =    0.86704   0.86704   0.00000  -0.00000
   scf:   16    -2327.8884    -2324.0400    -2324.1699  0.39955 -3.2483
     spin moment: S , {S} =    1.00281   1.00281   0.00000   0.00000
   scf:   17    -2327.8537    -2324.6595    -2324.7763  0.37481 -2.3168
     spin moment: S , {S} =    0.96802   0.96802   0.00000  -0.00000
   scf:   18    -2327.8107    -2325.4362    -2325.6181  0.20267 -2.1942
     spin moment: S , {S} =    1.43243   1.43243   0.00000  -0.00000
   scf:   19    -2327.6019    -2325.8468    -2326.0354  0.16856 -2.3305
     spin moment: S , {S} =    1.52020   1.52020   0.00000  -0.00000
   scf:   20    -2327.1693    -2326.7782    -2326.9710  0.13763 -2.7371
     spin moment: S , {S} =    1.60202   1.60202   0.00000   0.00000
   scf:   21    -2327.1811    -2327.0470    -2327.2374  0.14218 -2.6681
     spin moment: S , {S} =    1.58013   1.58013   0.00000  -0.00000
   scf:   22    -2327.1017    -2326.5281    -2326.7190  0.14276 -2.8937
     spin moment: S , {S} =    1.59083   1.59083   0.00000   0.00000
   scf:   23    -2327.0775    -2326.4695    -2326.6564  0.15815 -2.9585
     spin moment: S , {S} =    1.55413   1.55413   0.00000   0.00000
   scf:   24    -2327.0778    -2326.2653    -2326.4573  0.12319 -2.9246
     spin moment: S , {S} =    1.61462   1.61462   0.00000   0.00000
   scf:   25    -2327.0900    -2326.1709    -2326.3617  0.12260 -2.8884
     spin moment: S , {S} =    1.60648   1.60648   0.00000   0.00000
   scf:   26    -2327.1029    -2326.3543    -2326.5436  0.12220 -2.8419
     spin moment: S , {S} =    1.59590   1.59590   0.00000   0.00000
   scf:   27    -2327.0521    -2326.0810    -2326.2697  0.12479 -2.9903
     spin moment: S , {S} =    1.59388   1.59388   0.00000   0.00000
   scf:   28    -2327.0894    -2326.2270    -2326.4100  0.15060 -2.8795
     spin moment: S , {S} =    1.53527   1.53527   0.00000   0.00000
   scf:   29    -2327.0990    -2326.1129    -2326.3028  0.12494 -2.8614
     spin moment: S , {S} =    1.60231   1.60231   0.00000   0.00000
   scf:   30    -2327.0979    -2326.1031    -2326.2895  0.12703 -2.8643
     spin moment: S , {S} =    1.57954   1.57954   0.00000   0.00000
   scf:   31    -2327.0789    -2326.0169    -2326.2056  0.12699 -2.9155
     spin moment: S , {S} =    1.59204   1.59204   0.00000   0.00000
   scf:   32    -2327.1436    -2326.2817    -2326.4707  0.12448 -2.7488
     spin moment: S , {S} =    1.58945   1.58945   0.00000   0.00000
   scf:   33    -2327.1158    -2326.2955    -2326.4877  0.11927 -2.8199
     spin moment: S , {S} =    1.62027   1.62027   0.00000   0.00000
   scf:   34    -2327.0812    -2326.5462    -2326.7382  0.11763 -2.9004
     spin moment: S , {S} =    1.61577   1.61577   0.00000   0.00000
   scf:   35    -2327.0837    -2326.5080    -2326.6990  0.11053 -2.8980
     spin moment: S , {S} =    1.61358   1.61358   0.00000   0.00000
   scf:   36    -2327.0535    -2326.3562    -2326.5459  0.12278 -2.9801
     spin moment: S , {S} =    1.59975   1.59975   0.00000   0.00000
   scf:   37    -2327.1110    -2326.6036    -2326.7892  0.13272 -2.8099
     spin moment: S , {S} =    1.56042   1.56042   0.00000   0.00000
   scf:   38    -2327.0668    -2326.6712    -2326.8629  0.11681 -2.9356
     spin moment: S , {S} =    1.61358   1.61358   0.00000   0.00000
   scf:   39    -2327.0604    -2326.5392    -2326.7270  0.11808 -2.9691
     spin moment: S , {S} =    1.58840   1.58840   0.00000   0.00000
   scf:   40    -2327.0465    -2326.6053    -2326.7916  0.13707 -2.9903
     spin moment: S , {S} =    1.56507   1.56507   0.00000   0.00000
   scf:   41    -2327.1004    -2326.7809    -2326.9719  0.11046 -2.8451
     spin moment: S , {S} =    1.61078   1.61078   0.00000   0.00000
   scf:   42    -2327.0671    -2326.6460    -2326.8394  0.10631 -2.9448
     spin moment: S , {S} =    1.63246   1.63246   0.00000   0.00000
   scf:   43    -2327.0673    -2326.7205    -2326.9125  0.10888 -2.9425
     spin moment: S , {S} =    1.62124   1.62124   0.00000   0.00000
   scf:   44    -2327.1176    -2326.3690    -2326.5596  0.11412 -2.8116
     spin moment: S , {S} =    1.60758   1.60758   0.00000   0.00000
   scf:   45    -2327.1110    -2326.4249    -2326.6143  0.12224 -2.8243
     spin moment: S , {S} =    1.59288   1.59288   0.00000   0.00000
   scf:   46    -2327.0849    -2326.2075    -2326.3959  0.11806 -2.8970
     spin moment: S , {S} =    1.59197   1.59197   0.00000   0.00000
   scf:   47    -2327.1418    -2326.4197    -2326.6054  0.12083 -2.7498
     spin moment: S , {S} =    1.56754   1.56754   0.00000   0.00000
   scf:   48    -2327.1134    -2326.3943    -2326.5847  0.11444 -2.8198
     spin moment: S , {S} =    1.60556   1.60556   0.00000   0.00000
   scf:   49    -2327.0887    -2326.4071    -2326.5912  0.13742 -2.8723
     spin moment: S , {S} =    1.54923   1.54923   0.00000   0.00000
   scf:   50    -2327.1203    -2326.2229    -2326.4126  0.12085 -2.8173
     spin moment: S , {S} =    1.60818   1.60818   0.00000   0.00000
   scf:   51    -2327.1306    -2326.3851    -2326.5752  0.11645 -2.7813
     spin moment: S , {S} =    1.60647   1.60647   0.00000   0.00000
   scf:   52    -2327.0811    -2326.1176    -2326.3087  0.11815 -2.9180
     spin moment: S , {S} =    1.61480   1.61480   0.00000   0.00000
   scf:   53    -2327.0867    -2326.0833    -2326.2739  0.11902 -2.9049
     spin moment: S , {S} =    1.60927   1.60927   0.00000   0.00000
   scf:   54    -2327.1007    -2325.9265    -2326.1058  0.13962 -2.8626
     spin moment: S , {S} =    1.51183   1.51183   0.00000  -0.00000
   scf:   55    -2327.1177    -2326.0374    -2326.2232  0.12673 -2.8279
     spin moment: S , {S} =    1.56273   1.56273   0.00000  -0.00000
   scf:   56    -2327.0734    -2325.7105    -2325.8965  0.12507 -2.9554
     spin moment: S , {S} =    1.57193   1.57193   0.00000  -0.00000
   scf:   57    -2327.0662    -2325.7676    -2325.9534  0.12336 -2.9723
     spin moment: S , {S} =    1.56849   1.56849   0.00000  -0.00000
   scf:   58    -2327.1380    -2325.5787    -2325.7625  0.13174 -2.7994
     spin moment: S , {S} =    1.55974   1.55974   0.00000  -0.00000
   scf:   59    -2327.1407    -2325.5567    -2325.7394  0.13287 -2.7932
     spin moment: S , {S} =    1.55123   1.55123   0.00000  -0.00000
   scf:   60    -2327.1672    -2325.6177    -2325.8011  0.12606 -2.7380
     spin moment: S , {S} =    1.54991   1.54991   0.00000   0.00000
   scf:   61    -2327.2199    -2325.6785    -2325.8554  0.12390 -2.6325
     spin moment: S , {S} =    1.48674   1.48674   0.00000   0.00000
   scf:   62    -2327.2177    -2325.5467    -2325.7233  0.12009 -2.6436
     spin moment: S , {S} =    1.48602   1.48602   0.00000   0.00000
   scf:   63    -2327.1802    -2325.3616    -2325.5352  0.12834 -2.7306
     spin moment: S , {S} =    1.46389   1.46389   0.00000   0.00000
   scf:   64    -2327.2020    -2325.2522    -2325.4221  0.12537 -2.6715
     spin moment: S , {S} =    1.44136   1.44136   0.00000   0.00000
   scf:   65    -2327.2264    -2325.3502    -2325.5211  0.13006 -2.6371
     spin moment: S , {S} =    1.43894   1.43894   0.00000   0.00000
   scf:   66    -2327.1537    -2325.6348    -2325.8065  0.14025 -2.7589
     spin moment: S , {S} =    1.45102   1.45102   0.00000   0.00000
   scf:   67    -2327.1462    -2325.1396    -2325.3057  0.14233 -2.8036
     spin moment: S , {S} =    1.40948   1.40948   0.00000   0.00000
   scf:   68    -2327.2349    -2325.4069    -2325.5711  0.14250 -2.6075
     spin moment: S , {S} =    1.39110   1.39110   0.00000   0.00000
   scf:   69    -2327.1899    -2325.5472    -2325.7178  0.14767 -2.7100
     spin moment: S , {S} =    1.43402   1.43402   0.00000   0.00000
   scf:   70    -2327.1383    -2325.3760    -2325.5390  0.14923 -2.8081
     spin moment: S , {S} =    1.39122   1.39122   0.00000   0.00000
   scf:   71    -2327.1776    -2325.2216    -2325.3808  0.15651 -2.7352
     spin moment: S , {S} =    1.35650   1.35650   0.00000   0.00000
   scf:   72    -2327.1783    -2325.8168    -2325.9859  0.14401 -2.6993
     spin moment: S , {S} =    1.43157   1.43157   0.00000   0.00000
   scf:   73    -2327.1032    -2325.6569    -2325.8255  0.15604 -2.8812
     spin moment: S , {S} =    1.42735   1.42735   0.00000   0.00000
   scf:   74    -2327.1665    -2325.4605    -2325.6229  0.13787 -2.7524
     spin moment: S , {S} =    1.39263   1.39263   0.00000  -0.00000
   scf:   75    -2327.1588    -2325.4170    -2325.5786  0.13169 -2.7825
     spin moment: S , {S} =    1.39108   1.39108   0.00000  -0.00000
   scf:   76    -2327.0817    -2326.0159    -2326.1940  0.08379 -3.1345
     spin moment: S , {S} =    1.53367   1.53367   0.00000   0.00000
   scf:   77    -2327.0812    -2326.1498    -2326.3313  0.07994 -3.1239
     spin moment: S , {S} =    1.55971   1.55971   0.00000   0.00000
   scf:   78    -2327.1507    -2326.2515    -2326.4355  0.07622 -2.8844
     spin moment: S , {S} =    1.58533   1.58533   0.00000  -0.00000
   scf:   79    -2327.1673    -2326.2285    -2326.4112  0.07278 -2.8609
     spin moment: S , {S} =    1.57839   1.57839   0.00000  -0.00000
   scf:   80    -2327.1593    -2326.1859    -2326.3669  0.06423 -2.9966
     spin moment: S , {S} =    1.57745   1.57745   0.00000   0.00000
   scf:   81    -2327.1345    -2326.2572    -2326.4431  0.06229 -3.0672
     spin moment: S , {S} =    1.61713   1.61713   0.00000   0.00000
   scf:   82    -2327.1208    -2326.3482    -2326.5376  0.05714 -3.0569
     spin moment: S , {S} =    1.64403   1.64403   0.00000  -0.00000
   scf:   83    -2327.1307    -2326.6316    -2326.8208  0.05564 -2.9012
     spin moment: S , {S} =    1.64172   1.64172   0.00000  -0.00000
   scf:   84    -2327.1213    -2326.7171    -2326.9040  0.06109 -2.9207
     spin moment: S , {S} =    1.62682   1.62682   0.00000   0.00000
   scf:   85    -2327.0758    -2326.8471    -2327.0335  0.05360 -3.0878
     spin moment: S , {S} =    1.62952   1.62952   0.00000  -0.00000
   scf:   86    -2327.0663    -2326.8782    -2327.0659  0.05410 -3.1113
     spin moment: S , {S} =    1.63917   1.63917   0.00000  -0.00000
   scf:   87    -2327.0460    -2327.0790    -2327.2677  0.04739 -3.1092
     spin moment: S , {S} =    1.64501   1.64501   0.00000   0.00000
   scf:   88    -2327.0481    -2327.1391    -2327.3227  0.04916 -3.1024
     spin moment: S , {S} =    1.60567   1.60567   0.00000   0.00000
   scf:   89    -2327.0417    -2327.1419    -2327.3233  0.04613 -3.1489
     spin moment: S , {S} =    1.59196   1.59196   0.00000   0.00000
   scf:   90    -2327.0366    -2327.1417    -2327.3232  0.04323 -3.1802
     spin moment: S , {S} =    1.59319   1.59319   0.00000  -0.00000
   scf:   91    -2327.0263    -2327.1646    -2327.3473  0.03511 -3.2322
     spin moment: S , {S} =    1.60351   1.60351   0.00000   0.00000
   scf:   92    -2327.0262    -2327.1631    -2327.3453  0.03360 -3.2345
     spin moment: S , {S} =    1.59961   1.59961   0.00000   0.00000
   scf:   93    -2327.0287    -2327.1343    -2327.3136  0.03218 -3.2397
     spin moment: S , {S} =    1.57925   1.57925   0.00000  -0.00000
   scf:   94    -2327.0270    -2327.1182    -2327.2972  0.03026 -3.2615
     spin moment: S , {S} =    1.57736   1.57736   0.00000  -0.00000
   scf:   95    -2327.0182    -2327.0760    -2327.2559  0.02541 -3.3557
     spin moment: S , {S} =    1.58791   1.58791   0.00000   0.00000
   scf:   96    -2327.0160    -2327.0677    -2327.2477  0.02620 -3.3768
     spin moment: S , {S} =    1.59003   1.59003   0.00000   0.00000
   scf:   97    -2327.0169    -2327.0482    -2327.2270  0.02583 -3.3819
     spin moment: S , {S} =    1.58220   1.58220   0.00000  -0.00000
   scf:   98    -2327.0217    -2326.9679    -2327.1442  0.02626 -3.3872
     spin moment: S , {S} =    1.56841   1.56841   0.00000  -0.00000
   scf:   99    -2327.0216    -2326.8097    -2326.9883  0.02714 -3.4541
     spin moment: S , {S} =    1.59365   1.59365   0.00000   0.00000
   scf:  100    -2327.0196    -2326.7936    -2326.9732  0.02554 -3.4666
     spin moment: S , {S} =    1.60204   1.60204   0.00000  -0.00000
   scf:  101    -2327.0169    -2326.7794    -2326.9585  0.02170 -3.4686
     spin moment: S , {S} =    1.60158   1.60158   0.00000  -0.00000
   scf:  102    -2327.0178    -2326.7703    -2326.9487  0.02173 -3.4651
     spin moment: S , {S} =    1.59748   1.59748   0.00000  -0.00000
   scf:  103    -2327.0224    -2326.7032    -2326.8800  0.02238 -3.4553
     spin moment: S , {S} =    1.59258   1.59258   0.00000   0.00000
   scf:  104    -2327.0210    -2326.6726    -2326.8508  0.02018 -3.4613
     spin moment: S , {S} =    1.60634   1.60634   0.00000   0.00000
   scf:  105    -2327.0192    -2326.6701    -2326.8488  0.01809 -3.4670
     spin moment: S , {S} =    1.61157   1.61157   0.00000  -0.00000
   scf:  106    -2327.0190    -2326.6701    -2326.8478  0.01663 -3.4702
     spin moment: S , {S} =    1.60691   1.60691   0.00000  -0.00000
   scf:  107    -2327.0203    -2326.6629    -2326.8397  0.01710 -3.4683
     spin moment: S , {S} =    1.60193   1.60193   0.00000   0.00000
   scf:  108    -2327.0217    -2326.6412    -2326.8175  0.01780 -3.4660
     spin moment: S , {S} =    1.60474   1.60474   0.00000   0.00000
   scf:  109    -2327.0203    -2326.6396    -2326.8167  0.01840 -3.4715
     spin moment: S , {S} =    1.61356   1.61356   0.00000  -0.00000
   scf:  110    -2327.0192    -2326.6482    -2326.8254  0.01895 -3.4803
     spin moment: S , {S} =    1.61625   1.61625   0.00000  -0.00000
   scf:  111    -2327.0200    -2326.6546    -2326.8306  0.01907 -3.4850
     spin moment: S , {S} =    1.61061   1.61061   0.00000   0.00000
   scf:  112    -2327.0211    -2326.6551    -2326.8303  0.01870 -3.4844
     spin moment: S , {S} =    1.60759   1.60759   0.00000   0.00000
   scf:  113    -2327.0212    -2326.6590    -2326.8344  0.01797 -3.4860
     spin moment: S , {S} =    1.61483   1.61483   0.00000  -0.00000
   scf:  114    -2327.0206    -2326.6686    -2326.8445  0.01781 -3.4911
     spin moment: S , {S} =    1.62008   1.62008   0.00000  -0.00000
   scf:  115    -2327.0209    -2326.6949    -2326.8701  0.01808 -3.5032
     spin moment: S , {S} =    1.62038   1.62038   0.00000  -0.00000
   scf:  116    -2327.0216    -2326.7020    -2326.8766  0.01793 -3.5048
     spin moment: S , {S} =    1.61773   1.61773   0.00000   0.00000
   scf:  117    -2327.0228    -2326.7173    -2326.8911  0.01605 -3.5038
     spin moment: S , {S} =    1.61766   1.61766   0.00000  -0.00000
   scf:  118    -2327.0225    -2326.7297    -2326.9038  0.01550 -3.5055
     spin moment: S , {S} =    1.62322   1.62322   0.00000  -0.00000
   scf:  119    -2327.0224    -2326.7585    -2326.9330  0.01605 -3.5139
     spin moment: S , {S} =    1.63053   1.63053   0.00000   0.00000
   scf:  120    -2327.0234    -2326.7837    -2326.9575  0.01609 -3.5198
     spin moment: S , {S} =    1.62955   1.62955   0.00000   0.00000
   scf:  121    -2327.0244    -2326.7992    -2326.9722  0.01511 -3.5202
     spin moment: S , {S} =    1.62709   1.62709   0.00000   0.00000
   scf:  122    -2327.0247    -2326.8215    -2326.9943  0.01310 -3.5188
     spin moment: S , {S} =    1.63135   1.63135   0.00000   0.00000
   scf:  123    -2327.0244    -2326.8385    -2327.0116  0.01251 -3.5203
     spin moment: S , {S} =    1.63720   1.63720   0.00000   0.00000
   scf:  124    -2327.0251    -2326.8824    -2327.0557  0.01228 -3.5277
     spin moment: S , {S} =    1.64420   1.64420   0.00000   0.00000
   scf:  125    -2327.0263    -2326.9135    -2327.0859  0.01183 -3.5302
     spin moment: S , {S} =    1.64329   1.64329   0.00000   0.00000
   scf:  126    -2327.0269    -2326.9318    -2327.1036  0.01223 -3.5287
     spin moment: S , {S} =    1.64310   1.64310   0.00000   0.00000
   scf:  127    -2327.0265    -2326.9619    -2327.1339  0.01045 -3.5262
     spin moment: S , {S} =    1.65168   1.65168   0.00000   0.00000
   scf:  128    -2327.0263    -2326.9809    -2327.1533  0.01042 -3.5269
     spin moment: S , {S} =    1.65766   1.65766   0.00000   0.00000
   scf:  129    -2327.0276    -2327.0583    -2327.2303  0.01216 -3.5312
     spin moment: S , {S} =    1.66764   1.66764   0.00000   0.00000
   scf:  130    -2327.0281    -2327.0777    -2327.2491  0.01252 -3.5302
     spin moment: S , {S} =    1.66773   1.66773   0.00000   0.00000
   scf:  131    -2327.0281    -2327.1061    -2327.2769  0.01192 -3.5250
     spin moment: S , {S} =    1.67116   1.67116   0.00000   0.00000
   scf:  132    -2327.0276    -2327.1204    -2327.2915  0.01182 -3.5230
     spin moment: S , {S} =    1.67730   1.67730   0.00000   0.00000
   scf:  133    -2327.0271    -2327.1510    -2327.3229  0.01225 -3.5218
     spin moment: S , {S} =    1.68904   1.68904   0.00000   0.00000
   scf:  134    -2327.0277    -2327.1955    -2327.3667  0.01165 -3.5191
     spin moment: S , {S} =    1.69513   1.69513   0.00000   0.00000
   scf:  135    -2327.0278    -2327.2077    -2327.3784  0.01115 -3.5164
     spin moment: S , {S} =    1.69596   1.69596   0.00000   0.00000
   scf:  136    -2327.0274    -2327.2213    -2327.3920  0.01144 -3.5115
     spin moment: S , {S} =    1.70091   1.70091   0.00000   0.00000
   scf:  137    -2327.0267    -2327.2263    -2327.3976  0.01145 -3.5092
     spin moment: S , {S} =    1.70810   1.70810   0.00000   0.00000
   scf:  138    -2327.0261    -2327.2316    -2327.4035  0.01064 -3.5055
     spin moment: S , {S} =    1.71963   1.71963   0.00000   0.00000
   scf:  139    -2327.0265    -2327.2421    -2327.4133  0.01076 -3.4998
     spin moment: S , {S} =    1.72286   1.72286   0.00000   0.00000
   scf:  140    -2327.0265    -2327.2443    -2327.4154  0.01097 -3.4980
     spin moment: S , {S} =    1.72379   1.72379   0.00000   0.00000
   scf:  141    -2327.0259    -2327.2433    -2327.4148  0.01115 -3.4935
     spin moment: S , {S} =    1.73058   1.73058   0.00000   0.00000
   scf:  142    -2327.0252    -2327.2272    -2327.3994  0.01002 -3.4926
     spin moment: S , {S} =    1.73699   1.73699   0.00000   0.00000
   scf:  143    -2327.0249    -2327.1837    -2327.3564  0.00699 -3.4902
     spin moment: S , {S} =    1.74490   1.74490   0.00000   0.00000
   scf:  144    -2327.0253    -2327.1731    -2327.3454  0.00650 -3.4867
     spin moment: S , {S} =    1.74615   1.74615   0.00000   0.00000
   scf:  145    -2327.0253    -2327.1701    -2327.3424  0.00652 -3.4846
     spin moment: S , {S} =    1.74818   1.74818   0.00000   0.00000
   scf:  146    -2327.0249    -2327.1593    -2327.3320  0.00635 -3.4839
     spin moment: S , {S} =    1.75238   1.75238   0.00000   0.00000
   scf:  147    -2327.0241    -2327.1099    -2327.2835  0.00696 -3.4876
     spin moment: S , {S} =    1.75757   1.75757   0.00000  -0.00000
   scf:  148    -2327.0242    -2327.0612    -2327.2348  0.00557 -3.4893
     spin moment: S , {S} =    1.75884   1.75884   0.00000   0.00000
   scf:  149    -2327.0245    -2327.0488    -2327.2221  0.00446 -3.4877
     spin moment: S , {S} =    1.75971   1.75971   0.00000   0.00000
   scf:  150    -2327.0245    -2327.0460    -2327.2194  0.00436 -3.4870
     spin moment: S , {S} =    1.76142   1.76142   0.00000   0.00000
   scf:  151    -2327.0241    -2327.0371    -2327.2110  0.00491 -3.4886
     spin moment: S , {S} =    1.76423   1.76423   0.00000   0.00000
   scf:  152    -2327.0237    -2327.0014    -2327.1756  0.00452 -3.4951
     spin moment: S , {S} =    1.76493   1.76493   0.00000   0.00000
   scf:  153    -2327.0239    -2326.9843    -2327.1583  0.00408 -3.4965
     spin moment: S , {S} =    1.76439   1.76439   0.00000   0.00000
   scf:  154    -2327.0240    -2326.9813    -2327.1551  0.00423 -3.4957
     spin moment: S , {S} =    1.76529   1.76529   0.00000   0.00000
   scf:  155    -2327.0240    -2326.9815    -2327.1554  0.00442 -3.4955
     spin moment: S , {S} =    1.76632   1.76632   0.00000   0.00000
   scf:  156    -2327.0237    -2326.9806    -2327.1548  0.00434 -3.4972
     spin moment: S , {S} =    1.76810   1.76810   0.00000   0.00000
   scf:  157    -2327.0237    -2326.9720    -2327.1461  0.00369 -3.5009
     spin moment: S , {S} =    1.76746   1.76746   0.00000   0.00000
   scf:  158    -2327.0239    -2326.9706    -2327.1445  0.00366 -3.5008
     spin moment: S , {S} =    1.76740   1.76740   0.00000   0.00000
   scf:  159    -2327.0239    -2326.9716    -2327.1456  0.00342 -3.4998
     spin moment: S , {S} =    1.76882   1.76882   0.00000   0.00000
   scf:  160    -2327.0239    -2326.9721    -2327.1460  0.00338 -3.4998
     spin moment: S , {S} =    1.76920   1.76920   0.00000   0.00000
   scf:  161    -2327.0236    -2326.9755    -2327.1497  0.00306 -3.5010
     spin moment: S , {S} =    1.77124   1.77124   0.00000   0.00000
   scf:  162    -2327.0238    -2326.9769    -2327.1509  0.00280 -3.5015
     spin moment: S , {S} =    1.77104   1.77104   0.00000   0.00000
   scf:  163    -2327.0239    -2326.9777    -2327.1516  0.00267 -3.5011
     spin moment: S , {S} =    1.77124   1.77124   0.00000   0.00000
   scf:  164    -2327.0239    -2326.9801    -2327.1540  0.00241 -3.5003
     spin moment: S , {S} =    1.77267   1.77267   0.00000   0.00000
   scf:  165    -2327.0238    -2326.9819    -2327.1559  0.00227 -3.5003
     spin moment: S , {S} =    1.77348   1.77348   0.00000   0.00000
   scf:  166    -2327.0237    -2326.9885    -2327.1625  0.00178 -3.5008
     spin moment: S , {S} =    1.77465   1.77465   0.00000   0.00000
   scf:  167    -2327.0239    -2326.9909    -2327.1648  0.00175 -3.5004
     spin moment: S , {S} =    1.77450   1.77450   0.00000   0.00000
   scf:  168    -2327.0239    -2326.9924    -2327.1663  0.00181 -3.4998
     spin moment: S , {S} =    1.77496   1.77496   0.00000   0.00000
   scf:  169    -2327.0238    -2326.9957    -2327.1697  0.00161 -3.4992
     spin moment: S , {S} =    1.77654   1.77654   0.00000   0.00000
   scf:  170    -2327.0238    -2326.9987    -2327.1728  0.00151 -3.4991
     spin moment: S , {S} =    1.77743   1.77743   0.00000   0.00000
   scf:  171    -2327.0238    -2327.0043    -2327.1783  0.00143 -3.4991
     spin moment: S , {S} =    1.77784   1.77784   0.00000   0.00000
   scf:  172    -2327.0239    -2327.0056    -2327.1795  0.00155 -3.4988
     spin moment: S , {S} =    1.77784   1.77784   0.00000   0.00000
   scf:  173    -2327.0239    -2327.0090    -2327.1830  0.00146 -3.4976
     spin moment: S , {S} =    1.77920   1.77920   0.00000   0.00000
   scf:  174    -2327.0238    -2327.0117    -2327.1857  0.00123 -3.4973
     spin moment: S , {S} =    1.78034   1.78034   0.00000   0.00000
   scf:  175    -2327.0237    -2327.0156    -2327.1897  0.00115 -3.4973
     spin moment: S , {S} =    1.78122   1.78122   0.00000   0.00000
   scf:  176    -2327.0238    -2327.0178    -2327.1918  0.00115 -3.4972
     spin moment: S , {S} =    1.78128   1.78128   0.00000   0.00000
   scf:  177    -2327.0239    -2327.0197    -2327.1936  0.00117 -3.4965
     spin moment: S , {S} =    1.78159   1.78159   0.00000   0.00000
   scf:  178    -2327.0238    -2327.0237    -2327.1977  0.00125 -3.4954
     spin moment: S , {S} =    1.78367   1.78367   0.00000   0.00000
   scf:  179    -2327.0237    -2327.0262    -2327.2003  0.00134 -3.4953
     spin moment: S , {S} =    1.78469   1.78469   0.00000   0.00000
   scf:  180    -2327.0237    -2327.0290    -2327.2032  0.00139 -3.4953
     spin moment: S , {S} =    1.78518   1.78518   0.00000   0.00000
   scf:  181    -2327.0237    -2327.0301    -2327.2043  0.00138 -3.4952
     spin moment: S , {S} =    1.78517   1.78517   0.00000   0.00000
   scf:  182    -2327.0238    -2327.0307    -2327.2047  0.00127 -3.4946
     spin moment: S , {S} =    1.78612   1.78612   0.00000   0.00000
   scf:  183    -2327.0236    -2327.0331    -2327.2074  0.00126 -3.4943
     spin moment: S , {S} =    1.78810   1.78810   0.00000   0.00000
   scf:  184    -2327.0236    -2327.0345    -2327.2087  0.00129 -3.4943
     spin moment: S , {S} =    1.78861   1.78861   0.00000   0.00000
   scf:  185    -2327.0236    -2327.0360    -2327.2103  0.00133 -3.4945
     spin moment: S , {S} =    1.78877   1.78877   0.00000   0.00000
   scf:  186    -2327.0236    -2327.0348    -2327.2090  0.00115 -3.4947
     spin moment: S , {S} =    1.78856   1.78856   0.00000   0.00000
   scf:  187    -2327.0236    -2327.0313    -2327.2055  0.00067 -3.4949
     spin moment: S , {S} =    1.78952   1.78952   0.00000   0.00000
   scf:  188    -2327.0235    -2327.0318    -2327.2061  0.00064 -3.4950
     spin moment: S , {S} =    1.79021   1.79021   0.00000   0.00000
   scf:  189    -2327.0235    -2327.0330    -2327.2073  0.00068 -3.4952
     spin moment: S , {S} =    1.79063   1.79063   0.00000   0.00000
   scf:  190    -2327.0235    -2327.0328    -2327.2071  0.00064 -3.4954
     spin moment: S , {S} =    1.79043   1.79043   0.00000   0.00000
   scf:  191    -2327.0236    -2327.0291    -2327.2033  0.00044 -3.4957
     spin moment: S , {S} =    1.78987   1.78987   0.00000   0.00000
   scf:  192    -2327.0236    -2327.0263    -2327.2006  0.00035 -3.4960
     spin moment: S , {S} =    1.79022   1.79022   0.00000   0.00000
   scf:  193    -2327.0235    -2327.0266    -2327.2009  0.00033 -3.4961
     spin moment: S , {S} =    1.79052   1.79052   0.00000   0.00000
   scf:  194    -2327.0235    -2327.0270    -2327.2013  0.00034 -3.4962
     spin moment: S , {S} =    1.79057   1.79057   0.00000   0.00000
   scf:  195    -2327.0236    -2327.0263    -2327.2005  0.00029 -3.4963
     spin moment: S , {S} =    1.79021   1.79021   0.00000   0.00000
   scf:  196    -2327.0236    -2327.0232    -2327.1974  0.00033 -3.4964
     spin moment: S , {S} =    1.78973   1.78973   0.00000   0.00000
   scf:  197    -2327.0236    -2327.0222    -2327.1964  0.00037 -3.4965
     spin moment: S , {S} =    1.78993   1.78993   0.00000   0.00000
   scf:  198    -2327.0236    -2327.0224    -2327.1966  0.00037 -3.4966
     spin moment: S , {S} =    1.79003   1.79003   0.00000   0.00000
   scf:  199    -2327.0236    -2327.0226    -2327.1969  0.00036 -3.4966
     spin moment: S , {S} =    1.78996   1.78996   0.00000   0.00000
   scf:  200    -2327.0237    -2327.0221    -2327.1962  0.00032 -3.4965
     spin moment: S , {S} =    1.78966   1.78966   0.00000   0.00000
SCF_NOT_CONV: SCF did not converge in maximum number of steps.
Geom step, scf iteration, dmax:    0   200    0.000316

Using DM_out to compute the final energy and forces

siesta: E_KS(eV) =            -2327.0207

siesta: E_KS - E_eggbox =     -2327.0207
     spin moment: S , {S} =    1.78953   1.78953   0.00000   0.00000

siesta: Atomic forces (eV/Ang):
----------------------------------------
   Tot    0.000000   -0.000000   -0.000000
----------------------------------------
   Max    0.076813
   Res    0.036210    sqrt( Sum f_i^2 / 3N )
----------------------------------------
   Max    0.076813    constrained

Stress-tensor-Voigt (kbar):        6.67        6.67       -1.26       -0.00       -0.00       -0.00
(Free)E + p*V (eV/cell)    -2328.2677
Target enthalpy (eV/cell)    -2327.1949

mulliken: Atomic and Orbital Populations:

Species: fe_nc               

Atom      Orb        Charge      Spin       Svec
----------------------------------------------------------------
    1  1 4s         1.34063   0.02225     -0.014   0.000  -0.017
    1  2 4s         0.10703   0.06302      0.004   0.000   0.063
    1  3 3dxy       1.22814   0.65149      0.059   0.000   0.649
    1  4 3dyz       1.24672   0.48505     -0.000   0.000   0.485
    1  5 3dz2       1.27200   0.47705      0.011   0.000   0.477
    1  6 3dxz       1.24672   0.48505     -0.000   0.000   0.485
    1  7 3dx2-y2    1.22674   0.65295      0.059   0.000   0.650
    1  8 3dxy       0.04752   0.06830      0.010   0.000   0.068
    1  9 3dyz       0.03199   0.06030      0.004   0.000   0.060
    1 10 3dz2       0.07184   0.04633      0.003   0.000   0.046
    1 11 3dxz       0.03199   0.06030      0.004   0.000   0.060
    1 12 3dx2-y2    0.04749   0.06827      0.010   0.000   0.068
    1 13 4Ppy       0.02839   0.00570      0.001   0.000  -0.006
    1 14 4Ppz       0.00541   0.00461      0.004   0.000   0.001
    1 15 4Ppx       0.02839   0.00570      0.001   0.000  -0.006
    1     Total     7.96098   3.08759      0.156   0.000   3.084

    2  1 4s         0.86639   0.01536     -0.015   0.000  -0.000
    2  2 4s         0.19120   0.03202      0.032   0.000  -0.000
    2  3 3dxy       1.43206   0.46960      0.470   0.000  -0.000
    2  4 3dyz       1.29865   0.11956      0.120   0.000   0.000
    2  5 3dz2       1.17980   0.13314      0.133   0.000  -0.000
    2  6 3dxz       1.29865   0.11956      0.120   0.000   0.000
    2  7 3dx2-y2    1.43173   0.47000      0.470   0.000  -0.000
    2  8 3dxy       0.00173   0.03724      0.037   0.000  -0.000
    2  9 3dyz      -0.01651   0.01902      0.019   0.000   0.000
    2 10 3dz2       0.07320   0.00956      0.010   0.000  -0.000
    2 11 3dxz      -0.01651   0.01902      0.019   0.000   0.000
    2 12 3dx2-y2    0.00167   0.03719      0.037   0.000  -0.000
    2 13 4Ppy       0.11942   0.01149      0.011   0.000  -0.000
    2 14 4Ppz       0.09712   0.00414      0.004   0.000  -0.000
    2 15 4Ppx       0.11942   0.01149      0.011   0.000  -0.000
    2     Total     8.07803   1.47768      1.478   0.000  -0.000

    3  1 4s         1.34063   0.02225     -0.014   0.000   0.017
    3  2 4s         0.10703   0.06302      0.004   0.000  -0.063
    3  3 3dxy       1.22814   0.65149      0.059   0.000  -0.649
    3  4 3dyz       1.24672   0.48505     -0.000   0.000  -0.485
    3  5 3dz2       1.27200   0.47705      0.011   0.000  -0.477
    3  6 3dxz       1.24672   0.48505     -0.000   0.000  -0.485
    3  7 3dx2-y2    1.22674   0.65295      0.059   0.000  -0.650
    3  8 3dxy       0.04752   0.06830      0.010   0.000  -0.068
    3  9 3dyz       0.03199   0.06030      0.004   0.000  -0.060
    3 10 3dz2       0.07184   0.04633      0.003   0.000  -0.046
    3 11 3dxz       0.03199   0.06030      0.004   0.000  -0.060
    3 12 3dx2-y2    0.04749   0.06827      0.010   0.000  -0.068
    3 13 4Ppy       0.02839   0.00570      0.001   0.000   0.006
    3 14 4Ppz       0.00541   0.00461      0.004   0.000  -0.001
    3 15 4Ppx       0.02839   0.00570      0.001   0.000   0.006
    3     Total     7.96098   3.08759      0.156   0.000  -3.084

----------------------------------------------------------------
Total              24.00000   1.78953      1.790   0.000   0.000


siesta: Program's energy decomposition (eV):
siesta: Ebs     =      -138.229551
siesta: Eions   =      2141.484345
siesta: Ena     =        95.469235
siesta: Ekin    =      2356.570528
siesta: Enl     =     -1464.278409
siesta: DEna    =       -28.365916
siesta: DUscf   =         2.905909
siesta: DUext   =         0.000000
siesta: Exc     =     -1147.837739
siesta: eta*DQ  =         0.000000
siesta: Emadel  =         0.000000
siesta: Emeta   =         0.000000
siesta: Emolmec =         0.000000
siesta: Ekinion =         0.000000
siesta: Eharris =     -2327.023653
siesta: Etot    =     -2327.020738
siesta: FreeEng =     -2327.194912

siesta: Final energy (eV):
siesta:  Band Struct. =    -138.229551
siesta:       Kinetic =    2356.570528
siesta:       Hartree =    1407.486183
siesta:    Ext. field =       0.000000
siesta:   Exch.-corr. =   -1147.837739
siesta:  Ion-electron =   -4749.541859
siesta:       Ion-ion =    -193.697851
siesta:       Ekinion =       0.000000
siesta:         Total =   -2327.020738

siesta: Atomic forces (eV/Ang):
siesta:      1   -0.000000   -0.000000   -0.076813
siesta:      2   -0.000000    0.000000    0.000000
siesta:      3    0.000000   -0.000000    0.076813
siesta: ----------------------------------------
siesta:    Tot    0.000000   -0.000000   -0.000000

siesta: Stress tensor (static) (eV/Ang**3):
siesta:     0.004163   -0.000000    0.000000
siesta:    -0.000000    0.004163   -0.000000
siesta:    -0.000000   -0.000000   -0.000785

siesta: Cell volume =        426.771459 Ang**3

siesta: Pressure (static):
siesta:                Solid            Molecule  Units
siesta:          -0.00002738         -0.00002486  Ry/Bohr**3
siesta:          -0.00251364         -0.00228226  eV/Ang**3
siesta:          -4.02733540         -3.65661662  kBar
(Free)E+ p_basis*V_orbitals  =       -2324.924984
(Free)Eharris+ p_basis*V_orbitals  =       -2324.927899
     spin moment: S , {S} =    1.78953   1.78953   0.00000   0.00000
>> End of run:  10-JUN-2018  21:03:19
Job completed
