Siesta Version:                                        siesta-3.0-rc2
Architecture  : macosx-openmpi
Compiler flags: /opt/openmpi.gcc.gfortran/bin/mpif90 -O2
PARALLEL version

* Running on    2 nodes in parallel
>> Start of run:  30-JUN-2010  11:58:22

                           ***********************       
                           *  WELCOME TO SIESTA  *       
                           ***********************       

reinit: Reading from standard input
************************** Dump of input data file ****************************
SystemName          Linear Fe3 cluster.
SystemLabel         fe_clust_noncollinear
NumberOfAtoms       3
NumberOfSpecies     1
%block ChemicalSpeciesLabel
 1  26  fe_nc      # Species index, atomic number, species label
%endblock ChemicalSpeciesLabel
LatticeConstant    1.0 Bohr
%block LatticeVectors
 12.000   0.000   0.000
  0.000  12.000   0.000
  0.000   0.000  20.000
%endblock LatticeVectors
AtomicCoordinatesFormat  NotScaledCartesianBohr
%block AtomicCoordinatesAndAtomicSpecies
  0.000   0.000   3.644  1
  0.000   0.000   0.000  1
  0.000   0.000  -3.644  1
%endblock AtomicCoordinatesAndAtomicSpecies
%block AtomicCoordinatesOrigin
  0.000   0.000   0.000
%endblock AtomicCoordinatesOrigin
PAO.BasisType    split
PAO.SplitNorm    0.15
%block PAO.BasisAndPSlmax
  1   26   2   3
    0    2
      5.30   0.00
      1.00   1.00
    1    1
      5.30   0.00
      1.00   1.00
    2    2
      4.50   0.00
      1.00   1.00
%endblock PAO.BasisAndPSlmax
MeshCutoff        150. Ry
ElectronicTemperature   0.1 eV
DM.MixingWeight         0.01
DM.NumberPulay          4
MaxSCFiterations      200
MD.TypeOfRun      CG
MD.NumCGsteps     0
WriteMullikenPop  1
SpinPolarized     yes
NonCollinearSpin  yes
DM.UseSaveDM      yes
%block DM.InitSpin
 1  +3.00     0.   0.   # atom,spin,theta,phi (deg)
 2  +1.50    90.   0.
 3  +3.00   180.   0.
%endblock DM.InitSpin
************************** End of input data file *****************************

reinit: -----------------------------------------------------------------------
reinit: System Name: Linear Fe3 cluster.
reinit: -----------------------------------------------------------------------
reinit: System Label: fe_clust_noncollinear                                       
reinit: -----------------------------------------------------------------------

initatom: Reading input for the pseudopotentials and atomic orbitals ----------
 Species number:            1  Label: fe_nc Atomic number:          26
Ground state valence configuration:   4s02  3d06
Reading pseudopotential information in formatted form from fe_nc.psf

Valence configuration for pseudopotential generation:
4s( 1.00) rc: 2.00
4p( 0.00) rc: 2.00
3d( 7.00) rc: 2.00
4f( 0.00) rc: 2.00
For fe_nc, standard SIESTA heuristics set lmxkb to 3
 (one more than the basis l, including polarization orbitals).
Use PS.lmax or PS.KBprojectors blocks to override.

<basis_specs>
===============================================================================
fe_nc                Z=  26    Mass=  55.850        Charge= 0.17977+309
Lmxo=2 Lmxkb=3     BasisType=split      Semic=F
L=0  Nsemic=0  Cnfigmx=4
          n=1  nzeta=2  polorb=1
            splnorm:   0.15000    
               vcte:    0.0000    
               rinn:    0.0000    
                rcs:    0.0000      0.0000    
            lambdas:    1.0000      1.0000    
L=1  Nsemic=0  Cnfigmx=4
L=2  Nsemic=0  Cnfigmx=3
          n=1  nzeta=2  polorb=0
            splnorm:   0.15000    
               vcte:    0.0000    
               rinn:    0.0000    
                rcs:    0.0000      0.0000    
            lambdas:    1.0000      1.0000    
-------------------------------------------------------------------------------
L=0  Nkbl=1  erefs: 0.17977+309
L=1  Nkbl=1  erefs: 0.17977+309
L=2  Nkbl=1  erefs: 0.17977+309
L=3  Nkbl=1  erefs: 0.17977+309
===============================================================================
</basis_specs>

atom: Called for fe_nc                 (Z =  26)

read_vps: Pseudopotential generation method:
read_vps: ATM3      Troullier-Martins                       
Total valence charge:    8.00000

read_vps: Pseudopotential includes a core correction:
read_vps: Pseudo-core for xc-correction

xc_check: Exchange-correlation functional:
xc_check: Ceperley-Alder
V l=0 = -2*Zval/r beyond r=  2.8345
V l=1 = -2*Zval/r beyond r=  2.8345
V l=2 = -2*Zval/r beyond r=  2.8345
V l=3 = -2*Zval/r beyond r=  2.8345
All V_l potentials equal beyond r=  1.9726
This should be close to max(r_c) in ps generation
All pots = -2*Zval/r beyond r=  2.8345
Using large-core scheme for Vlocal

atom: Estimated core radius    2.83451
atom: Maximum radius for 4*pi*r*r*local-pseudopot. charge    3.13263
atom: Maximum radius for r*vlocal+2*Zval:    2.87017
GHOST: No ghost state for L =  0
GHOST: No ghost state for L =  1
GHOST: No ghost state for L =  2
GHOST: No ghost state for L =  3

KBgen: Kleinman-Bylander projectors: 
   l= 0   rc=  2.047986   el= -0.319855   Ekb=  3.923406   kbcos=  0.252820
   l= 1   rc=  2.047986   el= -0.070931   Ekb=  3.313875   kbcos=  0.157841
   l= 2   rc=  2.022544   el= -0.307264   Ekb=-12.478630   kbcos= -0.654791
   l= 3   rc=  2.047986   el=  0.003534   Ekb= -1.656634   kbcos= -0.005966

KBgen: Total number of  Kleinman-Bylander projectors:   16
atom: -------------------------------------------------------------------------

atom: SANKEY-TYPE ORBITALS:
atom: Selected multiple-zeta basis: split     

SPLIT: Orbitals with angular momentum L= 0

SPLIT: Basis orbitals for state 4s

SPLIT: PAO cut-off radius determined from an
SPLIT: energy shift=  0.020000 Ry

   izeta = 1
                 lambda =    1.000000
                     rc =    6.799774
                 energy =   -0.302238
                kinetic =    0.298810
    potential(screened) =   -0.601048
       potential(ionic) =   -5.818758

   izeta = 2
                 rmatch =    6.468141
              splitnorm =    0.150000
                 energy =   -0.257217
                kinetic =    0.445909
    potential(screened) =   -0.703126
       potential(ionic) =   -6.273620

SPLIT: Orbitals with angular momentum L= 2

SPLIT: Basis orbitals for state 3d

SPLIT: PAO cut-off radius determined from an
SPLIT: energy shift=  0.020000 Ry

   izeta = 1
                 lambda =    1.000000
                     rc =    4.022404
                 energy =   -0.287031
                kinetic =    8.952870
    potential(screened) =   -9.239901
       potential(ionic) =  -18.247427

   izeta = 2
                 rmatch =    2.291856
              splitnorm =    0.150000
                 energy =    0.070417
                kinetic =   12.282791
    potential(screened) =  -12.212374
       potential(ionic) =  -21.929746

POLgen: Perturbative polarization orbital with L=  1

POLgen: Polarization orbital for state 4s

   izeta = 1
                     rc =    6.799774
                 energy =   -0.003154
                kinetic =    0.566601
    potential(screened) =   -0.569755
       potential(ionic) =   -5.393577
atom: Total number of Sankey-type orbitals: 15

atm_pop: Valence configuration (for local Pseudopot. screening):
 4s( 2.00)                                                            
 4p( 0.00)                                                            
 3d( 6.00)                                                            
Vna: chval, zval:    8.00000   8.00000

Vna:  Cut-off radius for the neutral-atom potential:   6.799774
comcore: Pseudo-core radius Rcore=  3.874354

atom: _________________________________________________________________________

prinput: Basis input ----------------------------------------------------------

PAO.BasisType split     

%block ChemicalSpeciesLabel
    1   26 fe_nc                   # Species index, atomic number, species label
%endblock ChemicalSpeciesLabel

%block PAO.Basis                 # Define Basis set
fe_nc                 2                    # Species label, number of l-shells
 n=4   0   2 P   1                   # n, l, Nzeta, Polarization, NzetaPol
   6.800      6.468   
   1.000      1.000   
 n=3   2   2                         # n, l, Nzeta 
   4.022      2.292   
   1.000      1.000   
%endblock PAO.Basis

prinput: ----------------------------------------------------------------------

coor:   Atomic-coordinates input format  =     Cartesian coordinates
coor:                                            (in Bohr units)

siesta: Atomic coordinates (Bohr) and species
siesta:      0.00000   0.00000   3.64400  1        1
siesta:      0.00000   0.00000   0.00000  1        2
siesta:      0.00000   0.00000  -3.64400  1        3

siesta: System type = bulk      

initatomlists: Number of atoms, orbitals, and projectors:      3    45    48

siesta: ******************** Simulation parameters ****************************
siesta:
siesta: The following are some of the parameters of the simulation.
siesta: A complete list of the parameters used, including default values,
siesta: can be found in file out.fdf
siesta:
redata: Non-Collinear-spin run           =     T
redata: SpinPolarized (Up/Down) run      =     F
redata: Number of spin components        =     4
redata: Long output                      =     F
redata: Number of Atomic Species         =        1
redata: Charge density info will appear in .RHO file
redata: Write Mulliken Pop.              =     Atomic and Orbital charges
redata: Mesh Cutoff                      =   150.0000  Ry
redata: Net charge of the system         =     0.0000 |e|
redata: Max. number of SCF Iter          =      200
redata: Performing Pulay mixing using    =     4 iterations
redata: Mix DM in first SCF step ?       =     F
redata: Write Pulay info on disk?        =     F
redata: Discard 1st Pulay DM after  kick =     F
redata: New DM Mixing Weight             =     0.0100
redata: New DM Occupancy tolerance       = 0.000000000001
redata: No kicks to SCF
redata: DM Mixing Weight for Kicks       =     0.5000
redata: DM Tolerance for SCF             =     0.000100
redata: Require Energy convergence for SCF =     F
redata: DM Energy tolerance for SCF      =     0.000100 eV
redata: Require Harris convergence for SCF =     F
redata: DM Harris energy tolerance for SCF =     0.000100 eV
redata: Using Saved Data (generic)   =     F
redata: Use continuation files for DM    =     T
redata: Neglect nonoverlap interactions  =     F
redata: Method of Calculation            =     Diagonalization
redata: Divide and Conquer               =     T
redata: Electronic Temperature           =     0.0073  Ry
redata: Fix the spin of the system       =     F
redata: Dynamics option                  =     CG coord. optimization
redata: Variable cell                    =     F
redata: Use continuation files for CG    =     F
redata: Max atomic displ per move        =     0.2000  Bohr
redata: Maximum number of CG moves       =        0
redata: Force tolerance                  =     0.0016  Ry/Bohr
redata: ***********************************************************************
Total number of electrons:    24.000000
Total ionic charge:    24.000000

* ProcessorY, Blocksize:    1  23

 Kpoints in:            1 . Kpoints trimmed:            1

siesta: k-grid: Number of k-points =     1
siesta: k-grid: Cutoff (effective) =     3.175 Ang
siesta: k-grid: Supercell and displacements
siesta: k-grid:    1   0   0      0.000
siesta: k-grid:    0   1   0      0.000
siesta: k-grid:    0   0   1      0.000

* Maximum dynamic memory allocated =     1 MB

siesta:                 ==============================
                            Begin CG move =      0
                        ==============================

outcell: Unit cell vectors (Ang):
        6.350124    0.000000    0.000000
        0.000000    6.350124    0.000000
        0.000000    0.000000   10.583540

outcell: Cell vector modules (Ang)   :    6.350124    6.350124   10.583540
outcell: Cell angles (23,13,12) (deg):     90.0000     90.0000     90.0000
outcell: Cell volume (Ang**3)        :    426.7715

NOTE: orbital pair      1    16 (at least) is multiply connected.
NOTE: Harmless for Gamma calculations, except if a COHP analysis is intended.
New_DM. Step:     1
Initializing Density Matrix...

InitMesh: MESH =    48 x    48 x    80 =      184320
InitMesh: Mesh cutoff (required, used) =   150.000   157.914 Ry

* Maximum dynamic memory allocated =    15 MB

stepf: Fermi-Dirac step function

siesta: Program's energy decomposition (eV):
siesta: Ebs     =      -252.848278
siesta: Eions   =      2141.484345
siesta: Ena     =        95.468898
siesta: Ekin    =      2216.239670
siesta: Enl     =     -1358.876616
siesta: DEna    =         0.116552
siesta: DUscf   =         0.000091
siesta: DUext   =         0.000000
siesta: Exc     =     -1125.170263
siesta: eta*DQ  =         0.000000
siesta: Emadel  =         0.000000
siesta: Emeta   =         0.000000
siesta: Emolmec =         0.000000
siesta: Ekinion =         0.000000
siesta: Eharris =     -2338.038968
siesta: Etot    =     -2313.706013
siesta: FreeEng =     -2313.706013

siesta: iscf   Eharris(eV)      E_KS(eV)   FreeEng(eV)   dDmax  Ef(eV)
siesta:    1    -2338.0390    -2313.7060    -2313.7060  0.9826 -7.9958
timer: Routine,Calls,Time,% = IterSCF        1       4.919  75.36
elaps: Routine,Calls,Wall,% = IterSCF        1       2.500  74.92
siesta:    2    -2546.6414    -2279.6353    -2280.1893  2.0514  3.6588
siesta:    3    -2338.9254    -2316.1124    -2316.3472  0.6051 -4.4046
siesta:    4    -2338.8736    -2316.1691    -2316.1867  0.6048 -4.3224
siesta:    5    -2331.1963    -2316.8255    -2316.8374  0.6023 -3.5270
siesta:    6    -2338.4885    -2316.5118    -2316.5484  0.6334 -3.8290
siesta:    7    -2328.0075    -2321.4048    -2321.4061  0.4844 -4.0667
siesta:    8    -2327.5043    -2320.9215    -2321.0078  0.2706 -2.7915
siesta:    9    -2327.2505    -2320.7060    -2320.8570  0.3191 -3.7293
siesta:   10    -2327.2633    -2320.5467    -2320.7122  0.2813 -3.2967
siesta:   11    -2327.8366    -2324.2100    -2324.3446  0.5122 -2.9466
siesta:   12    -2327.7466    -2324.3103    -2324.3650  0.3468 -3.0496
siesta:   13    -2327.6624    -2324.3072    -2324.4522  0.3033 -3.2438
siesta:   14    -2327.3042    -2324.1587    -2324.3199  0.2790 -4.0091
siesta:   15    -2327.3186    -2324.1864    -2324.3767  0.2983 -3.9634
siesta:   16    -2327.2116    -2323.8962    -2324.0735  0.2214 -3.6108
siesta:   17    -2327.0481    -2323.5550    -2323.7239  0.2077 -3.7652
siesta:   18    -2327.0205    -2323.4872    -2323.6658  0.2114 -3.8303
siesta:   19    -2327.0055    -2323.5929    -2323.7725  0.1893 -3.7222
siesta:   20    -2327.0124    -2323.7416    -2323.8995  0.1684 -3.5727
siesta:   21    -2327.0604    -2324.1852    -2324.3371  0.1497 -3.1415
siesta:   22    -2327.0503    -2324.2238    -2324.3924  0.1453 -3.1725
siesta:   23    -2327.0709    -2324.5522    -2324.7239  0.1105 -3.4350
siesta:   24    -2327.0797    -2324.6031    -2324.7753  0.1076 -3.4457
siesta:   25    -2327.0420    -2326.5717    -2326.7429  0.0634 -3.1879
siesta:   26    -2327.0401    -2326.6096    -2326.7909  0.0651 -3.1788
siesta:   27    -2327.0152    -2326.8963    -2327.0786  0.0349 -3.5047
siesta:   28    -2327.0131    -2326.9987    -2327.1817  0.0284 -3.5339
siesta:   29    -2327.0127    -2327.0383    -2327.2231  0.0282 -3.5448
siesta:   30    -2327.0129    -2327.0294    -2327.2147  0.0275 -3.5483
siesta:   31    -2327.0142    -2327.0021    -2327.1873  0.0229 -3.5691
siesta:   32    -2327.0139    -2327.0154    -2327.2008  0.0212 -3.5724
siesta:   33    -2327.0146    -2327.0598    -2327.2457  0.0166 -3.5500
siesta:   34    -2327.0157    -2327.0637    -2327.2479  0.0146 -3.5320
siesta:   35    -2327.0169    -2327.0513    -2327.2340  0.0105 -3.5087
siesta:   36    -2327.0163    -2327.0531    -2327.2346  0.0080 -3.5061
siesta:   37    -2327.0163    -2327.0534    -2327.2354  0.0075 -3.5049
siesta:   38    -2327.0169    -2327.0509    -2327.2330  0.0064 -3.4968
siesta:   39    -2327.0176    -2327.0482    -2327.2298  0.0057 -3.4904
siesta:   40    -2327.0178    -2327.0475    -2327.2285  0.0052 -3.4880
siesta:   41    -2327.0179    -2327.0485    -2327.2294  0.0043 -3.4870
siesta:   42    -2327.0185    -2327.0511    -2327.2319  0.0041 -3.4863
siesta:   43    -2327.0189    -2327.0520    -2327.2323  0.0040 -3.4865
siesta:   44    -2327.0190    -2327.0514    -2327.2315  0.0041 -3.4859
siesta:   45    -2327.0191    -2327.0505    -2327.2305  0.0041 -3.4847
siesta:   46    -2327.0190    -2327.0504    -2327.2302  0.0041 -3.4856
siesta:   47    -2327.0191    -2327.0507    -2327.2307  0.0041 -3.4860
siesta:   48    -2327.0191    -2327.0506    -2327.2304  0.0041 -3.4858
siesta:   49    -2327.0190    -2327.0505    -2327.2303  0.0041 -3.4855
siesta:   50    -2327.0190    -2327.0507    -2327.2305  0.0041 -3.4862
siesta:   51    -2327.0190    -2327.0501    -2327.2301  0.0042 -3.4863
siesta:   52    -2327.0190    -2327.0494    -2327.2293  0.0045 -3.4865
siesta:   53    -2327.0211    -2327.0423    -2327.2222  0.0047 -3.4924
siesta:   54    -2327.0212    -2327.0420    -2327.2202  0.0042 -3.4923
siesta:   55    -2327.0218    -2327.0366    -2327.2148  0.0037 -3.4913
siesta:   56    -2327.0222    -2327.0274    -2327.2052  0.0034 -3.4890
siesta:   57    -2327.0230    -2327.0224    -2327.2000  0.0017 -3.4840
siesta:   58    -2327.0238    -2327.0210    -2327.1979  0.0020 -3.4824
siesta:   59    -2327.0242    -2327.0198    -2327.1962  0.0023 -3.4815
siesta:   60    -2327.0242    -2327.0193    -2327.1952  0.0022 -3.4813
siesta:   61    -2327.0243    -2327.0180    -2327.1939  0.0020 -3.4806
siesta:   62    -2327.0244    -2327.0173    -2327.1931  0.0018 -3.4801
siesta:   63    -2327.0249    -2327.0171    -2327.1928  0.0019 -3.4812
siesta:   64    -2327.0252    -2327.0168    -2327.1920  0.0018 -3.4822
siesta:   65    -2327.0256    -2327.0159    -2327.1909  0.0016 -3.4836
siesta:   66    -2327.0257    -2327.0156    -2327.1902  0.0017 -3.4838
siesta:   67    -2327.0257    -2327.0154    -2327.1901  0.0017 -3.4840
siesta:   68    -2327.0266    -2327.0153    -2327.1899  0.0013 -3.4882
siesta:   69    -2327.0266    -2327.0155    -2327.1893  0.0014 -3.4892
siesta:   70    -2327.0265    -2327.0163    -2327.1900  0.0015 -3.4904
siesta:   71    -2327.0263    -2327.0175    -2327.1913  0.0015 -3.4915
siesta:   72    -2327.0262    -2327.0187    -2327.1927  0.0013 -3.4928
siesta:   73    -2327.0262    -2327.0205    -2327.1946  0.0008 -3.4951
siesta:   74    -2327.0262    -2327.0208    -2327.1949  0.0008 -3.4954
siesta:   75    -2327.0261    -2327.0213    -2327.1955  0.0008 -3.4958
siesta:   76    -2327.0260    -2327.0244    -2327.1986  0.0006 -3.4967
siesta:   77    -2327.0260    -2327.0254    -2327.1997  0.0006 -3.4970
siesta:   78    -2327.0261    -2327.0267    -2327.2010  0.0006 -3.4974
siesta:   79    -2327.0261    -2327.0270    -2327.2013  0.0006 -3.4972
siesta:   80    -2327.0261    -2327.0276    -2327.2018  0.0005 -3.4964
siesta:   81    -2327.0261    -2327.0273    -2327.2016  0.0005 -3.4960
siesta:   82    -2327.0261    -2327.0264    -2327.2006  0.0005 -3.4952
siesta:   83    -2327.0262    -2327.0263    -2327.2006  0.0005 -3.4951
siesta:   84    -2327.0262    -2327.0264    -2327.2006  0.0005 -3.4951
siesta:   85    -2327.0262    -2327.0264    -2327.2006  0.0005 -3.4951
siesta:   86    -2327.0262    -2327.0264    -2327.2005  0.0005 -3.4950
siesta:   87    -2327.0263    -2327.0261    -2327.2002  0.0005 -3.4946
siesta:   88    -2327.0262    -2327.0260    -2327.2001  0.0005 -3.4946
siesta:   89    -2327.0262    -2327.0260    -2327.2002  0.0004 -3.4948
siesta:   90    -2327.0263    -2327.0264    -2327.2005  0.0004 -3.4955
siesta:   91    -2327.0263    -2327.0269    -2327.2010  0.0003 -3.4961
siesta:   92    -2327.0263    -2327.0270    -2327.2011  0.0003 -3.4961
siesta:   93    -2327.0263    -2327.0270    -2327.2011  0.0003 -3.4961
siesta:   94    -2327.0263    -2327.0270    -2327.2012  0.0002 -3.4962
siesta:   95    -2327.0263    -2327.0273    -2327.2014  0.0002 -3.4965
siesta:   96    -2327.0263    -2327.0273    -2327.2014  0.0002 -3.4965
siesta:   97    -2327.0263    -2327.0270    -2327.2011  0.0002 -3.4966
siesta:   98    -2327.0263    -2327.0267    -2327.2008  0.0002 -3.4967
siesta:   99    -2327.0263    -2327.0264    -2327.2005  0.0002 -3.4967
siesta:  100    -2327.0263    -2327.0264    -2327.2004  0.0002 -3.4966
siesta:  101    -2327.0263    -2327.0263    -2327.2004  0.0002 -3.4967
siesta:  102    -2327.0263    -2327.0264    -2327.2004  0.0001 -3.4968
siesta:  103    -2327.0263    -2327.0264    -2327.2005  0.0001 -3.4968
siesta:  104    -2327.0264    -2327.0264    -2327.2005  0.0001 -3.4968
siesta:  105    -2327.0264    -2327.0266    -2327.2006  0.0001 -3.4965

siesta: E_KS(eV) =            -2327.0266

siesta: E_KS - E_eggbox =     -2327.0266

siesta: Atomic forces (eV/Ang):
----------------------------------------
   Tot    0.000000   -0.000000    0.000004
----------------------------------------
   Max    0.071478
   Res    0.033693    sqrt( Sum f_i^2 / 3N )
----------------------------------------
   Max    0.071478    constrained

Stress-tensor-Voigt (kbar):        6.67        6.67       -1.33        0.00       -0.00        0.00
(Free)E + p*V (eV/cell)    -2328.2666
Target enthalpy (eV/cell)    -2327.2006

mulliken: Atomic and Orbital Populations:

Species: fe_nc               

Atom      Orb        Charge      Spin       Svec
----------------------------------------------------------------
   1    14s         1.36053   0.02701     -0.015  -0.000  -0.023
   1    24s         0.10084   0.06673      0.004  -0.000   0.067
   1    33dxy       1.22799   0.65161      0.059  -0.000   0.649
   1    43dyz       1.23534   0.48261     -0.001  -0.000   0.483
   1    53dz2       1.26774   0.47613      0.011  -0.000   0.476
   1    63dxz       1.23534   0.48261     -0.001  -0.000   0.483
   1    73dx2-y2    1.22664   0.65306      0.059  -0.000   0.650
   1    83dxy       0.04754   0.06834      0.010  -0.000   0.068
   1    93dyz       0.03191   0.06014      0.004  -0.000   0.060
   1   103dz2       0.07179   0.04629      0.003  -0.000   0.046
   1   113dxz       0.03191   0.06014      0.004  -0.000   0.060
   1   123dx2-y2    0.04751   0.06831      0.010  -0.000   0.068
   1   134Ppy       0.03165   0.00129      0.001  -0.000   0.001
   1   144Ppz       0.00553   0.00451      0.005  -0.000  -0.000
   1   154Ppx       0.03165   0.00129      0.001  -0.000   0.001
   1     Total      7.95392   3.09070      0.153  -0.000   3.087

   2   164s         0.79362   0.03064     -0.015  -0.000  -0.027
   2   174s         0.16376   0.03118      0.031  -0.000  -0.005
   2   183dxy       1.42926   0.47053      0.471  -0.000  -0.002
   2   193dyz       1.27724   0.11213      0.112  -0.000  -0.012
   2   203dz2       1.12434   0.13193      0.131  -0.000  -0.014
   2   213dxz       1.27724   0.11213      0.112  -0.000  -0.012
   2   223dx2-y2    1.42901   0.45227      0.452  -0.000  -0.002
   2   233dxy       0.00179   0.03723      0.037  -0.000  -0.000
   2   243dyz      -0.02827   0.01134      0.010  -0.000   0.005
   2   253dz2       0.04302   0.00630      0.005  -0.000  -0.004
   2   263dxz      -0.00825   0.00947      0.009  -0.000   0.000
   2   273dx2-y2    0.01221   0.01969      0.020  -0.000   0.002
   2   284Ppy       0.06403   0.00603      0.006  -0.000   0.001
   2   294Ppz       0.06004   0.00383      0.003  -0.000   0.002
   2   304Ppx       0.05965   0.00573      0.006  -0.000  -0.000
   2     Total      7.69868   1.39144      1.389  -0.000  -0.066

   3   314s         0.67025   0.01115     -0.007  -0.000   0.009
   3   324s         0.05372   0.03139      0.002  -0.000  -0.031
   3   333dxy       0.61409   0.32577      0.029  -0.000  -0.324
   3   343dyz       0.62344   0.24232     -0.000  -0.000  -0.242
   3   353dz2       0.63604   0.23843      0.006  -0.000  -0.238
   3   363dxz       0.62008   0.24873     -0.000  -0.000  -0.249
   3   373dx2-y2    0.61319   0.32495      0.029  -0.000  -0.324
   3   383dxy       0.02050   0.04035      0.005  -0.000  -0.040
   3   393dyz       0.08856   0.00360      0.002  -0.000  -0.003
   3   403dz2       0.06350   0.01801      0.003  -0.000  -0.018
   3   413dxz       0.01898   0.02790      0.001  -0.000  -0.028
   3   423dx2-y2    0.04507   0.02531      0.012  -0.000  -0.022
   3   434Ppy       0.06946   0.01672      0.002  -0.000   0.017
   3   444Ppz       0.02402   0.01479      0.010  -0.000   0.011
   3   454Ppx       0.01709   0.01844      0.018  -0.000   0.005
   3     Total      4.17798   1.48278      0.111  -0.000  -1.479

----------------------------------------------------------------
   Total   Total   19.83058   4.83936      1.652  -0.000   1.542


* Maximum dynamic memory allocated =    15 MB

siesta: Program's energy decomposition (eV):
siesta: Ebs     =      -138.223076
siesta: Eions   =      2141.484345
siesta: Ena     =        95.468898
siesta: Ekin    =      2356.540634
siesta: Enl     =     -1464.256062
siesta: DEna    =       -28.366061
siesta: DUscf   =         2.906450
siesta: DUext   =         0.000000
siesta: Exc     =     -1147.836084
siesta: eta*DQ  =         0.000000
siesta: Emadel  =         0.000000
siesta: Emeta   =         0.000000
siesta: Emolmec =         0.000000
siesta: Ekinion =         0.000000
siesta: Eharris =     -2327.026374
siesta: Etot    =     -2327.026571
siesta: FreeEng =     -2327.200613

siesta: Final energy (eV):
siesta:  Band Struct. =    -138.223076
siesta:       Kinetic =    2356.540634
siesta:       Hartree =    1407.493721
siesta:    Ext. field =       0.000000
siesta:   Exch.-corr. =   -1147.836084
siesta:  Ion-electron =   -4749.526691
siesta:       Ion-ion =    -193.698150
siesta:       Ekinion =       0.000000
siesta:         Total =   -2327.026571

siesta: Atomic forces (eV/Ang):
siesta:      1   -0.000000   -0.000000   -0.071478
siesta:      2   -0.000000   -0.000000    0.000013
siesta:      3    0.000000   -0.000000    0.071469
siesta: ----------------------------------------
siesta:    Tot    0.000000   -0.000000    0.000004

siesta: Stress tensor (static) (eV/Ang**3):
siesta:     0.004163    0.000000    0.000000
siesta:     0.000000    0.004163   -0.000000
siesta:     0.000000   -0.000000   -0.000832

siesta: Cell volume =        426.771459 Ang**3

siesta: Pressure (static):
siesta:                Solid            Molecule  Units
siesta:          -0.00002720         -0.00002486  Ry/Bohr**3
siesta:          -0.00249772         -0.00228242  eV/Ang**3
siesta:          -4.00182785         -3.65688059  kBar
(Free)E+ p_basis*V_orbitals  =       -2324.930684
(Free)Eharris+ p_basis*V_orbitals  =       -2324.930485

siesta: Total spin polarization (Qup-Qdown) =    1.785859
siesta: Spin vector =    1.785859   -0.000000    0.000001

* Maximum dynamic memory allocated : Node    0 =    15 MB
* Maximum dynamic memory allocated : Node    1 =    15 MB

* Maximum memory occured during redistribXZ                   

timer: CPU execution times:
timer:  Routine       Calls   Time/call    Tot.time        %
timer:  siesta            1      98.184      98.184   100.00
timer:  Setup             1       0.438       0.438     0.45
timer:  bands             1       0.001       0.001     0.00
timer:  writewave         1       0.002       0.002     0.00
timer:  KSV_init          1       0.000       0.000     0.00
timer:  IterMD            1      97.730      97.730    99.54
timer:  hsparse           1       0.003       0.003     0.00
timer:  overlap           1       1.160       1.160     1.18
timer:  IterSCF         105       0.903      94.788    96.54
timer:  kinefsm           2       0.563       1.125     1.15
timer:  nlefsm            2       1.070       2.141     2.18
timer:  DHSCF           106       0.834      88.380    90.01
timer:  DHSCF1            1       0.164       0.164     0.17
timer:  DHSCF2            1       0.696       0.696     0.71
timer:  REORD          1592       0.001       1.179     1.20
timer:  POISON          107       0.105      11.216    11.42
timer:  DHSCF3          106       0.807      85.576    87.16
timer:  rhoofd          106       0.236      25.063    25.53
timer:  cellXC          106       0.251      26.559    27.05
timer:  vmat            106       0.175      18.509    18.85
timer:  MolMec            2       0.000       0.000     0.00
timer:  diagon          105       0.039       4.107     4.18
timer:  cdiag           105       0.036       3.734     3.80
timer:  cdiag1          105       0.002       0.192     0.20
timer:  cdiag2          105       0.004       0.431     0.44
timer:  cdiag3          105       0.023       2.373     2.42
timer:  cdiag4          105       0.005       0.562     0.57
timer:  DHSCF4            1       0.900       0.900     0.92
timer:  dfscf             1       0.777       0.777     0.79
timer:  overfsm           1       0.004       0.004     0.00
timer:  optical           1       0.001       0.001     0.00
  

elaps: ELAPSED times:
elaps:  Routine       Calls   Time/call    Tot.time        %
elaps:  siesta            1      50.697      50.697   100.00
elaps:  Setup             1       0.233       0.233     0.46
elaps:  bands             1       0.001       0.001     0.00
elaps:  writewave         1       0.001       0.001     0.00
elaps:  KSV_init          1       0.000       0.000     0.00
elaps:  IterMD            1      50.456      50.456    99.52
elaps:  hsparse           1       0.003       0.003     0.01
elaps:  overlap           1       0.597       0.597     1.18
elaps:  IterSCF         105       0.466      48.954    96.56
elaps:  kinefsm           2       0.288       0.577     1.14
elaps:  nlefsm            2       0.544       1.088     2.15
elaps:  DHSCF           106       0.430      45.571    89.89
elaps:  DHSCF1            1       0.083       0.083     0.16
elaps:  DHSCF2            1       0.355       0.355     0.70
elaps:  REORD          1592       0.000       0.604     1.19
elaps:  POISON          107       0.055       5.892    11.62
elaps:  DHSCF3          106       0.416      44.133    87.05
elaps:  rhoofd          106       0.123      13.072    25.78
elaps:  cellXC          106       0.128      13.574    26.77
elaps:  vmat            106       0.090       9.588    18.91
elaps:  MolMec            2       0.000       0.000     0.00
elaps:  diagon          105       0.021       2.182     4.30
elaps:  cdiag           105       0.019       1.980     3.91
elaps:  cdiag1          105       0.001       0.098     0.19
elaps:  cdiag2          105       0.001       0.065     0.13
elaps:  cdiag3          105       0.014       1.454     2.87
elaps:  cdiag4          105       0.003       0.281     0.55
elaps:  DHSCF4            1       0.463       0.463     0.91
elaps:  dfscf             1       0.396       0.396     0.78
elaps:  overfsm           1       0.002       0.002     0.00
elaps:  optical           1       0.000       0.000     0.00
  
>> End of run:  30-JUN-2010  11:59:13
