Siesta Version: siesta-4.0--527
Architecture  : x86_64-linux-n-62-18-14
Compiler flags: mpifort -m64 -fPIC -O3 -march=native -ftree-vectorize -fexpensive-optimizatioons -funroll-loops -fprefetch-loop-arrays -fno-second-underscore 
PP flags      : -I/zdata/groups/common/nicpa/2016-oct/generic/build-tools/1.0/include -I/zdatta/groups/common/nicpa/2016-oct/generic/gmp/6.1.0/include -I/zdata/groups/common/nicpa/2016-oct/generic/mpfr/3.1.4/include -I/zdata/groups/common/nicpa/2016-oct/generic/mpc/1.0.3/include -I/zdata/groups/common/nicpa/2016-oct/generic/isl/0.16.1/include -I/zdata/groups/common/nicpa/2016-oct/generic/gcc/6.2.0/include -I/zdata/groups/common/nicpa/2016-oct/generic/numactl/2.0.11/include -I/zdata/groups/common/nicpa/2016-oct/XeonE5-2665/zlib/1.2.8/gnu-6.2.0/include -I/zdata/groups/common/nicpa/2016-oct/XeonE5-2665/libxml2/2.9.4/gnu-6.2.0/include -I/zdata/groups/common/nicpa/2016-oct/XeonE5-2665/hwloc/1.11.4/gnu-6.2.0/include -I/zdata/groups/common/nicpa/2016-oct/XeonE5-2665/openmpi/2.0.1/gnu-6.2.0/include -I/zdata/groups/common/nicpa/2016-oct/XeonE5-2665/hdf5/1.8.17/gnu-6.2.0/include -I/zdata/groups/common/nicpa/2016-oct/XeonE5-2665/pnetcdf/1.7.0/gnu-6.2.0/include -I/zdata/groups/common/nicpa/2016-oct/XeonE5-2665/netcdf/4.4.1/gnu-6.2.0/include -I/zdata/groups/common/nicpa/2016-oct/XeonE5-2665/flook/0.7.0/gnu-6.2.0/include -I/zdata/groups/common/nicpa/2016-oct/XeonE5-2665/parmetis/4.0.3/gnu-6.2.0/include -I/zdata/groups/common/nicpa/2016-oct/XeonE5-2665/scalapack/204/gnu-6.2.0/include -I/zdata/groups/common/nicpa/2016-oct/XeonE5-2665/openblas/0.2.19/gnu-6.2.0/include -I/zdata/groups/common/nicpa/2016-oct/XeonE5-2665/mumps/5.0.2/gnu-6.2.0/include -I/zdata/groups/common/nicpa/2016-oct/XeonE5-2665/fftw/3.3.5/gnu-6.2.0/include -DMPI -DFC_HAVE_FLUSH -DFC_HAVE_ABORT -DCDF  -DSIESTA__METIS -DSIESTA__MUMPS -DTS_NOCHECKS -DSIESTA__FLOOK  
PARALLEL version
NetCDF support

* Running on    8 nodes in parallel
>> Start of run:   2-JUL-2017  11:58:47

                           ***********************       
                           *  WELCOME TO SIESTA  *       
                           ***********************       

reinit: Reading from standard input
************************** Dump of input data file ****************************
SystemName benzene with FIRE optimizer (Reduced set of variables)
SystemLabel fire_benzene
NumberOfSpecies 2
NumberOfAtoms   12
%block ChemicalSpeciesLabel
1    1 H
2    6 C
%endblock ChemicalSpeciesLabel
%block PS.Lmax
  C 2
%endblock PS.Lmax
AtomicCoordinatesFormat NotScaledCartesianAng
ZM.ForceTolLength 0.04 eV/Ang
ZM.ForceTolAngle 0.0001 eV/deg
ZM.MaxDisplLength 0.1 Ang
ZM.MaxDisplAngle 20.0 deg
%block Zmatrix
molecule
      2 0 0 0 xm1 ym1 zm1 0 0 0
      2 1 0 0 CC 90.0 60.0 0 0 0
      2 2 1 0 CC CCC 90.0 0 0 0
      2 3 2 1 CC CCC 0.0 0 0 0
      2 4 3 2 CC CCC 0.0 0 0 0
      2 5 4 3 CC CCC 0.0 0 0 0
      1 1 2 3 CH CCH 180.0 0 0 0
      1 2 1 7 CH CCH 0.0 0 0 0
      1 3 2 8 CH CCH 0.0 0 0 0
      1 4 3 9 CH CCH 0.0 0 0 0
      1 5 4 10 CH CCH 0.0 0 0 0
      1 6 5 11 CH CCH 0.0 0 0 0
constants
        ym1 3.68
        xm1 3.68
        zm1 6.9032294
variables
        CC 1.417
        CH 1.112
        CCH 120.0
        CCC 120.0
%endblock Zmatrix
ZM.UnitsLength Ang
ZM.UnitsAngle deg
MD.TypeOfRun FIRE
MD.NumCGSteps  4
MD.FIRE.TimeStep      0.3 fs
MD.FIRE.Mass           1.0
MD.FIRE.Debug          T
MD.FIRE.Nmin           5
MeshCutoff 120 Ry
PAO.EnergyShift 0.01 Ry
DM.NumberPulay 5
DM.MixingWeight 0.3
************************** End of input data file *****************************

reinit: -----------------------------------------------------------------------
reinit: System Name: benzene with FIRE optimizer (Reduced set of variables
reinit: -----------------------------------------------------------------------
reinit: System Label: fire_benzene                                                
reinit: -----------------------------------------------------------------------

initatom: Reading input for the pseudopotentials and atomic orbitals ----------
 Species number:            1  Label: H Atomic number:           1
 Species number:            2  Label: C Atomic number:           6
Ground state valence configuration:   1s01
Reading pseudopotential information in formatted form from H.psf

Valence configuration for pseudopotential generation:
1s( 1.00) rc: 1.25
2p( 0.00) rc: 1.25
3d( 0.00) rc: 1.25
4f( 0.00) rc: 1.25
Ground state valence configuration:   2s02  2p02
Reading pseudopotential information in formatted form from C.psf

Valence configuration for pseudopotential generation:
2s( 2.00) rc: 1.49
2p( 2.00) rc: 1.52
3d( 0.00) rc: 1.58
relmxkb: Read Max KB Ang. Momentum=    2 for species C
For H, standard SIESTA heuristics set lmxkb to 2
 (one more than the basis l, including polarization orbitals).
Use PS.lmax or PS.KBprojectors blocks to override.

<basis_specs>
===============================================================================
H                    Z=   1    Mass=  1.0100        Charge= 0.17977+309
Lmxo=0 Lmxkb= 2    BasisType=split      Semic=F
L=0  Nsemic=0  Cnfigmx=1
          n=1  nzeta=2  polorb=1
            splnorm:   0.15000    
               vcte:    0.0000    
               rinn:    0.0000    
               qcoe:    0.0000    
               qyuk:    0.0000    
               qwid:   0.10000E-01
                rcs:    0.0000      0.0000    
            lambdas:    1.0000      1.0000    
-------------------------------------------------------------------------------
L=0  Nkbl=1  erefs: 0.17977+309
L=1  Nkbl=1  erefs: 0.17977+309
L=2  Nkbl=1  erefs: 0.17977+309
===============================================================================
</basis_specs>

atom: Called for H                     (Z =   1)

read_vps: Pseudopotential generation method:
read_vps: ATM3      Troullier-Martins                       
Total valence charge:    1.00000

xc_check: Exchange-correlation functional:
xc_check: Ceperley-Alder
V l=0 = -2*Zval/r beyond r=  1.2343
V l=1 = -2*Zval/r beyond r=  1.2189
V l=2 = -2*Zval/r beyond r=  1.2189
All V_l potentials equal beyond r=  1.2343
This should be close to max(r_c) in ps generation
All pots = -2*Zval/r beyond r=  1.2343

VLOCAL1: 99.0% of the norm of Vloc inside     28.493 Ry
VLOCAL1: 99.9% of the norm of Vloc inside     64.935 Ry
atom: Maximum radius for 4*pi*r*r*local-pseudopot. charge    1.45251
atom: Maximum radius for r*vlocal+2*Zval:    1.21892
GHOST: No ghost state for L =  0
GHOST: No ghost state for L =  1
GHOST: No ghost state for L =  2

KBgen: Kleinman-Bylander projectors: 
   l= 0   rc=  1.364359   el= -0.467325   Ekb= -2.005361   kbcos= -0.336422
   l= 1   rc=  1.434438   el=  0.001430   Ekb= -0.501708   kbcos= -0.021697
   l= 2   rc=  1.470814   el=  0.002365   Ekb= -0.190555   kbcos= -0.002281

KBgen: Total number of  Kleinman-Bylander projectors:    9
atom: -------------------------------------------------------------------------

atom: SANKEY-TYPE ORBITALS:
atom: Selected multiple-zeta basis: split     

SPLIT: Orbitals with angular momentum L= 0

SPLIT: Basis orbitals for state 1s

SPLIT: PAO cut-off radius determined from an
SPLIT: energy shift=  0.010000 Ry

   izeta = 1
                 lambda =    1.000000
                     rc =    5.336316
                 energy =   -0.457946
                kinetic =    0.886710
    potential(screened) =   -1.344656
       potential(ionic) =   -1.876618

   izeta = 2
                 rmatch =    4.002347
              splitnorm =    0.150000
                 energy =   -0.355904
                kinetic =    1.439488
    potential(screened) =   -1.795392
       potential(ionic) =   -2.364690

POLgen: Perturbative polarization orbital with L=  1

POLgen: Polarization orbital for state 1s

   izeta = 1
                     rc =    5.336316
                 energy =    0.616245
                kinetic =    1.262150
    potential(screened) =   -0.645906
       potential(ionic) =   -1.116519
atom: Total number of Sankey-type orbitals:  5

atm_pop: Valence configuration (for local Pseudopot. screening):
 1s( 1.00)                                                            
Vna: chval, zval:    1.00000   1.00000

Vna:  Cut-off radius for the neutral-atom potential:   5.336316

atom: _________________________________________________________________________

<basis_specs>
===============================================================================
C                    Z=   6    Mass=  12.010        Charge= 0.17977+309
Lmxo=1 Lmxkb= 2    BasisType=split      Semic=F
L=0  Nsemic=0  Cnfigmx=2
          n=1  nzeta=2  polorb=0
            splnorm:   0.15000    
               vcte:    0.0000    
               rinn:    0.0000    
               qcoe:    0.0000    
               qyuk:    0.0000    
               qwid:   0.10000E-01
                rcs:    0.0000      0.0000    
            lambdas:    1.0000      1.0000    
L=1  Nsemic=0  Cnfigmx=2
          n=1  nzeta=2  polorb=1
            splnorm:   0.15000    
               vcte:    0.0000    
               rinn:    0.0000    
               qcoe:    0.0000    
               qyuk:    0.0000    
               qwid:   0.10000E-01
                rcs:    0.0000      0.0000    
            lambdas:    1.0000      1.0000    
-------------------------------------------------------------------------------
L=0  Nkbl=1  erefs: 0.17977+309
L=1  Nkbl=1  erefs: 0.17977+309
L=2  Nkbl=1  erefs: 0.17977+309
===============================================================================
</basis_specs>

atom: Called for C                     (Z =   6)

read_vps: Pseudopotential generation method:
read_vps: ATM3      Troullier-Martins                       
Total valence charge:    4.00000

xc_check: Exchange-correlation functional:
xc_check: Ceperley-Alder
V l=0 = -2*Zval/r beyond r=  1.4666
V l=1 = -2*Zval/r beyond r=  1.5038
V l=2 = -2*Zval/r beyond r=  1.5612
All V_l potentials equal beyond r=  1.5612
This should be close to max(r_c) in ps generation
All pots = -2*Zval/r beyond r=  1.5612

VLOCAL1: 99.0% of the norm of Vloc inside     17.809 Ry
VLOCAL1: 99.9% of the norm of Vloc inside     40.586 Ry
atom: Maximum radius for 4*pi*r*r*local-pseudopot. charge    1.88329
atom: Maximum radius for r*vlocal+2*Zval:    1.62091
GHOST: No ghost state for L =  0
GHOST: No ghost state for L =  1
GHOST: No ghost state for L =  2

KBgen: Kleinman-Bylander projectors: 
   l= 0   rc=  1.747182   el= -1.001947   Ekb=  5.181700   kbcos=  0.300603
   l= 1   rc=  1.747182   el= -0.398598   Ekb= -4.328763   kbcos= -0.367074
   l= 2   rc=  1.955272   el=  0.002326   Ekb= -1.016175   kbcos= -0.009979

KBgen: Total number of  Kleinman-Bylander projectors:    9
atom: -------------------------------------------------------------------------

atom: SANKEY-TYPE ORBITALS:
atom: Selected multiple-zeta basis: split     

SPLIT: Orbitals with angular momentum L= 0

SPLIT: Basis orbitals for state 2s

SPLIT: PAO cut-off radius determined from an
SPLIT: energy shift=  0.010000 Ry

   izeta = 1
                 lambda =    1.000000
                     rc =    4.518360
                 energy =   -0.992087
                kinetic =    0.856755
    potential(screened) =   -1.848843
       potential(ionic) =   -5.436865

   izeta = 2
                 rmatch =    3.475094
              splitnorm =    0.150000
                 energy =   -0.853594
                kinetic =    1.308346
    potential(screened) =   -2.161940
       potential(ionic) =   -6.002045

SPLIT: Orbitals with angular momentum L= 1

SPLIT: Basis orbitals for state 2p

SPLIT: PAO cut-off radius determined from an
SPLIT: energy shift=  0.010000 Ry

   izeta = 1
                 lambda =    1.000000
                     rc =    5.382558
                 energy =   -0.388318
                kinetic =    2.456485
    potential(screened) =   -2.844804
       potential(ionic) =   -6.312273

   izeta = 2
                 rmatch =    3.607901
              splitnorm =    0.150000
                 energy =   -0.250655
                kinetic =    3.636791
    potential(screened) =   -3.887446
       potential(ionic) =   -7.736789

POLgen: Perturbative polarization orbital with L=  2

POLgen: Polarization orbital for state 2p

   izeta = 1
                     rc =    5.382558
                 energy =    1.148490
                kinetic =    2.389078
    potential(screened) =   -1.240587
       potential(ionic) =   -4.090578
atom: Total number of Sankey-type orbitals: 13

atm_pop: Valence configuration (for local Pseudopot. screening):
 2s( 2.00)                                                            
 2p( 2.00)                                                            
Vna: chval, zval:    4.00000   4.00000

Vna:  Cut-off radius for the neutral-atom potential:   5.382558

atom: _________________________________________________________________________

prinput: Basis input ----------------------------------------------------------

PAO.BasisType split     

%block ChemicalSpeciesLabel
    1    1 H                       # Species index, atomic number, species label
    2    6 C                       # Species index, atomic number, species label
%endblock ChemicalSpeciesLabel

%block PAO.Basis                 # Define Basis set
H                     1                    # Species label, number of l-shells
 n=1   0   2 P   1                   # n, l, Nzeta, Polarization, NzetaPol
   5.336      4.002   
   1.000      1.000   
C                     2                    # Species label, number of l-shells
 n=2   0   2                         # n, l, Nzeta 
   4.518      3.475   
   1.000      1.000   
 n=2   1   2 P   1                   # n, l, Nzeta, Polarization, NzetaPol
   5.383      3.608   
   1.000      1.000   
%endblock PAO.Basis

prinput: ----------------------------------------------------------------------

Dumping basis to NetCDF file H.ion.nc
Dumping basis to NetCDF file C.ion.nc
coor:   Atomic-coordinates input format  =     Cartesian coordinates
coor:                                          (in Angstroms)
read_Zmatrix: Length units: Ang       
read_Zmatrix: Angle  units: deg       
read_Zmatrix: Force tolerances:
read_Zmatrix:    for lengths =     0.001556 Ry/Bohr
read_Zmatrix:    for angles  =     0.000421 Ry/rad

read_Zmatrix: Maximum displacements:
read_Zmatrix:    for lengths =     0.188973 Bohr
read_Zmatrix:    for angles  =     0.349066 rad
%block Zmatrix
molecule
      2 0 0 0 xm1 ym1 zm1 0 0 0
      2 1 0 0 CC 90.0 60.0 0 0 0
      2 2 1 0 CC CCC 90.0 0 0 0
      2 3 2 1 CC CCC 0.0 0 0 0
      2 4 3 2 CC CCC 0.0 0 0 0
      2 5 4 3 CC CCC 0.0 0 0 0
      1 1 2 3 CH CCH 180.0 0 0 0
      1 2 1 7 CH CCH 0.0 0 0 0
      1 3 2 8 CH CCH 0.0 0 0 0
      1 4 3 9 CH CCH 0.0 0 0 0
      1 5 4 10 CH CCH 0.0 0 0 0
      1 6 5 11 CH CCH 0.0 0 0 0
constants
        ym1 3.68
        xm1 3.68
        zm1 6.9032294
variables
        CC 1.417
        CH 1.112
        CCH 120.0
        CCC 120.0
%endblock Zmatrix
 nZmol:            1
 nSpecies:            2           2           2           2           2           2           1           1           1           1           1           1

zmatrix: Z-matrix coordinates: (Ang ; deg )
zmatrix: (Fractional coordinates have been converted to cartesian)
molecule    1 (    12 atoms)
      3.68000000      3.68000000      6.90322940
      1.41700000     90.00000000     60.00000000
      1.41700000    120.00000000     90.00000000
      1.41700000    120.00000000      0.00000000
      1.41700000    120.00000000      0.00000000
      1.41700000    120.00000000      0.00000000
      1.11200000    120.00000000    180.00000000
      1.11200000    120.00000000      0.00000000
      1.11200000    120.00000000      0.00000000
      1.11200000    120.00000000      0.00000000
      1.11200000    120.00000000      0.00000000
      1.11200000    120.00000000      0.00000000


Z-matrix Symbol Section -------
Variables
 CC           1.4170000000000000     
 CCC          120.00000000000017     
 CH           1.1120000000000001     
 CCH          120.00000000000017     
Constants
 xm1          3.6800000000000002     
 ym1          3.6800000000000002     
 zm1          6.9032293999999998     
------------ End of Z-matrix Information


siesta: Atomic coordinates (Bohr) and species
siesta:      6.95419   6.95419  13.04522  2        1
siesta:      8.29307   9.27319  13.04522  2        2
siesta:     10.97081   9.27319  13.04522  2        3
siesta:     12.30968   6.95419  13.04522  2        4
siesta:     10.97081   4.63520  13.04522  2        5
siesta:      8.29307   4.63520  13.04522  2        6
siesta:      4.85282   6.95419  13.04522  1        7
siesta:      7.24238  11.09303  13.04522  1        8
siesta:     12.02150  11.09303  13.04522  1        9
siesta:     14.41106   6.95419  13.04522  1       10
siesta:     12.02150   2.81536  13.04522  1       11
siesta:      7.24238   2.81536  13.04522  1       12

siesta: Automatic unit cell vectors (Ang):
siesta:   11.776283    0.000000    0.000000
siesta:    0.000000   11.030875    0.000000
siesta:    0.000000    0.000000    6.266317

siesta: System type = molecule  

initatomlists: Number of atoms, orbitals, and projectors:     12   108   108

siesta: ******************** Simulation parameters ****************************
siesta:
siesta: The following are some of the parameters of the simulation.
siesta: A complete list of the parameters used, including default values,
siesta: can be found in file out.fdf
siesta:
redata: Non-Collinear-spin run           =     F
redata: SpinPolarized (Up/Down) run      =     F
redata: Number of spin components        =     1
redata: Long output                      =     F
redata: Number of Atomic Species         =        2
redata: Charge density info will appear in .RHO file
redata: Write Mulliken Pop.              =     NO
redata: Mesh Cutoff                      =   120.0000  Ry
redata: Net charge of the system         =     0.0000 |e|
redata: Min. number of SCF Iter          =        0
redata: Max. number of SCF Iter          =       50
redata: Mix DM or H after convergence    =     F
redata: Recompute H after scf cycle      =     F
redata: Performing Pulay mixing using    =     5 iterations
redata: Mix DM in first SCF step ?       =     F
redata: Write Pulay info on disk?        =     F
redata: Discard 1st Pulay DM after  kick =     F
redata: New DM Mixing Weight             =     0.3000
redata: New DM Occupancy tolerance       = 0.000000000001
redata: No kicks to SCF
redata: DM Mixing Weight for Kicks       =     0.5000
redata: DM Tolerance for SCF             =     0.000100
redata: Require (free) Energy convergence in SCF =     F
redata: DM (free)Energy tolerance for SCF =     0.000010 eV
redata: Require Harris convergence for SCF =     F
redata: DM Harris energy tolerance for SCF =     0.000010 eV
redata: Using Saved Data (generic)   =     F
redata: Use continuation files for DM    =     F
redata: Neglect nonoverlap interactions  =     F
redata: Method of Calculation            =     Diagonalization
redata: Divide and Conquer               =     T
redata: Electronic Temperature           =     0.0019  Ry
redata: Fix the spin of the system       =     F
redata: Dynamics option                  =     FIRE coord. optimization
redata: Variable cell                    =     F
redata: Use continuation files for CG    =     F
redata: Max atomic displ per move        =     0.2000  Bohr
redata: Maximum number of CG moves       =        4
redata: Force tolerance                  =     0.0016  Ry/Bohr
redata: ***********************************************************************
Total number of electrons:    30.000000
Total ionic charge:    30.000000

* ProcessorY, Blocksize:    2  14


* Orbital distribution balance (max,min):    14    10

 Kpoints in:            1 . Kpoints trimmed:            1

siesta: k-grid: Number of k-points =     1
siesta: k-grid: Cutoff (effective) =     3.133 Ang
siesta: k-grid: Supercell and displacements
siesta: k-grid:    1   0   0      0.000
siesta: k-grid:    0   1   0      0.000
siesta: k-grid:    0   0   1      0.000

                     ====================================
                        Begin FIRE opt. move =      0

zmatrix: Z-matrix coordinates: (Ang ; deg )
zmatrix: (Fractional coordinates have been converted to cartesian)
molecule    1 (    12 atoms)
      3.68000000      3.68000000      6.90322940
      1.41700000     90.00000000     60.00000000
      1.41700000    120.00000000     90.00000000
      1.41700000    120.00000000      0.00000000
      1.41700000    120.00000000      0.00000000
      1.41700000    120.00000000      0.00000000
      1.11200000    120.00000000    180.00000000
      1.11200000    120.00000000      0.00000000
      1.11200000    120.00000000      0.00000000
      1.11200000    120.00000000      0.00000000
      1.11200000    120.00000000      0.00000000
      1.11200000    120.00000000      0.00000000


Z-matrix Symbol Section -------
Variables
 CC           1.4170000000000000     
 CCC          120.00000000000017     
 CH           1.1120000000000001     
 CCH          120.00000000000017     
Constants
 xm1          3.6800000000000002     
 ym1          3.6800000000000002     
 zm1          6.9032293999999998     
------------ End of Z-matrix Information

                     ====================================

outcell: Unit cell vectors (Ang):
       11.776283    0.000000    0.000000
        0.000000   11.030875    0.000000
        0.000000    0.000000    6.266317

outcell: Cell vector modules (Ang)   :   11.776283   11.030875    6.266317
outcell: Cell angles (23,13,12) (deg):     90.0000     90.0000     90.0000
outcell: Cell volume (Ang**3)        :    814.0116
New_DM. Step:     1
Initializing Density Matrix...
New grid distribution:   1
           1       1:   40    1:   20    1:    6
           2       1:   40    1:   20    7:   12
           3       1:   40    1:   20   13:   18
           4       1:   40    1:   20   19:   24
           5       1:   40   21:   40    1:    6
           6       1:   40   21:   40    7:   12
           7       1:   40   21:   40   13:   18
           8       1:   40   21:   40   19:   24

InitMesh: MESH =    80 x    80 x    48 =      307200
InitMesh: (bp) =    40 x    40 x    24 =       38400
InitMesh: Mesh cutoff (required, used) =   120.000   127.546 Ry
ExtMesh (bp) on 0 =    80 x    64 x    50 =      256000
New grid distribution:   2
           1      19:   40   15:   40    1:    6
           2       1:   18   15:   40    7:   24
           3      19:   40    1:   14    7:   24
           4      19:   40    1:   14    1:    6
           5       1:   18    1:   14    7:   24
           6      19:   40   15:   40    7:   24
           7       1:   18   15:   40    1:    6
           8       1:   18    1:   14    1:    6
New grid distribution:   3
           1      19:   40    1:   15    1:   10
           2       1:   18    1:   15   11:   24
           3       1:   18   16:   40   10:   24
           4      19:   40    1:   15   11:   24
           5      19:   40   16:   40    1:    9
           6       1:   18   16:   40    1:    9
           7      19:   40   16:   40   10:   24
           8       1:   18    1:   15    1:   10
Setting up quadratic distribution...
ExtMesh (bp) on 0 =    62 x    70 x    50 =      217000
PhiOnMesh: Number of (b)points on node 0 =                 3432
PhiOnMesh: nlist on node 0 =                41836

stepf: Fermi-Dirac step function

siesta: Program's energy decomposition (eV):
siesta: Ebs     =      -450.458025
siesta: Eions   =      1613.953835
siesta: Ena     =       340.728180
siesta: Ekin    =       613.333480
siesta: Enl     =       -32.517563
siesta: DEna    =         0.000002
siesta: DUscf   =         0.000000
siesta: DUext   =         0.000000
siesta: Exc     =      -317.548230
siesta: eta*DQ  =         0.000000
siesta: Emadel  =         0.000000
siesta: Emeta   =         0.000000
siesta: Emolmec =         0.000000
siesta: Ekinion =         0.000000
siesta: Eharris =     -1027.088452
siesta: Etot    =     -1009.957966
siesta: FreeEng =     -1009.957966

   scf: iscf   Eharris(eV)      E_KS(eV)   FreeEng(eV)    dDmax  Ef(eV)
   scf:    1    -1027.0885    -1009.9580    -1009.9580  1.95529 -7.7332
timer: Routine,Calls,Time,% =    IterSCF     1       0.107   9.17
   scf:    2    -1026.4534    -1021.6424    -1021.6424  0.28419 -1.6497
   scf:    3    -1023.9298    -1021.4695    -1021.4695  0.18912 -4.0587
   scf:    4    -1023.8478    -1023.1470    -1023.1470  0.03663 -4.5119
   scf:    5    -1023.8416    -1023.6519    -1023.6519  0.00786 -4.5250
   scf:    6    -1023.8405    -1023.7696    -1023.7696  0.00245 -4.4718
   scf:    7    -1023.8402    -1023.8308    -1023.8308  0.00026 -4.4705
   scf:    8    -1023.8402    -1023.8336    -1023.8336  0.00015 -4.4735
   scf:    9    -1023.8402    -1023.8393    -1023.8393  0.00007 -4.4736

SCF Convergence by dMax criterion
max |DM_out - DM_in|:     0.00007372
SCF cycle converged after    9 iterations

Using DM_out to compute the final energy and forces

siesta: E_KS(eV) =            -1023.8402

siesta: E_KS - E_eggbox =     -1023.8402

zmatrix: Atomic forces (eV/Ang ; eV/deg )
zmatrix: (No information if symbols are used)
molecule    1 (    12 atoms)
     1    0.000000    0.000000    0.000000
     2    0.000000    0.000000    0.000000
     3    0.000000    0.000000    0.000000
     4    0.000000    0.000000    0.000000
     5    0.000000    0.000000    0.000000
     6    0.000000    0.000000    0.000000
     7    0.000000    0.000000    0.000000
     8    0.000000    0.000000    0.000000
     9    0.000000    0.000000    0.000000
    10    0.000000    0.000000    0.000000
    11    0.000000    0.000000    0.000000
    12    0.000000    0.000000    0.000000


Variable forces (eV/Ang ; eV/deg )
 CC          -5.5622896130331432     
 CCC        -0.11982369121165636     
 CH         -0.81166122774080418     
 CCH          5.4824695157873609E-005

siesta: Atomic forces (eV/Ang):
----------------------------------------
   Tot   -0.003388   -0.005300    0.003052
----------------------------------------
   Max    0.797987
   Res    0.327707    sqrt( Sum f_i^2 / 3N )
----------------------------------------
   Max    0.797987    constrained

Stress-tensor-Voigt (kbar):        8.65        8.62       -0.06        0.01        0.00        0.00
(Free)E + p*V (eV/cell)    -1026.7546
Target enthalpy (eV/cell)    -1023.8402
Fire_optim: No of elements:      4
 Power > 0
FIRE: step, dt, npos, alpha, magv, magf, long
FIREdat:     1    0.3000   1    0.1000    0.164976    0.549920    0
FIRE: nvar, x, v, f
           1   2.6680078281620934       -6.4901050961120393E-002 -0.21633683653706798     
           2   2.0716884162266518      -0.15137790777697849      -0.50459302592326161     
           3   2.0999557130062159       -9.4705005257800824E-003  -3.1568335085933610E-002
           4   2.0944054917171671        6.9262159791503775E-005   2.3087386597167928E-004

                     ====================================
                        Begin FIRE opt. move =      1

zmatrix: Z-matrix coordinates: (Ang ; deg )
zmatrix: (Fractional coordinates have been converted to cartesian)
molecule    1 (    12 atoms)
      3.68000000      3.68000000      6.90322940
      1.41184838     90.00000000     60.00000000
      1.41184838    118.69900272     90.00000000
      1.41184838    118.69900272      0.00000000
      1.41184838    118.69900272      0.00000000
      1.41184838    118.69900272      0.00000000
      1.11124826    120.00059526    180.00000000
      1.11124826    120.00059526      0.00000000
      1.11124826    120.00059526      0.00000000
      1.11124826    120.00059526      0.00000000
      1.11124826    120.00059526      0.00000000
      1.11124826    120.00059526      0.00000000


Z-matrix Symbol Section -------
Variables
 CC           1.4118483784833322     
 CCC          118.69900271592896     
 CH           1.1112482643414903     
 CCH          120.00059526441557     
Constants
 xm1          3.6800000000000002     
 ym1          3.6800000000000002     
 zm1          6.9032293999999998     
------------ End of Z-matrix Information

                     ====================================

outcell: Unit cell vectors (Ang):
       11.776283    0.000000    0.000000
        0.000000   11.030875    0.000000
        0.000000    0.000000    6.266317

outcell: Cell vector modules (Ang)   :   11.776283   11.030875    6.266317
outcell: Cell angles (23,13,12) (deg):     90.0000     90.0000     90.0000
outcell: Cell volume (Ang**3)        :    814.0116
New_DM. Step:     2
Re-using DM from previous geometry...
Re-using DM without extrapolation (not allowed)
Density Matrix sparsity pattern changed.
Note: For starting DM, Qtot, Tr[D*S] =         30.00000000         30.14496065
New grid distribution:   1
           1       1:   40    1:   20    1:    6
           2       1:   40    1:   20    7:   12
           3       1:   40    1:   20   13:   18
           4       1:   40    1:   20   19:   24
           5       1:   40   21:   40    1:    6
           6       1:   40   21:   40    7:   12
           7       1:   40   21:   40   13:   18
           8       1:   40   21:   40   19:   24

InitMesh: MESH =    80 x    80 x    48 =      307200
InitMesh: (bp) =    40 x    40 x    24 =       38400
InitMesh: Mesh cutoff (required, used) =   120.000   127.546 Ry
ExtMesh (bp) on 0 =    80 x    64 x    50 =      256000
New grid distribution:   2
           1      18:   40   15:   40    1:    6
           2       1:   17   15:   40    7:   24
           3      18:   40    1:   14    7:   24
           4      18:   40    1:   14    1:    6
           5       1:   17    1:   14    7:   24
           6      18:   40   15:   40    7:   24
           7       1:   17   15:   40    1:    6
           8       1:   17    1:   14    1:    6
New grid distribution:   3
           1      18:   40    1:   15    1:   10
           2       1:   17    1:   15   11:   24
           3       1:   18   16:   40   10:   24
           4      18:   40    1:   15   11:   24
           5      19:   40   16:   40    1:    9
           6       1:   18   16:   40    1:    9
           7      19:   40   16:   40   10:   24
           8       1:   17    1:   15    1:   10
Setting up quadratic distribution...
ExtMesh (bp) on 0 =    63 x    70 x    50 =      220500
PhiOnMesh: Number of (b)points on node 0 =                 3588
PhiOnMesh: nlist on node 0 =                45917

   scf: iscf   Eharris(eV)      E_KS(eV)   FreeEng(eV)    dDmax  Ef(eV)
   scf:    1    -1023.3071    -1024.1260    -1024.1260  0.09766 -4.3763
   scf:    2    -1023.7433    -1022.9605    -1022.9605  0.10263 -5.1025
   scf:    3    -1023.1924    -1023.4475    -1023.4475  0.02705 -4.4933
   scf:    4    -1023.1909    -1023.1617    -1023.1617  0.00672 -4.4913
   scf:    5    -1023.1907    -1023.1702    -1023.1702  0.00301 -4.4835
   scf:    6    -1023.1907    -1023.1828    -1023.1828  0.00045 -4.4855
   scf:    7    -1023.1906    -1023.1855    -1023.1855  0.00025 -4.4868
   scf:    8    -1023.1906    -1023.1889    -1023.1889  0.00008 -4.4869

SCF Convergence by dMax criterion
max |DM_out - DM_in|:     0.00007526
SCF cycle converged after    8 iterations

Using DM_out to compute the final energy and forces

siesta: E_KS(eV) =            -1023.1906

zmatrix: Atomic forces (eV/Ang ; eV/deg )
zmatrix: (No information if symbols are used)
molecule    1 (    12 atoms)
     1    0.000000    0.000000    0.000000
     2    0.000000    0.000000    0.000000
     3    0.000000    0.000000    0.000000
     4    0.000000    0.000000    0.000000
     5    0.000000    0.000000    0.000000
     6    0.000000    0.000000    0.000000
     7    0.000000    0.000000    0.000000
     8    0.000000    0.000000    0.000000
     9    0.000000    0.000000    0.000000
    10    0.000000    0.000000    0.000000
    11    0.000000    0.000000    0.000000
    12    0.000000    0.000000    0.000000


Variable forces (eV/Ang ; eV/deg )
 CC           6.5342612386839543     
 CCC          1.3175418138524226     
 CH         -0.54135613823775164     
 CCH         -9.3264627536224845E-003

siesta: Atomic forces (eV/Ang):
----------------------------------------
   Tot    0.011810   -0.002714    0.003196
----------------------------------------
   Max    8.855292
   Res    2.350682    sqrt( Sum f_i^2 / 3N )
----------------------------------------
   Max    8.855292    constrained

Stress-tensor-Voigt (kbar):       -0.02      -17.01       -0.05       11.71       -0.00        0.00
(Free)E + p*V (eV/cell)    -1020.2989
Target enthalpy (eV/cell)    -1023.1906
 Power < 0
FIRE: step, dt, npos, alpha, magv, magf, long
FIREdat:     2    0.1500   0    0.1000    1.666300    5.554335    0
FIRE: nvar, x, v, f
           1   2.6794441372492206        7.6242060580849161E-002  0.25414020193616388     
           2   2.3213636530344077        1.6645015787183743        5.5483385957279143     
           3   2.0990082277593070       -6.3165683127248380E-003  -2.1055227709082795E-002
           4   2.0926381195001285       -1.1782481446923981E-002  -3.9274938156413274E-002

                     ====================================
                        Begin FIRE opt. move =      2

zmatrix: Z-matrix coordinates: (Ang ; deg )
zmatrix: (Fractional coordinates have been converted to cartesian)
molecule    1 (    12 atoms)
      3.68000000      3.68000000      6.90322940
      1.41790021     90.00000000     60.00000000
      1.41790021    133.00434003     90.00000000
      1.41790021    133.00434003      0.00000000
      1.41790021    133.00434003      0.00000000
      1.41790021    133.00434003      0.00000000
      1.11074688    119.89933230    180.00000000
      1.11074688    119.89933230      0.00000000
      1.11074688    119.89933230      0.00000000
      1.11074688    119.89933230      0.00000000
      1.11074688    119.89933230      0.00000000
      1.11074688    119.89933230      0.00000000


Z-matrix Symbol Section -------
Variables
 CC           1.4179002102171308     
 CCC          133.00434003394275     
 CH           1.1107468769409867     
 CCH          119.89933229555058     
Constants
 xm1          3.6800000000000002     
 ym1          3.6800000000000002     
 zm1          6.9032293999999998     
------------ End of Z-matrix Information

                     ====================================

outcell: Unit cell vectors (Ang):
       11.776283    0.000000    0.000000
        0.000000   11.030875    0.000000
        0.000000    0.000000    6.266317

outcell: Cell vector modules (Ang)   :   11.776283   11.030875    6.266317
outcell: Cell angles (23,13,12) (deg):     90.0000     90.0000     90.0000
outcell: Cell volume (Ang**3)        :    814.0116
New_DM. Step:     3
Re-using DM from previous geometry...
Re-using DM without extrapolation (not allowed)
Density Matrix sparsity pattern changed.
Note: For starting DM, Qtot, Tr[D*S] =         30.00000000         26.75489021
New grid distribution:   1
           1       1:   40    1:   20    1:    6
           2       1:   40    1:   20    7:   12
           3       1:   40    1:   20   13:   18
           4       1:   40    1:   20   19:   24
           5       1:   40   21:   40    1:    6
           6       1:   40   21:   40    7:   12
           7       1:   40   21:   40   13:   18
           8       1:   40   21:   40   19:   24

InitMesh: MESH =    80 x    80 x    48 =      307200
InitMesh: (bp) =    40 x    40 x    24 =       38400
InitMesh: Mesh cutoff (required, used) =   120.000   127.546 Ry
ExtMesh (bp) on 0 =    80 x    64 x    50 =      256000
New grid distribution:   2
           1       1:   19   16:   40    1:    7
           2       1:   21    1:   15    7:   24
           3       1:   19   16:   40    8:   24
           4      22:   40    1:   15    1:    7
           5      22:   40    1:   15    8:   24
           6      20:   40   16:   40    7:   24
           7      20:   40   16:   40    1:    6
           8       1:   21    1:   15    1:    6
New grid distribution:   3
           1      22:   40    1:   16    1:   10
           2      22:   40    1:   16   11:   24
           3      21:   40   17:   40   10:   24
           4       1:   21    1:   16   10:   24
           5       1:   20   17:   40    1:    9
           6      21:   40   17:   40    1:    9
           7       1:   20   17:   40   10:   24
           8       1:   21    1:   16    1:    9
Setting up quadratic distribution...
ExtMesh (bp) on 0 =    59 x    69 x    51 =      207621
PhiOnMesh: Number of (b)points on node 0 =                 3325
PhiOnMesh: nlist on node 0 =                49511

   scf: iscf   Eharris(eV)      E_KS(eV)   FreeEng(eV)    dDmax  Ef(eV)
   scf:    1    -1064.1807     -993.2320     -993.2320  0.94609 -3.8163
   scf:    2    -1589.6093     -862.9093     -862.9093  3.49204-10.6909
   scf:    3    -1022.8529     -987.4480     -987.4480  0.49351 -4.1201
   scf:    4    -1018.6103     -992.3406     -992.3406  0.93265 -4.2204
   scf:    5    -1016.3904     -994.3479     -994.3479  0.48053 -4.6722
   scf:    6    -1016.2933     -994.9204     -994.9204  0.47786 -4.6976
   scf:    7    -1016.0214    -1000.1641    -1000.1641  0.23568 -4.9351
   scf:    8    -1015.9307    -1007.9094    -1007.9094  0.26010 -4.9773
   scf:    9    -1015.8656    -1010.7006    -1010.7006  0.10508 -5.0601
   scf:   10    -1015.8461    -1014.9238    -1014.9238  0.02348 -4.9808
   scf:   11    -1015.8529    -1015.7343    -1015.7343  0.07515 -4.9779
   scf:   12    -1015.8446    -1015.7553    -1015.7553  0.03425 -4.9797
   scf:   13    -1015.8428    -1015.7496    -1015.7496  0.00348 -4.9719
   scf:   14    -1015.8429    -1015.7638    -1015.7638  0.00542 -4.9758
   scf:   15    -1015.8428    -1015.8122    -1015.8122  0.00177 -4.9746
   scf:   16    -1015.8428    -1015.8485    -1015.8485  0.00032 -4.9753
   scf:   17    -1015.8428    -1015.8522    -1015.8522  0.00035 -4.9750
   scf:   18    -1015.8428    -1015.8478    -1015.8478  0.00006 -4.9750

SCF Convergence by dMax criterion
max |DM_out - DM_in|:     0.00006167
SCF cycle converged after   18 iterations

Using DM_out to compute the final energy and forces

siesta: E_KS(eV) =            -1015.8428

zmatrix: Atomic forces (eV/Ang ; eV/deg )
zmatrix: (No information if symbols are used)
molecule    1 (    12 atoms)
     1    0.000000    0.000000    0.000000
     2    0.000000    0.000000    0.000000
     3    0.000000    0.000000    0.000000
     4    0.000000    0.000000    0.000000
     5    0.000000    0.000000    0.000000
     6    0.000000    0.000000    0.000000
     7    0.000000    0.000000    0.000000
     8    0.000000    0.000000    0.000000
     9    0.000000    0.000000    0.000000
    10    0.000000    0.000000    0.000000
    11    0.000000    0.000000    0.000000
    12    0.000000    0.000000    0.000000


Variable forces (eV/Ang ; eV/deg )
 CC          -12.145645976141726     
 CCC        -0.33018972921569151     
 CH          0.83959678526513726     
 CCH         -1.5877957574609088E-002

siesta: Atomic forces (eV/Ang):
----------------------------------------
   Tot   -0.020574    0.016775   -0.001431
----------------------------------------
   Max    4.102933
   Res    1.565386    sqrt( Sum f_i^2 / 3N )
----------------------------------------
   Max    4.102933    constrained

Stress-tensor-Voigt (kbar):       16.43       15.51       -0.09        0.23        0.00       -0.00
(Free)E + p*V (eV/cell)    -1021.2370
Target enthalpy (eV/cell)    -1015.8428
 Power < 0
FIRE: step, dt, npos, alpha, magv, magf, long
FIREdat:     3    0.0750   0    0.1000    0.220561    1.470407    0
FIRE: nvar, x, v, f
           1   2.6741297889100517       -7.0857977855584564E-002 -0.47238651903723045     
           2   2.3057208480079079      -0.20857073368666215       -1.3904715579110811     
           3   2.0993755947803869        4.8982269477309253E-003   3.2654846318206171E-002
           4   2.0918858980571762       -1.0029619239363465E-002  -6.6864128262423106E-002

                     ====================================
                        Begin FIRE opt. move =      3

zmatrix: Z-matrix coordinates: (Ang ; deg )
zmatrix: (Fractional coordinates have been converted to cartesian)
molecule    1 (    12 atoms)
      3.68000000      3.68000000      6.90322940
      1.41508798     90.00000000     60.00000000
      1.41508798    132.10807333     90.00000000
      1.41508798    132.10807333      0.00000000
      1.41508798    132.10807333      0.00000000
      1.41508798    132.10807333      0.00000000
      1.11094128    119.85623318    180.00000000
      1.11094128    119.85623318      0.00000000
      1.11094128    119.85623318      0.00000000
      1.11094128    119.85623318      0.00000000
      1.11094128    119.85623318      0.00000000
      1.11094128    119.85623318      0.00000000


Z-matrix Symbol Section -------
Variables
 CC           1.4150879793060545     
 CCC          132.10807332617830     
 CH           1.1109412791191009     
 CCH          119.85623318161016     
Constants
 xm1          3.6800000000000002     
 ym1          3.6800000000000002     
 zm1          6.9032293999999998     
------------ End of Z-matrix Information

                     ====================================

outcell: Unit cell vectors (Ang):
       11.776283    0.000000    0.000000
        0.000000   11.030875    0.000000
        0.000000    0.000000    6.266317

outcell: Cell vector modules (Ang)   :   11.776283   11.030875    6.266317
outcell: Cell angles (23,13,12) (deg):     90.0000     90.0000     90.0000
outcell: Cell volume (Ang**3)        :    814.0116
 Folding of H and S is implicitly performed
New_DM. Step:     4
Re-using DM from previous geometry...
Re-using DM without extrapolation (not allowed)
Density Matrix sparsity pattern changed.
Note: For starting DM, Qtot, Tr[D*S] =         30.00000000         30.04847797
New grid distribution:   1
           1       1:   40    1:   20    1:    6
           2       1:   40    1:   20    7:   12
           3       1:   40    1:   20   13:   18
           4       1:   40    1:   20   19:   24
           5       1:   40   21:   40    1:    6
           6       1:   40   21:   40    7:   12
           7       1:   40   21:   40   13:   18
           8       1:   40   21:   40   19:   24

InitMesh: MESH =    80 x    80 x    48 =      307200
InitMesh: (bp) =    40 x    40 x    24 =       38400
InitMesh: Mesh cutoff (required, used) =   120.000   127.546 Ry
ExtMesh (bp) on 0 =    80 x    64 x    50 =      256000
New grid distribution:   2
           1       1:   19   16:   40    1:    7
           2       1:   21    1:   15    7:   24
           3       1:   19   16:   40    8:   24
           4      22:   40    1:   15    1:    7
           5      22:   40    1:   15    8:   24
           6      20:   40   16:   40    7:   24
           7      20:   40   16:   40    1:    6
           8       1:   21    1:   15    1:    6
New grid distribution:   3
           1      21:   40   17:   40    1:    9
           2      21:   40    1:   16    1:   10
           3      21:   40   17:   40   10:   24
           4       1:   20    1:   16   10:   24
           5      21:   40    1:   16   11:   24
           6       1:   20   17:   40    1:    9
           7       1:   20   17:   40   10:   24
           8       1:   20    1:   16    1:    9
Setting up quadratic distribution...
ExtMesh (bp) on 0 =    59 x    69 x    51 =      207621
PhiOnMesh: Number of (b)points on node 0 =                 3325
PhiOnMesh: nlist on node 0 =                49777

   scf: iscf   Eharris(eV)      E_KS(eV)   FreeEng(eV)    dDmax  Ef(eV)
   scf:    1    -1016.2061    -1015.9316    -1015.9316  0.04466 -4.8305
   scf:    2    -1016.6593    -1016.1207    -1016.1207  0.32648 -5.0422
   scf:    3    -1016.1899    -1016.0131    -1016.0131  0.02933 -4.9054
   scf:    4    -1016.1930    -1016.1024    -1016.1024  0.04329 -4.8794
   scf:    5    -1016.1878    -1016.1516    -1016.1516  0.00589 -4.8991
   scf:    6    -1016.1877    -1016.1824    -1016.1824  0.00137 -4.8978
   scf:    7    -1016.1877    -1016.1851    -1016.1851  0.00034 -4.8968
   scf:    8    -1016.1877    -1016.1864    -1016.1864  0.00021 -4.8979
   scf:    9    -1016.1877    -1016.1870    -1016.1870  0.00009 -4.8979

SCF Convergence by dMax criterion
max |DM_out - DM_in|:     0.00009048
SCF cycle converged after    9 iterations

Using DM_out to compute the final energy and forces

siesta: E_KS(eV) =            -1016.1877

zmatrix: Atomic forces (eV/Ang ; eV/deg )
zmatrix: (No information if symbols are used)
molecule    1 (    12 atoms)
     1    0.000000    0.000000    0.000000
     2    0.000000    0.000000    0.000000
     3    0.000000    0.000000    0.000000
     4    0.000000    0.000000    0.000000
     5    0.000000    0.000000    0.000000
     6    0.000000    0.000000    0.000000
     7    0.000000    0.000000    0.000000
     8    0.000000    0.000000    0.000000
     9    0.000000    0.000000    0.000000
    10    0.000000    0.000000    0.000000
    11    0.000000    0.000000    0.000000
    12    0.000000    0.000000    0.000000


Variable forces (eV/Ang ; eV/deg )
 CC          -11.910125521160554     
 CCC        -0.36233492205386519     
 CH          0.71056178412403281     
 CCH         -1.1530819972085561E-002

siesta: Atomic forces (eV/Ang):
----------------------------------------
   Tot    0.011707    0.009533   -0.004347
----------------------------------------
   Max    3.991097
   Res    1.521656    sqrt( Sum f_i^2 / 3N )
----------------------------------------
   Max    3.991097    constrained

Stress-tensor-Voigt (kbar):       16.50       15.19       -0.09       -1.06       -0.00        0.01
(Free)E + p*V (eV/cell)    -1021.5404
Target enthalpy (eV/cell)    -1016.1877
 Power > 0
FIRE: step, dt, npos, alpha, magv, magf, long
FIREdat:     4    0.0750   1    0.1000    0.340175    1.595583    0
FIRE: nvar, x, v, f
           1   2.6675638052038724      -0.10491743594236794      -0.46322630737708753     
           2   2.2857689993431305      -0.32324361560183767       -1.5258391130171027     
           3   2.0998126036208058        6.8631429850515811E-003   2.7636225230225589E-002
           4   2.0910219881429954       -1.3339715262876252E-002  -4.8557770856962425E-002

                     ====================================
                        Begin FIRE opt. move =      4

zmatrix: Z-matrix coordinates: (Ang ; deg )
zmatrix: (Fractional coordinates have been converted to cartesian)
molecule    1 (    12 atoms)
      3.68000000      3.68000000      6.90322940
      1.41161341     90.00000000     60.00000000
      1.41161341    130.96491660     90.00000000
      1.41161341    130.96491660      0.00000000
      1.41161341    130.96491660      0.00000000
      1.41161341    130.96491660      0.00000000
      1.11117253    119.80673479    180.00000000
      1.11117253    119.80673479      0.00000000
      1.11117253    119.80673479      0.00000000
      1.11117253    119.80673479      0.00000000
      1.11117253    119.80673479      0.00000000
      1.11117253    119.80673479      0.00000000


Z-matrix Symbol Section -------
Variables
 CC           1.4116134117463697     
 CCC          130.96491660420281     
 CH           1.1111725341462473     
 CCH          119.80673478964810     
Constants
 xm1          3.6800000000000002     
 ym1          3.6800000000000002     
 zm1          6.9032293999999998     
------------ End of Z-matrix Information

                     ====================================

outcell: Unit cell vectors (Ang):
       11.776283    0.000000    0.000000
        0.000000   11.030875    0.000000
        0.000000    0.000000    6.266317

outcell: Cell vector modules (Ang)   :   11.776283   11.030875    6.266317
outcell: Cell angles (23,13,12) (deg):     90.0000     90.0000     90.0000
outcell: Cell volume (Ang**3)        :    814.0116
 Folding of H and S is implicitly performed
New_DM. Step:     5
Re-using DM from previous geometry...
Re-using DM without extrapolation (not allowed)
Density Matrix sparsity pattern changed.
Note: For starting DM, Qtot, Tr[D*S] =         30.00000000         30.06831959
New grid distribution:   1
           1       1:   40    1:   20    1:    6
           2       1:   40    1:   20    7:   12
           3       1:   40    1:   20   13:   18
           4       1:   40    1:   20   19:   24
           5       1:   40   21:   40    1:    6
           6       1:   40   21:   40    7:   12
           7       1:   40   21:   40   13:   18
           8       1:   40   21:   40   19:   24

InitMesh: MESH =    80 x    80 x    48 =      307200
InitMesh: (bp) =    40 x    40 x    24 =       38400
InitMesh: Mesh cutoff (required, used) =   120.000   127.546 Ry
ExtMesh (bp) on 0 =    80 x    64 x    50 =      256000
New grid distribution:   2
           1       1:   19   16:   40    1:    7
           2       1:   20    1:   15    7:   24
           3       1:   19   16:   40    8:   24
           4      21:   40    1:   15    1:    7
           5      21:   40    1:   15    8:   24
           6      20:   40   16:   40    7:   24
           7      20:   40   16:   40    1:    6
           8       1:   20    1:   15    1:    6
New grid distribution:   3
           1      21:   40    1:   16    1:   10
           2      21:   40    1:   16   11:   24
           3       1:   19   17:   40   10:   24
           4       1:   20    1:   16   10:   24
           5      20:   40   17:   40    1:    9
           6       1:   19   17:   40    1:    9
           7      20:   40   17:   40   10:   24
           8       1:   20    1:   16    1:    9
Setting up quadratic distribution...
ExtMesh (bp) on 0 =    59 x    69 x    51 =      207621
PhiOnMesh: Number of (b)points on node 0 =                 3325
PhiOnMesh: nlist on node 0 =                50115

   scf: iscf   Eharris(eV)      E_KS(eV)   FreeEng(eV)    dDmax  Ef(eV)
   scf:    1    -1016.7201    -1016.2877    -1016.2877  0.06161 -4.6991
   scf:    2    -1017.3900    -1016.5362    -1016.5362  0.27454 -5.0535
   scf:    3    -1016.6848    -1016.4141    -1016.4141  0.05462 -4.7789
   scf:    4    -1016.6888    -1016.5194    -1016.5194  0.05942 -4.7487
   scf:    5    -1016.6766    -1016.6110    -1016.6110  0.00533 -4.7769
   scf:    6    -1016.6765    -1016.6618    -1016.6618  0.00155 -4.7723
   scf:    7    -1016.6765    -1016.6709    -1016.6709  0.00058 -4.7748
   scf:    8    -1016.6765    -1016.6731    -1016.6731  0.00022 -4.7754
   scf:    9    -1016.6765    -1016.6750    -1016.6750  0.00012 -4.7759
   scf:   10    -1016.6765    -1016.6760    -1016.6760  0.00003 -4.7757

SCF Convergence by dMax criterion
max |DM_out - DM_in|:     0.00003076
SCF cycle converged after   10 iterations

Using DM_out to compute the final energy and forces

siesta: E_KS(eV) =            -1016.6765

zmatrix: Atomic forces (eV/Ang ; eV/deg )
zmatrix: (No information if symbols are used)
molecule    1 (    12 atoms)
     1    0.000000    0.000000    0.000000
     2    0.000000    0.000000    0.000000
     3    0.000000    0.000000    0.000000
     4    0.000000    0.000000    0.000000
     5    0.000000    0.000000    0.000000
     6    0.000000    0.000000    0.000000
     7    0.000000    0.000000    0.000000
     8    0.000000    0.000000    0.000000
     9    0.000000    0.000000    0.000000
    10    0.000000    0.000000    0.000000
    11    0.000000    0.000000    0.000000
    12    0.000000    0.000000    0.000000


Variable forces (eV/Ang ; eV/deg )
 CC          -11.715725828095513     
 CCC        -0.41621734089454110     
 CH          0.52795967673581967     
 CCH         -5.9937616638383031E-003

siesta: Atomic forces (eV/Ang):
----------------------------------------
   Tot    0.016589   -0.013006   -0.000943
----------------------------------------
   Max    3.878354
   Res    1.462745    sqrt( Sum f_i^2 / 3N )
----------------------------------------
   Max    3.878354    constrained

Stress-tensor-Voigt (kbar):       16.50       14.97       -0.09       -2.88        0.00        0.00
(Free)E + p*V (eV/cell)    -1021.9927
Target enthalpy (eV/cell)    -1016.6765
 Power > 0
FIRE: step, dt, npos, alpha, magv, magf, long
FIREdat:     5    0.0750   2    0.1000    0.475790    1.811299    0
FIRE: nvar, x, v, f
           1   2.6585584895995522      -0.13715832818125490      -0.45566542551956507     
           2   2.2565516230876561      -0.45529295168307182       -1.7527449318242965     
           3   2.1003625417221854        8.1025402413885221E-003   2.0534192613152542E-002
           4   2.0900150158159438       -1.4372816586914939E-002  -2.5240503810525245E-002

outcoor: Final (unrelaxed) atomic coordinates (Ang):        
    3.68000000    3.68000000    6.90322940   2       1  C
    4.38580671    4.90249307    6.90322940   2       2  C
    5.77164947    5.17099308    6.90322940   2       3  C
    6.88295088    4.30055549    6.90322940   2       4  C
    6.95423937    2.89074331    6.90322940   2       5  C
    5.93641097    1.91264425    6.90322940   2       6  C
    2.56883379    3.68374810    6.90322940   1       7  H
    3.82697765    5.86291719    6.90322940   1       8  H
    6.13050990    6.22262210    6.90322940   1       9  H
    7.91231543    4.71902057    6.90322940   1      10  H
    7.94507511    2.38780302    6.90322940   1      11  H
    6.20622386    0.83472709    6.90322940   1      12  H

zmatrix: Z-matrix coordinates: (Ang ; deg )
zmatrix: (Fractional coordinates have been converted to cartesian)
molecule    1 (    12 atoms)
      3.68000000      3.68000000      6.90322940
      1.40684801     90.00000000     60.00000000
      1.40684801    129.29088426     90.00000000
      1.40684801    129.29088426      0.00000000
      1.40684801    129.29088426      0.00000000
      1.40684801    129.29088426      0.00000000
      1.11146355    119.74903953    180.00000000
      1.11146355    119.74903953      0.00000000
      1.11146355    119.74903953      0.00000000
      1.11146355    119.74903953      0.00000000
      1.11146355    119.74903953      0.00000000
      1.11146355    119.74903953      0.00000000


Z-matrix Symbol Section -------
Variables
 CC           1.4068480058508224     
 CCC          129.29088425631838     
 CH           1.1114635487409210     
 CCH          119.74903952522158     
Constants
 xm1          3.6800000000000002     
 ym1          3.6800000000000002     
 zm1          6.9032293999999998     
------------ End of Z-matrix Information


siesta: Program's energy decomposition (eV):
siesta: Ebs     =      -351.426007
siesta: Eions   =      1613.953835
siesta: Ena     =       344.977158
siesta: Ekin    =       714.724867
siesta: Enl     =      -112.824437
siesta: DEna    =       -27.038931
siesta: DUscf   =         3.349571
siesta: DUext   =         0.000000
siesta: Exc     =      -325.910862
siesta: eta*DQ  =         0.000000
siesta: Emadel  =         0.000000
siesta: Emeta   =         0.000000
siesta: Emolmec =         0.000000
siesta: Ekinion =         0.000000
siesta: Eharris =     -1016.676469
siesta: Etot    =     -1016.676469
siesta: FreeEng =     -1016.676469

siesta: Final energy (eV):
siesta:  Band Struct. =    -351.426007
siesta:       Kinetic =     714.724867
siesta:       Hartree =    1611.002182
siesta:    Ext. field =       0.000000
siesta:   Exch.-corr. =    -325.910862
siesta:  Ion-electron =   -3862.233057
siesta:       Ion-ion =     845.740400
siesta:       Ekinion =       0.000000
siesta:         Total =   -1016.676469

siesta: Atomic forces (eV/Ang):
siesta:      1    3.387695    2.269877    0.000461
siesta:      2   -1.499660   -2.647117    0.000134
siesta:      3    3.051237   -1.213116    0.000157
siesta:      4   -0.959684    1.149175   -0.000177
siesta:      5   -3.128768   -3.024080    0.000162
siesta:      6    1.165108    3.878354    0.000635
siesta:      7   -0.041904   -0.830487   -0.000238
siesta:      8   -0.705861   -0.091292   -0.000132
siesta:      9   -0.489971    0.095191   -0.000124
siesta:     10   -0.268049    0.539084   -0.000639
siesta:     11    0.367698    0.141123   -0.000854
siesta:     12   -0.861251   -0.279718   -0.000328
siesta: ----------------------------------------
siesta:    Tot    0.016589   -0.013006   -0.000943

siesta: Stress tensor (static) (eV/Ang**3):
siesta:     0.010301   -0.001799    0.000001
siesta:    -0.001799    0.009346    0.000001
siesta:     0.000001    0.000001   -0.000054

siesta: Cell volume =        814.011582 Ang**3

siesta: Pressure (static):
siesta:                Solid            Molecule  Units
siesta:          -0.00007113          0.00000015  Ry/Bohr**3
siesta:          -0.00653090          0.00001366  eV/Ang**3
siesta:         -10.46376491          0.02189175  kBar
(Free)E+ p_basis*V_orbitals  =       -1012.673276
(Free)Eharris+ p_basis*V_orbitals  =       -1012.673276

siesta: Electric dipole (a.u.)  =    0.237159    0.000000   -0.000074
siesta: Electric dipole (Debye) =    0.602797    0.000000   -0.000189
>> End of run:   2-JUL-2017  11:58:55
Job completed
