Siesta Version  : siesta-4.0--578
Architecture    : x86_64-linux-n-62-25-35
Compiler version: GNU Fortran (GCC) 7.3.0
Compiler flags  : mpif90 -m64 -fPIC -O3 -march=native -ftree-vectorize -fexpensive-optimizationns -funroll-loops -fprefetch-loop-arrays -fno-second-underscore
PP flags        : -I/zdata/groups/common/nicpa/2018-feb/generic/build-tools/1.0/include -I/zdatta/groups/common/nicpa/2018-feb/generic/gcc/7.3.0/include -I/zdata/groups/common/nicpa/2018-feb/generic/gcc/7.3.0/include -I/zdata/groups/common/nicpa/2018-feb/XeonE5-2660v3/zlib/1.2.11/gnu-7.3.0/include -I/zdata/groups/common/nicpa/2018-feb/generic/numactl/2.0.11/include -I/zdata/groups/common/nicpa/2018-feb/XeonE5-2660v3/libxml2/2.9.7/gnu-7.3.0/include -I/zdata/groups/common/nicpa/2018-feb/XeonE5-2660v3/hwloc/1.11.9/gnu-7.3.0/include -I/zdata/groups/common/nicpa/2018-feb/XeonE5-2660v3/openmpi/3.0.0/gnu-7.3.0/include -I/zdata/groups/common/nicpa/2018-feb/XeonE5-2660v3/szip/2.1.1/gnu-7.3.0/include -I/zdata/groups/common/nicpa/2018-feb/XeonE5-2660v3/hdf5-serial/1.8.18/gnu-7.3.0/include -I/zdata/groups/common/nicpa/2018-feb/XeonE5-2660v3/netcdf-serial/4.6.0/gnu-7.3.0/include -I/zdata/groups/common/nicpa/2018-feb/XeonE5-2660v3/scalapack/204/gnu-7.3.0/include -I/zdata/groups/common/nicpa/2018-feb/XeonE5-2660v3/openblas/0.2.20/gnu-7.3.0/include -I/zdata/groups/common/nicpa/2018-feb/XeonE5-2660v3/elpa/2017.05.003/gnu-7.3.0/include -DSIESTA__ELPA -DMPI -D1 -DFC_HAVE_ABORT -DCDF -DSIESTA__MRRR 
PARALLEL version
NetCDF support

* Running on    8 nodes in parallel
>> Start of run:  10-JUN-2018  21:06:26

                           ***********************       
                           *  WELCOME TO SIESTA  *       
                           ***********************       

reinit: Reading from standard input
************************** Dump of input data file ****************************
SystemName benzene with FIRE optimizer (Reduced set of variables)
SystemLabel fire_benzene
NumberOfSpecies 2
NumberOfAtoms   12
%block ChemicalSpeciesLabel
1    1 H
2    6 C
%endblock ChemicalSpeciesLabel
%block PS.Lmax
  C 2
%endblock PS.Lmax
AtomicCoordinatesFormat NotScaledCartesianAng
ZM.ForceTolLength 0.04 eV/Ang
ZM.ForceTolAngle 0.0001 eV/deg
ZM.MaxDisplLength 0.1 Ang
ZM.MaxDisplAngle 20.0 deg
%block Zmatrix
molecule
      2 0 0 0 xm1 ym1 zm1 0 0 0
      2 1 0 0 CC 90.0 60.0 0 0 0
      2 2 1 0 CC CCC 90.0 0 0 0
      2 3 2 1 CC CCC 0.0 0 0 0
      2 4 3 2 CC CCC 0.0 0 0 0
      2 5 4 3 CC CCC 0.0 0 0 0
      1 1 2 3 CH CCH 180.0 0 0 0
      1 2 1 7 CH CCH 0.0 0 0 0
      1 3 2 8 CH CCH 0.0 0 0 0
      1 4 3 9 CH CCH 0.0 0 0 0
      1 5 4 10 CH CCH 0.0 0 0 0
      1 6 5 11 CH CCH 0.0 0 0 0
constants
        ym1 3.68
        xm1 3.68
        zm1 6.9032294
variables
        CC 1.417
        CH 1.112
        CCH 120.0
        CCC 120.0
%endblock Zmatrix
ZM.UnitsLength Ang
ZM.UnitsAngle deg
MD.TypeOfRun FIRE
MD.NumCGSteps  4
MD.FIRE.TimeStep      0.3 fs
MD.FIRE.Mass           1.0
MD.FIRE.Debug          T
MD.FIRE.Nmin           5
MeshCutoff 120 Ry
PAO.EnergyShift 0.01 Ry
DM.NumberPulay 5
DM.MixingWeight 0.3
************************** End of input data file *****************************

reinit: -----------------------------------------------------------------------
reinit: System Name: benzene with FIRE optimizer (Reduced set of variables
reinit: -----------------------------------------------------------------------
reinit: System Label: fire_benzene                                                
reinit: -----------------------------------------------------------------------

initatom: Reading input for the pseudopotentials and atomic orbitals ----------
 Species number:            1  Label: H Atomic number:           1
 Species number:            2  Label: C Atomic number:           6
Ground state valence configuration:   1s01
Reading pseudopotential information in formatted form from H.psf

Valence configuration for pseudopotential generation:
1s( 1.00) rc: 1.25
2p( 0.00) rc: 1.25
3d( 0.00) rc: 1.25
4f( 0.00) rc: 1.25
Ground state valence configuration:   2s02  2p02
Reading pseudopotential information in formatted form from C.psf

Valence configuration for pseudopotential generation:
2s( 2.00) rc: 1.49
2p( 2.00) rc: 1.52
3d( 0.00) rc: 1.58
relmxkb: Read Max KB Ang. Momentum=    2 for species C
For H, standard SIESTA heuristics set lmxkb to 2
 (one more than the basis l, including polarization orbitals).
Use PS.lmax or PS.KBprojectors blocks to override.

<basis_specs>
===============================================================================
H                    Z=   1    Mass=  1.0100        Charge= 0.17977+309
Lmxo=0 Lmxkb= 2    BasisType=split      Semic=F
L=0  Nsemic=0  Cnfigmx=1
          n=1  nzeta=2  polorb=1
            splnorm:   0.15000    
               vcte:    0.0000    
               rinn:    0.0000    
               qcoe:    0.0000    
               qyuk:    0.0000    
               qwid:   0.10000E-01
                rcs:    0.0000      0.0000    
            lambdas:    1.0000      1.0000    
-------------------------------------------------------------------------------
L=0  Nkbl=1  erefs: 0.17977+309
L=1  Nkbl=1  erefs: 0.17977+309
L=2  Nkbl=1  erefs: 0.17977+309
===============================================================================
</basis_specs>

atom: Called for H                     (Z =   1)

read_vps: Pseudopotential generation method:
read_vps: ATM3      Troullier-Martins                       
Total valence charge:    1.00000

xc_check: Exchange-correlation functional:
xc_check: Ceperley-Alder
V l=0 = -2*Zval/r beyond r=  1.2343
V l=1 = -2*Zval/r beyond r=  1.2189
V l=2 = -2*Zval/r beyond r=  1.2189
All V_l potentials equal beyond r=  1.2343
This should be close to max(r_c) in ps generation
All pots = -2*Zval/r beyond r=  1.2343

VLOCAL1: 99.0% of the norm of Vloc inside     28.493 Ry
VLOCAL1: 99.9% of the norm of Vloc inside     64.935 Ry
atom: Maximum radius for 4*pi*r*r*local-pseudopot. charge    1.45251
atom: Maximum radius for r*vlocal+2*Zval:    1.21892
GHOST: No ghost state for L =  0
GHOST: No ghost state for L =  1
GHOST: No ghost state for L =  2

KBgen: Kleinman-Bylander projectors: 
   l= 0   rc=  1.364359   el= -0.467325   Ekb= -2.005361   kbcos= -0.336422
   l= 1   rc=  1.434438   el=  0.001430   Ekb= -0.501708   kbcos= -0.021697
   l= 2   rc=  1.470814   el=  0.002365   Ekb= -0.190555   kbcos= -0.002281

KBgen: Total number of  Kleinman-Bylander projectors:    9
atom: -------------------------------------------------------------------------

atom: SANKEY-TYPE ORBITALS:
atom: Selected multiple-zeta basis: split     

SPLIT: Orbitals with angular momentum L= 0

SPLIT: Basis orbitals for state 1s

SPLIT: PAO cut-off radius determined from an
SPLIT: energy shift=  0.010000 Ry

   izeta = 1
                 lambda =    1.000000
                     rc =    5.336316
                 energy =   -0.457946
                kinetic =    0.886710
    potential(screened) =   -1.344656
       potential(ionic) =   -1.876618

   izeta = 2
                 rmatch =    4.002347
              splitnorm =    0.150000
                 energy =   -0.355904
                kinetic =    1.439488
    potential(screened) =   -1.795392
       potential(ionic) =   -2.364690

POLgen: Perturbative polarization orbital with L=  1

POLgen: Polarization orbital for state 1s

   izeta = 1
                     rc =    5.336316
                 energy =    0.616245
                kinetic =    1.262150
    potential(screened) =   -0.645906
       potential(ionic) =   -1.116519
atom: Total number of Sankey-type orbitals:  5

atm_pop: Valence configuration (for local Pseudopot. screening):
 1s( 1.00)                                                            
Vna: chval, zval:    1.00000   1.00000

Vna:  Cut-off radius for the neutral-atom potential:   5.336316

atom: _________________________________________________________________________

<basis_specs>
===============================================================================
C                    Z=   6    Mass=  12.010        Charge= 0.17977+309
Lmxo=1 Lmxkb= 2    BasisType=split      Semic=F
L=0  Nsemic=0  Cnfigmx=2
          n=1  nzeta=2  polorb=0
            splnorm:   0.15000    
               vcte:    0.0000    
               rinn:    0.0000    
               qcoe:    0.0000    
               qyuk:    0.0000    
               qwid:   0.10000E-01
                rcs:    0.0000      0.0000    
            lambdas:    1.0000      1.0000    
L=1  Nsemic=0  Cnfigmx=2
          n=1  nzeta=2  polorb=1
            splnorm:   0.15000    
               vcte:    0.0000    
               rinn:    0.0000    
               qcoe:    0.0000    
               qyuk:    0.0000    
               qwid:   0.10000E-01
                rcs:    0.0000      0.0000    
            lambdas:    1.0000      1.0000    
-------------------------------------------------------------------------------
L=0  Nkbl=1  erefs: 0.17977+309
L=1  Nkbl=1  erefs: 0.17977+309
L=2  Nkbl=1  erefs: 0.17977+309
===============================================================================
</basis_specs>

atom: Called for C                     (Z =   6)

read_vps: Pseudopotential generation method:
read_vps: ATM3      Troullier-Martins                       
Total valence charge:    4.00000

xc_check: Exchange-correlation functional:
xc_check: Ceperley-Alder
V l=0 = -2*Zval/r beyond r=  1.4666
V l=1 = -2*Zval/r beyond r=  1.5038
V l=2 = -2*Zval/r beyond r=  1.5612
All V_l potentials equal beyond r=  1.5612
This should be close to max(r_c) in ps generation
All pots = -2*Zval/r beyond r=  1.5612

VLOCAL1: 99.0% of the norm of Vloc inside     17.809 Ry
VLOCAL1: 99.9% of the norm of Vloc inside     40.586 Ry
atom: Maximum radius for 4*pi*r*r*local-pseudopot. charge    1.88329
atom: Maximum radius for r*vlocal+2*Zval:    1.62091
GHOST: No ghost state for L =  0
GHOST: No ghost state for L =  1
GHOST: No ghost state for L =  2

KBgen: Kleinman-Bylander projectors: 
   l= 0   rc=  1.747182   el= -1.001947   Ekb=  5.181700   kbcos=  0.300603
   l= 1   rc=  1.747182   el= -0.398598   Ekb= -4.328763   kbcos= -0.367074
   l= 2   rc=  1.955272   el=  0.002326   Ekb= -1.016175   kbcos= -0.009979

KBgen: Total number of  Kleinman-Bylander projectors:    9
atom: -------------------------------------------------------------------------

atom: SANKEY-TYPE ORBITALS:
atom: Selected multiple-zeta basis: split     

SPLIT: Orbitals with angular momentum L= 0

SPLIT: Basis orbitals for state 2s

SPLIT: PAO cut-off radius determined from an
SPLIT: energy shift=  0.010000 Ry

   izeta = 1
                 lambda =    1.000000
                     rc =    4.518360
                 energy =   -0.992087
                kinetic =    0.856755
    potential(screened) =   -1.848843
       potential(ionic) =   -5.436865

   izeta = 2
                 rmatch =    3.475094
              splitnorm =    0.150000
                 energy =   -0.853594
                kinetic =    1.308346
    potential(screened) =   -2.161940
       potential(ionic) =   -6.002045

SPLIT: Orbitals with angular momentum L= 1

SPLIT: Basis orbitals for state 2p

SPLIT: PAO cut-off radius determined from an
SPLIT: energy shift=  0.010000 Ry

   izeta = 1
                 lambda =    1.000000
                     rc =    5.382558
                 energy =   -0.388318
                kinetic =    2.456485
    potential(screened) =   -2.844804
       potential(ionic) =   -6.312273

   izeta = 2
                 rmatch =    3.607901
              splitnorm =    0.150000
                 energy =   -0.250655
                kinetic =    3.636791
    potential(screened) =   -3.887446
       potential(ionic) =   -7.736789

POLgen: Perturbative polarization orbital with L=  2

POLgen: Polarization orbital for state 2p

   izeta = 1
                     rc =    5.382558
                 energy =    1.148490
                kinetic =    2.389078
    potential(screened) =   -1.240587
       potential(ionic) =   -4.090578
atom: Total number of Sankey-type orbitals: 13

atm_pop: Valence configuration (for local Pseudopot. screening):
 2s( 2.00)                                                            
 2p( 2.00)                                                            
Vna: chval, zval:    4.00000   4.00000

Vna:  Cut-off radius for the neutral-atom potential:   5.382558

atom: _________________________________________________________________________

prinput: Basis input ----------------------------------------------------------

PAO.BasisType split     

%block ChemicalSpeciesLabel
    1    1 H                       # Species index, atomic number, species label
    2    6 C                       # Species index, atomic number, species label
%endblock ChemicalSpeciesLabel

%block PAO.Basis                 # Define Basis set
H                     1                    # Species label, number of l-shells
 n=1   0   2 P   1                   # n, l, Nzeta, Polarization, NzetaPol
   5.336      4.002   
   1.000      1.000   
C                     2                    # Species label, number of l-shells
 n=2   0   2                         # n, l, Nzeta 
   4.518      3.475   
   1.000      1.000   
 n=2   1   2 P   1                   # n, l, Nzeta, Polarization, NzetaPol
   5.383      3.608   
   1.000      1.000   
%endblock PAO.Basis

prinput: ----------------------------------------------------------------------

Dumping basis to NetCDF file H.ion.nc
Dumping basis to NetCDF file C.ion.nc
coor:   Atomic-coordinates input format  =     Cartesian coordinates
coor:                                          (in Angstroms)
read_Zmatrix: Length units: Ang       
read_Zmatrix: Angle  units: deg       
read_Zmatrix: Force tolerances:
read_Zmatrix:    for lengths =     0.001556 Ry/Bohr
read_Zmatrix:    for angles  =     0.000421 Ry/rad

read_Zmatrix: Maximum displacements:
read_Zmatrix:    for lengths =     0.188973 Bohr
read_Zmatrix:    for angles  =     0.349066 rad
%block Zmatrix
molecule
      2 0 0 0 xm1 ym1 zm1 0 0 0
      2 1 0 0 CC 90.0 60.0 0 0 0
      2 2 1 0 CC CCC 90.0 0 0 0
      2 3 2 1 CC CCC 0.0 0 0 0
      2 4 3 2 CC CCC 0.0 0 0 0
      2 5 4 3 CC CCC 0.0 0 0 0
      1 1 2 3 CH CCH 180.0 0 0 0
      1 2 1 7 CH CCH 0.0 0 0 0
      1 3 2 8 CH CCH 0.0 0 0 0
      1 4 3 9 CH CCH 0.0 0 0 0
      1 5 4 10 CH CCH 0.0 0 0 0
      1 6 5 11 CH CCH 0.0 0 0 0
constants
        ym1 3.68
        xm1 3.68
        zm1 6.9032294
variables
        CC 1.417
        CH 1.112
        CCH 120.0
        CCC 120.0
%endblock Zmatrix
 nZmol:            1
 nSpecies:            2           2           2           2           2           2           1           1           1           1           1           1

zmatrix: Z-matrix coordinates: (Ang ; deg )
zmatrix: (Fractional coordinates have been converted to cartesian)
molecule    1 (    12 atoms)
      3.68000000      3.68000000      6.90322940
      1.41700000     90.00000000     60.00000000
      1.41700000    120.00000000     90.00000000
      1.41700000    120.00000000      0.00000000
      1.41700000    120.00000000      0.00000000
      1.41700000    120.00000000      0.00000000
      1.11200000    120.00000000    180.00000000
      1.11200000    120.00000000      0.00000000
      1.11200000    120.00000000      0.00000000
      1.11200000    120.00000000      0.00000000
      1.11200000    120.00000000      0.00000000
      1.11200000    120.00000000      0.00000000


Z-matrix Symbol Section -------
Variables
 CC           1.4170000000000000     
 CCC          120.00000000000017     
 CH           1.1120000000000001     
 CCH          120.00000000000017     
Constants
 xm1          3.6800000000000002     
 ym1          3.6800000000000002     
 zm1          6.9032293999999998     
------------ End of Z-matrix Information


siesta: Atomic coordinates (Bohr) and species
siesta:      6.95419   6.95419  13.04522  2        1
siesta:      8.29307   9.27319  13.04522  2        2
siesta:     10.97081   9.27319  13.04522  2        3
siesta:     12.30968   6.95419  13.04522  2        4
siesta:     10.97081   4.63520  13.04522  2        5
siesta:      8.29307   4.63520  13.04522  2        6
siesta:      4.85282   6.95419  13.04522  1        7
siesta:      7.24238  11.09303  13.04522  1        8
siesta:     12.02150  11.09303  13.04522  1        9
siesta:     14.41106   6.95419  13.04522  1       10
siesta:     12.02150   2.81536  13.04522  1       11
siesta:      7.24238   2.81536  13.04522  1       12

siesta: Automatic unit cell vectors (Ang):
siesta:   11.776283    0.000000    0.000000
siesta:    0.000000   11.030875    0.000000
siesta:    0.000000    0.000000    6.266317

siesta: System type = molecule  

initatomlists: Number of atoms, orbitals, and projectors:     12   108   108

siesta: ******************** Simulation parameters ****************************
siesta:
siesta: The following are some of the parameters of the simulation.
siesta: A complete list of the parameters used, including default values,
siesta: can be found in file out.fdf
siesta:
redata: Non-Collinear-spin run           =     F
redata: SpinPolarized (Up/Down) run      =     F
redata: Number of spin components        =     1
redata: Long output                      =     F
redata: Number of Atomic Species         =        2
redata: Charge density info will appear in .RHO file
redata: Write Mulliken Pop.              =     NO
redata: Matel table size (NRTAB)         =     1024
redata: Mesh Cutoff                      =   120.0000 Ry
redata: Net charge of the system         =     0.0000 |e|
redata: Min. number of SCF Iter          =        0
redata: Max. number of SCF Iter          =       50
redata: Mix DM or H after convergence    =     F
redata: Recompute H after scf cycle      =     F
redata: Performing Pulay mixing using    =     5 iterations
redata: Mix DM in first SCF step ?       =     F
redata: Write Pulay info on disk?        =     F
redata: Discard 1st Pulay DM after  kick =     F
redata: New DM Mixing Weight             =     0.3000
redata: New DM Occupancy tolerance       = 0.000000000001
redata: No kicks to SCF
redata: DM Mixing Weight for Kicks       =     0.5000
redata: DM Tolerance for SCF             =     0.000100
redata: Require (free) Energy convergence in SCF =     F
redata: DM (free)Energy tolerance for SCF =     0.000010 eV
redata: Require Harris convergence for SCF =     F
redata: DM Harris energy tolerance for SCF =     0.000010 eV
redata: Using Saved Data (generic)   =     F
redata: Use continuation files for DM    =     F
redata: Neglect nonoverlap interactions  =     F
redata: Method of Calculation            =     Diagonalization
redata: Divide and Conquer               =     T
redata: Electronic Temperature           =     0.0019  Ry
redata: Fix the spin of the system       =     F
redata: Dynamics option                  =     FIRE coord. optimization
redata: Variable cell                    =     F
redata: Use continuation files for CG    =     F
redata: Max atomic displ per move        =     0.2000  Bohr
redata: Maximum number of CG moves       =        4
redata: Force tolerance                  =     0.0016  Ry/Bohr
redata: ***********************************************************************
Total number of electrons:    30.000000
Total ionic charge:    30.000000

* ProcessorY, Blocksize:    2  14


* Orbital distribution balance (max,min):    14    10

 Kpoints in:            1 . Kpoints trimmed:            1

siesta: k-grid: Number of k-points =     1
siesta: k-grid: Cutoff (effective) =     3.133 Ang
siesta: k-grid: Supercell and displacements
siesta: k-grid:    1   0   0      0.000
siesta: k-grid:    0   1   0      0.000
siesta: k-grid:    0   0   1      0.000

                     ====================================
                        Begin FIRE opt. move =      0

zmatrix: Z-matrix coordinates: (Ang ; deg )
zmatrix: (Fractional coordinates have been converted to cartesian)
molecule    1 (    12 atoms)
      3.68000000      3.68000000      6.90322940
      1.41700000     90.00000000     60.00000000
      1.41700000    120.00000000     90.00000000
      1.41700000    120.00000000      0.00000000
      1.41700000    120.00000000      0.00000000
      1.41700000    120.00000000      0.00000000
      1.11200000    120.00000000    180.00000000
      1.11200000    120.00000000      0.00000000
      1.11200000    120.00000000      0.00000000
      1.11200000    120.00000000      0.00000000
      1.11200000    120.00000000      0.00000000
      1.11200000    120.00000000      0.00000000


Z-matrix Symbol Section -------
Variables
 CC           1.4170000000000000     
 CCC          120.00000000000017     
 CH           1.1120000000000001     
 CCH          120.00000000000017     
Constants
 xm1          3.6800000000000002     
 ym1          3.6800000000000002     
 zm1          6.9032293999999998     
------------ End of Z-matrix Information

                     ====================================

outcell: Unit cell vectors (Ang):
       11.776283    0.000000    0.000000
        0.000000   11.030875    0.000000
        0.000000    0.000000    6.266317

outcell: Cell vector modules (Ang)   :   11.776283   11.030875    6.266317
outcell: Cell angles (23,13,12) (deg):     90.0000     90.0000     90.0000
outcell: Cell volume (Ang**3)        :    814.0116
New_DM. Step:     1
Initializing Density Matrix...
New grid distribution:   1
           1       1:   40    1:   20    1:    6
           2       1:   40    1:   20    7:   12
           3       1:   40    1:   20   13:   18
           4       1:   40    1:   20   19:   24
           5       1:   40   21:   40    1:    6
           6       1:   40   21:   40    7:   12
           7       1:   40   21:   40   13:   18
           8       1:   40   21:   40   19:   24

InitMesh: MESH =    80 x    80 x    48 =      307200
InitMesh: (bp) =    40 x    40 x    24 =       38400
InitMesh: Mesh cutoff (required, used) =   120.000   127.546 Ry
ExtMesh (bp) on 0 =    80 x    64 x    50 =      256000
New grid distribution:   2
           1      19:   40   15:   40    1:    6
           2       1:   18   15:   40    7:   24
           3      19:   40    1:   14    7:   24
           4      19:   40    1:   14    1:    6
           5       1:   18    1:   14    7:   24
           6      19:   40   15:   40    7:   24
           7       1:   18   15:   40    1:    6
           8       1:   18    1:   14    1:    6
New grid distribution:   3
           1      19:   40    1:   15    1:   10
           2       1:   18    1:   15   11:   24
           3       1:   18   16:   40   10:   24
           4      19:   40    1:   15   11:   24
           5      19:   40   16:   40    1:    9
           6       1:   18   16:   40    1:    9
           7      19:   40   16:   40   10:   24
           8       1:   18    1:   15    1:   10
Setting up quadratic distribution...
ExtMesh (bp) on 0 =    62 x    70 x    50 =      217000
PhiOnMesh: Number of (b)points on node 0 =                 3432
PhiOnMesh: nlist on node 0 =                41836

stepf: Fermi-Dirac step function

siesta: Program's energy decomposition (eV):
siesta: Ebs     =      -450.456686
siesta: Eions   =      1613.953835
siesta: Ena     =       340.735980
siesta: Ekin    =       613.333482
siesta: Enl     =       -32.517669
siesta: DEna    =         0.000002
siesta: DUscf   =         0.000000
siesta: DUext   =         0.000000
siesta: Exc     =      -317.548230
siesta: eta*DQ  =         0.000000
siesta: Emadel  =         0.000000
siesta: Emeta   =         0.000000
siesta: Emolmec =         0.000000
siesta: Ekinion =         0.000000
siesta: Eharris =     -1027.079314
siesta: Etot    =     -1009.950271
siesta: FreeEng =     -1009.950271

   scf: iscf   Eharris(eV)      E_KS(eV)   FreeEng(eV)    dDmax  Ef(eV)
   scf:    1    -1027.0793    -1009.9503    -1009.9503  1.95531 -7.7208
timer: Routine,Calls,Time,% =    IterSCF     1       0.076   5.62
   scf:    2    -1026.4444    -1021.6330    -1021.6330  0.28421 -1.6365
   scf:    3    -1023.9205    -1021.4603    -1021.4603  0.18915 -4.0459
   scf:    4    -1023.8385    -1023.1377    -1023.1377  0.03663 -4.4991
   scf:    5    -1023.8324    -1023.6427    -1023.6427  0.00786 -4.5122
   scf:    6    -1023.8312    -1023.7604    -1023.7604  0.00245 -4.4590
   scf:    7    -1023.8310    -1023.8216    -1023.8216  0.00026 -4.4576
   scf:    8    -1023.8310    -1023.8243    -1023.8243  0.00015 -4.4607
   scf:    9    -1023.8310    -1023.8301    -1023.8301  0.00007 -4.4608

SCF Convergence by dMax criterion
max |DM_out - DM_in|:     0.00007373
SCF cycle converged after    9 iterations

Using DM_out to compute the final energy and forces

siesta: E_KS(eV) =            -1023.8310

siesta: E_KS - E_eggbox =     -1023.8310

zmatrix: Atomic forces (eV/Ang ; eV/deg )
zmatrix: (No information if symbols are used)
molecule    1 (    12 atoms)
     1    0.000000    0.000000    0.000000
     2    0.000000    0.000000    0.000000
     3    0.000000    0.000000    0.000000
     4    0.000000    0.000000    0.000000
     5    0.000000    0.000000    0.000000
     6    0.000000    0.000000    0.000000
     7    0.000000    0.000000    0.000000
     8    0.000000    0.000000    0.000000
     9    0.000000    0.000000    0.000000
    10    0.000000    0.000000    0.000000
    11    0.000000    0.000000    0.000000
    12    0.000000    0.000000    0.000000


Variable forces (eV/Ang ; eV/deg )
 CC          -5.4400535258386400     
 CCC        -0.11720658988041995     
 CH         -0.83929701853956129     
 CCH          5.4850903457657141E-005

siesta: Atomic forces (eV/Ang):
----------------------------------------
   Tot   -0.003400   -0.005313    0.003052
----------------------------------------
   Max    0.773006
   Res    0.317992    sqrt( Sum f_i^2 / 3N )
----------------------------------------
   Max    0.773006    constrained

Stress-tensor-Voigt (kbar):        8.51        8.48       -0.06        0.01        0.00        0.00
(Free)E + p*V (eV/cell)    -1026.6978
Target enthalpy (eV/cell)    -1023.8310
Fire_optim: No of elements:      4
 Power > 0
FIRE: step, dt, npos, alpha, magv, magf, long
FIREdat:     1    0.3000   1    0.1000    0.161401    0.538002    0
FIRE: nvar, x, v, f
           1   2.6682217666049706       -6.3474794675271881E-002 -0.21158264891757295     
           2   2.0721843590405769      -0.14807162235080915      -0.49357207450269719     
           3   2.0999073446545542       -9.7929562035244406E-003  -3.2643187345081467E-002
           4   2.0944054966836609        6.9295269751207950E-005   2.3098423250402650E-004

                     ====================================
                        Begin FIRE opt. move =      1

zmatrix: Z-matrix coordinates: (Ang ; deg )
zmatrix: (Fractional coordinates have been converted to cartesian)
molecule    1 (    12 atoms)
      3.68000000      3.68000000      6.90322940
      1.41196159     90.00000000     60.00000000
      1.41196159    118.72741815     90.00000000
      1.41196159    118.72741815      0.00000000
      1.41196159    118.72741815      0.00000000
      1.41196159    118.72741815      0.00000000
      1.11122267    120.00059555    180.00000000
      1.11122267    120.00059555      0.00000000
      1.11122267    120.00059555      0.00000000
      1.11122267    120.00059555      0.00000000
      1.11122267    120.00059555      0.00000000
      1.11122267    120.00059555      0.00000000


Z-matrix Symbol Section -------
Variables
 CC           1.4119615897867186     
 CCC          118.72741814604670     
 CH           1.1112226689222631     
 CCH          120.00059554897470     
Constants
 xm1          3.6800000000000002     
 ym1          3.6800000000000002     
 zm1          6.9032293999999998     
------------ End of Z-matrix Information

                     ====================================

outcell: Unit cell vectors (Ang):
       11.776283    0.000000    0.000000
        0.000000   11.030875    0.000000
        0.000000    0.000000    6.266317

outcell: Cell vector modules (Ang)   :   11.776283   11.030875    6.266317
outcell: Cell angles (23,13,12) (deg):     90.0000     90.0000     90.0000
outcell: Cell volume (Ang**3)        :    814.0116
New_DM. Step:     2
Re-using DM from previous geometry...
Re-using DM without extrapolation (not allowed)
Density Matrix sparsity pattern changed.
Note: For starting DM, Qtot, Tr[D*S] =         30.00000000         30.14296156
New grid distribution:   1
           1       1:   40    1:   20    1:    6
           2       1:   40    1:   20    7:   12
           3       1:   40    1:   20   13:   18
           4       1:   40    1:   20   19:   24
           5       1:   40   21:   40    1:    6
           6       1:   40   21:   40    7:   12
           7       1:   40   21:   40   13:   18
           8       1:   40   21:   40   19:   24

InitMesh: MESH =    80 x    80 x    48 =      307200
InitMesh: (bp) =    40 x    40 x    24 =       38400
InitMesh: Mesh cutoff (required, used) =   120.000   127.546 Ry
ExtMesh (bp) on 0 =    80 x    64 x    50 =      256000
New grid distribution:   2
           1      18:   40   15:   40    1:    6
           2       1:   17   15:   40    7:   24
           3      18:   40    1:   14    7:   24
           4      18:   40    1:   14    1:    6
           5       1:   17    1:   14    7:   24
           6      18:   40   15:   40    7:   24
           7       1:   17   15:   40    1:    6
           8       1:   17    1:   14    1:    6
New grid distribution:   3
           1      18:   40    1:   15    1:   10
           2       1:   17    1:   15   11:   24
           3       1:   18   16:   40   10:   24
           4      18:   40    1:   15   11:   24
           5      19:   40   16:   40    1:    9
           6       1:   18   16:   40    1:    9
           7      19:   40   16:   40   10:   24
           8       1:   17    1:   15    1:   10
Setting up quadratic distribution...
ExtMesh (bp) on 0 =    63 x    70 x    50 =      220500
PhiOnMesh: Number of (b)points on node 0 =                 3588
PhiOnMesh: nlist on node 0 =                45936

   scf: iscf   Eharris(eV)      E_KS(eV)   FreeEng(eV)    dDmax  Ef(eV)
   scf:    1    -1023.3309    -1024.1327    -1024.1327  0.09566 -4.3751
   scf:    2    -1023.7575    -1022.9938    -1022.9938  0.10156 -5.0834
   scf:    3    -1023.2197    -1023.4732    -1023.4732  0.02671 -4.4893
   scf:    4    -1023.2183    -1023.1910    -1023.1910  0.00656 -4.4874
   scf:    5    -1023.2180    -1023.1985    -1023.1985  0.00295 -4.4797
   scf:    6    -1023.2180    -1023.2105    -1023.2105  0.00044 -4.4816
   scf:    7    -1023.2180    -1023.2130    -1023.2130  0.00024 -4.4829
   scf:    8    -1023.2180    -1023.2163    -1023.2163  0.00007 -4.4830

SCF Convergence by dMax criterion
max |DM_out - DM_in|:     0.00007307
SCF cycle converged after    8 iterations

Using DM_out to compute the final energy and forces

siesta: E_KS(eV) =            -1023.2180

zmatrix: Atomic forces (eV/Ang ; eV/deg )
zmatrix: (No information if symbols are used)
molecule    1 (    12 atoms)
     1    0.000000    0.000000    0.000000
     2    0.000000    0.000000    0.000000
     3    0.000000    0.000000    0.000000
     4    0.000000    0.000000    0.000000
     5    0.000000    0.000000    0.000000
     6    0.000000    0.000000    0.000000
     7    0.000000    0.000000    0.000000
     8    0.000000    0.000000    0.000000
     9    0.000000    0.000000    0.000000
    10    0.000000    0.000000    0.000000
    11    0.000000    0.000000    0.000000
    12    0.000000    0.000000    0.000000


Variable forces (eV/Ang ; eV/deg )
 CC           6.2531298374832138     
 CCC          1.2695258836242100     
 CH         -0.56866377391512546     
 CCH         -9.0592534123902432E-003

siesta: Atomic forces (eV/Ang):
----------------------------------------
   Tot    0.011720   -0.004267    0.003452
----------------------------------------
   Max    8.526542
   Res    2.264712    sqrt( Sum f_i^2 / 3N )
----------------------------------------
   Max    8.526542    constrained

Stress-tensor-Voigt (kbar):        0.10      -16.29       -0.05       11.33       -0.00        0.00
(Free)E + p*V (eV/cell)    -1020.4684
Target enthalpy (eV/cell)    -1023.2180
 Power < 0
FIRE: step, dt, npos, alpha, magv, magf, long
FIREdat:     2    0.1500   0    0.1000    1.605554    5.351848    0
FIRE: nvar, x, v, f
           1   2.6791660375747366        7.2961806465107262E-002  0.24320602155035753     
           2   2.3127605383275549        1.6038411952465190        5.3461373174883970     
           3   2.0989120653953406       -6.6351950614241938E-003  -2.2117316871413981E-002
           4   2.0926887608523885       -1.1444905541815606E-002  -3.8149685139385353E-002

                     ====================================
                        Begin FIRE opt. move =      2

zmatrix: Z-matrix coordinates: (Ang ; deg )
zmatrix: (Fractional coordinates have been converted to cartesian)
molecule    1 (    12 atoms)
      3.68000000      3.68000000      6.90322940
      1.41775305     90.00000000     60.00000000
      1.41775305    132.51141787     90.00000000
      1.41775305    132.51141787      0.00000000
      1.41775305    132.51141787      0.00000000
      1.41775305    132.51141787      0.00000000
      1.11069599    119.90223383    180.00000000
      1.11069599    119.90223383      0.00000000
      1.11069599    119.90223383      0.00000000
      1.11069599    119.90223383      0.00000000
      1.11069599    119.90223383      0.00000000
      1.11069599    119.90223383      0.00000000


Z-matrix Symbol Section -------
Variables
 CC           1.4177530462656864     
 CCC          132.51141787057315     
 CH           1.1106959900297102     
 CCH          119.90223383130392     
Constants
 xm1          3.6800000000000002     
 ym1          3.6800000000000002     
 zm1          6.9032293999999998     
------------ End of Z-matrix Information

                     ====================================

outcell: Unit cell vectors (Ang):
       11.776283    0.000000    0.000000
        0.000000   11.030875    0.000000
        0.000000    0.000000    6.266317

outcell: Cell vector modules (Ang)   :   11.776283   11.030875    6.266317
outcell: Cell angles (23,13,12) (deg):     90.0000     90.0000     90.0000
outcell: Cell volume (Ang**3)        :    814.0116
Gamma-point calculation with multiply-connected orbital pairs
Folding of H and S implicitly performed
New_DM. Step:     3
Re-using DM from previous geometry...
Re-using DM without extrapolation (not allowed)
Density Matrix sparsity pattern changed.
Note: For starting DM, Qtot, Tr[D*S] =         30.00000000         26.88489845
New grid distribution:   1
           1       1:   40    1:   20    1:    6
           2       1:   40    1:   20    7:   12
           3       1:   40    1:   20   13:   18
           4       1:   40    1:   20   19:   24
           5       1:   40   21:   40    1:    6
           6       1:   40   21:   40    7:   12
           7       1:   40   21:   40   13:   18
           8       1:   40   21:   40   19:   24

InitMesh: MESH =    80 x    80 x    48 =      307200
InitMesh: (bp) =    40 x    40 x    24 =       38400
InitMesh: Mesh cutoff (required, used) =   120.000   127.546 Ry
ExtMesh (bp) on 0 =    80 x    64 x    50 =      256000
New grid distribution:   2
           1       1:   19   16:   40    1:    7
           2       1:   21    1:   15    7:   24
           3       1:   19   16:   40    8:   24
           4      22:   40    1:   15    1:    7
           5      22:   40    1:   15    8:   24
           6      20:   40   16:   40    7:   24
           7      20:   40   16:   40    1:    6
           8       1:   21    1:   15    1:    6
New grid distribution:   3
           1      21:   40   17:   40    1:    9
           2      21:   40    1:   16    1:   10
           3      21:   40   17:   40   10:   24
           4       1:   20    1:   16   10:   24
           5      21:   40    1:   16   11:   24
           6       1:   20   17:   40    1:    9
           7       1:   20   17:   40   10:   24
           8       1:   20    1:   16    1:    9
Setting up quadratic distribution...
ExtMesh (bp) on 0 =    59 x    69 x    51 =      207621
PhiOnMesh: Number of (b)points on node 0 =                 3325
PhiOnMesh: nlist on node 0 =                49669

   scf: iscf   Eharris(eV)      E_KS(eV)   FreeEng(eV)    dDmax  Ef(eV)
   scf:    1    -1060.4398     -994.9263     -994.9263  0.89106 -4.0286
   scf:    2    -1528.0242     -877.4536     -877.4536  2.86129 -9.7804
   scf:    3    -1021.8274     -988.3101     -988.3101  0.52913 -3.9967
   scf:    4    -1018.2182     -992.8871     -992.8871  0.89749 -4.2901
   scf:    5    -1016.5775     -994.6960     -994.6960  0.44826 -4.6976
   scf:    6    -1016.4268     -995.6399     -995.6399  0.43979 -4.7325
   scf:    7    -1016.1490    -1003.7175    -1003.7175  0.09850 -5.0563
   scf:    8    -1016.0294    -1009.0551    -1009.0551  0.08923 -4.9743
   scf:    9    -1016.0186    -1011.6349    -1011.6349  0.06964 -5.0180
   scf:   10    -1016.0090    -1015.7585    -1015.7585  0.03602 -4.9259
   scf:   11    -1016.0068    -1015.8741    -1015.8741  0.04010 -4.9248
   scf:   12    -1016.0033    -1015.9245    -1015.9245  0.00549 -4.9356
   scf:   13    -1016.0032    -1016.0660    -1016.0660  0.00668 -4.9342
   scf:   14    -1016.0031    -1016.0459    -1016.0459  0.00224 -4.9355
   scf:   15    -1016.0031    -1016.0207    -1016.0207  0.00129 -4.9362
   scf:   16    -1016.0031    -1016.0058    -1016.0058  0.00023 -4.9358
   scf:   17    -1016.0031    -1016.0050    -1016.0050  0.00033 -4.9359
   scf:   18    -1016.0031    -1016.0028    -1016.0028  0.00012 -4.9359
   scf:   19    -1016.0031    -1016.0021    -1016.0021  0.00005 -4.9359

SCF Convergence by dMax criterion
max |DM_out - DM_in|:     0.00004960
SCF cycle converged after   19 iterations

Using DM_out to compute the final energy and forces

siesta: E_KS(eV) =            -1016.0031

zmatrix: Atomic forces (eV/Ang ; eV/deg )
zmatrix: (No information if symbols are used)
molecule    1 (    12 atoms)
     1    0.000000    0.000000    0.000000
     2    0.000000    0.000000    0.000000
     3    0.000000    0.000000    0.000000
     4    0.000000    0.000000    0.000000
     5    0.000000    0.000000    0.000000
     6    0.000000    0.000000    0.000000
     7    0.000000    0.000000    0.000000
     8    0.000000    0.000000    0.000000
     9    0.000000    0.000000    0.000000
    10    0.000000    0.000000    0.000000
    11    0.000000    0.000000    0.000000
    12    0.000000    0.000000    0.000000


Variable forces (eV/Ang ; eV/deg )
 CC          -12.249768900972011     
 CCC        -0.34989795004898949     
 CH          0.75674250102452645     
 CCH         -1.3617452820898887E-002

siesta: Atomic forces (eV/Ang):
----------------------------------------
   Tot   -0.018891    0.001269    0.000315
----------------------------------------
   Max    4.065987
   Res    1.547508    sqrt( Sum f_i^2 / 3N )
----------------------------------------
   Max    4.065987    constrained

Stress-tensor-Voigt (kbar):       16.74       15.67       -0.09       -0.38        0.00       -0.00
(Free)E + p*V (eV/cell)    -1021.4770
Target enthalpy (eV/cell)    -1016.0031
 Power < 0
FIRE: step, dt, npos, alpha, magv, magf, long
FIREdat:     3    0.0750   0    0.1000    0.232488    1.549918    0
FIRE: nvar, x, v, f
           1   2.6738061300702727       -7.1465433392850830E-002 -0.47643622261900553     
           2   2.2961840523635932      -0.22101981285282410       -1.4734654190188274     
           3   2.0992431793814883        4.4148531486350208E-003   2.9432354324233474E-002
           4   2.0920436312781256       -8.6017276568377717E-003  -5.7344851045585142E-002

                     ====================================
                        Begin FIRE opt. move =      3

zmatrix: Z-matrix coordinates: (Ang ; deg )
zmatrix: (Fractional coordinates have been converted to cartesian)
molecule    1 (    12 atoms)
      3.68000000      3.68000000      6.90322940
      1.41491671     90.00000000     60.00000000
      1.41491671    131.56165519     90.00000000
      1.41491671    131.56165519      0.00000000
      1.41491671    131.56165519      0.00000000
      1.41491671    131.56165519      0.00000000
      1.11087121    119.86527063    180.00000000
      1.11087121    119.86527063      0.00000000
      1.11087121    119.86527063      0.00000000
      1.11087121    119.86527063      0.00000000
      1.11087121    119.86527063      0.00000000
      1.11087121    119.86527063      0.00000000


Z-matrix Symbol Section -------
Variables
 CC           1.4149167064921968     
 CCC          131.56165518568031     
 CH           1.1108712079355578     
 CCH          119.86527062945957     
Constants
 xm1          3.6800000000000002     
 ym1          3.6800000000000002     
 zm1          6.9032293999999998     
------------ End of Z-matrix Information

                     ====================================

outcell: Unit cell vectors (Ang):
       11.776283    0.000000    0.000000
        0.000000   11.030875    0.000000
        0.000000    0.000000    6.266317

outcell: Cell vector modules (Ang)   :   11.776283   11.030875    6.266317
outcell: Cell angles (23,13,12) (deg):     90.0000     90.0000     90.0000
outcell: Cell volume (Ang**3)        :    814.0116
Gamma-point calculation with multiply-connected orbital pairs
Folding of H and S implicitly performed
New_DM. Step:     4
Re-using DM from previous geometry...
Re-using DM without extrapolation (not allowed)
Density Matrix sparsity pattern changed.
Note: For starting DM, Qtot, Tr[D*S] =         30.00000000         30.05445402
New grid distribution:   1
           1       1:   40    1:   20    1:    6
           2       1:   40    1:   20    7:   12
           3       1:   40    1:   20   13:   18
           4       1:   40    1:   20   19:   24
           5       1:   40   21:   40    1:    6
           6       1:   40   21:   40    7:   12
           7       1:   40   21:   40   13:   18
           8       1:   40   21:   40   19:   24

InitMesh: MESH =    80 x    80 x    48 =      307200
InitMesh: (bp) =    40 x    40 x    24 =       38400
InitMesh: Mesh cutoff (required, used) =   120.000   127.546 Ry
ExtMesh (bp) on 0 =    80 x    64 x    50 =      256000
New grid distribution:   2
           1       1:   19   16:   40    1:    7
           2       1:   21    1:   15    7:   24
           3       1:   19   16:   40    8:   24
           4      22:   40    1:   15    1:    7
           5      22:   40    1:   15    8:   24
           6      20:   40   16:   40    7:   24
           7      20:   40   16:   40    1:    6
           8       1:   21    1:   15    1:    6
New grid distribution:   3
           1      21:   40   17:   40    1:    9
           2      21:   40    1:   16    1:   10
           3      21:   40   17:   40   10:   24
           4       1:   20    1:   16   10:   24
           5      21:   40    1:   16   11:   24
           6       1:   20   17:   40    1:    9
           7       1:   20   17:   40   10:   24
           8       1:   20    1:   16    1:    9
Setting up quadratic distribution...
ExtMesh (bp) on 0 =    59 x    69 x    51 =      207621
PhiOnMesh: Number of (b)points on node 0 =                 3325
PhiOnMesh: nlist on node 0 =                49895

   scf: iscf   Eharris(eV)      E_KS(eV)   FreeEng(eV)    dDmax  Ef(eV)
   scf:    1    -1016.4126    -1016.0933    -1016.0933  0.04811 -4.7601
   scf:    2    -1016.8610    -1016.3050    -1016.3050  0.27398 -5.0474
   scf:    3    -1016.3933    -1016.1902    -1016.1902  0.04655 -4.8498
   scf:    4    -1016.3951    -1016.2726    -1016.2726  0.04864 -4.8228
   scf:    5    -1016.3878    -1016.3414    -1016.3414  0.00379 -4.8451
   scf:    6    -1016.3877    -1016.3778    -1016.3778  0.00157 -4.8432
   scf:    7    -1016.3877    -1016.3834    -1016.3834  0.00058 -4.8438
   scf:    8    -1016.3877    -1016.3851    -1016.3851  0.00027 -4.8446
   scf:    9    -1016.3877    -1016.3866    -1016.3866  0.00013 -4.8445
   scf:   10    -1016.3877    -1016.3875    -1016.3875  0.00002 -4.8446

SCF Convergence by dMax criterion
max |DM_out - DM_in|:     0.00002258
SCF cycle converged after   10 iterations

Using DM_out to compute the final energy and forces

siesta: E_KS(eV) =            -1016.3877

zmatrix: Atomic forces (eV/Ang ; eV/deg )
zmatrix: (No information if symbols are used)
molecule    1 (    12 atoms)
     1    0.000000    0.000000    0.000000
     2    0.000000    0.000000    0.000000
     3    0.000000    0.000000    0.000000
     4    0.000000    0.000000    0.000000
     5    0.000000    0.000000    0.000000
     6    0.000000    0.000000    0.000000
     7    0.000000    0.000000    0.000000
     8    0.000000    0.000000    0.000000
     9    0.000000    0.000000    0.000000
    10    0.000000    0.000000    0.000000
    11    0.000000    0.000000    0.000000
    12    0.000000    0.000000    0.000000


Variable forces (eV/Ang ; eV/deg )
 CC          -12.099722676500170     
 CCC        -0.39078064308666105     
 CH          0.61861807880012520     
 CCH         -8.9236539481919452E-003

siesta: Atomic forces (eV/Ang):
----------------------------------------
   Tot   -0.010572   -0.008382   -0.000683
----------------------------------------
   Max    3.964721
   Res    1.501198    sqrt( Sum f_i^2 / 3N )
----------------------------------------
   Max    3.964721    constrained

Stress-tensor-Voigt (kbar):       16.92       15.43       -0.09       -1.82       -0.00        0.00
(Free)E + p*V (eV/cell)    -1021.8506
Target enthalpy (eV/cell)    -1016.3877
 Power > 0
FIRE: step, dt, npos, alpha, magv, magf, long
FIREdat:     4    0.0750   1    0.1000    0.360839    1.712176    0
FIRE: nvar, x, v, f
           1   2.6671793962690740      -0.10600396575006947      -0.47060040179793394     
           2   2.2749610008761110      -0.34468505914429232       -1.6456277149652219     
           3   2.0996333539342777        6.1045853939964475E-003   2.4060213959136094E-002
           4   2.0913190550608927       -1.1070215915937147E-002  -3.7578658297685655E-002

                     ====================================
                        Begin FIRE opt. move =      4

zmatrix: Z-matrix coordinates: (Ang ; deg )
zmatrix: (Fractional coordinates have been converted to cartesian)
molecule    1 (    12 atoms)
      3.68000000      3.68000000      6.90322940
      1.41140999     90.00000000     60.00000000
      1.41140999    130.34566391     90.00000000
      1.41140999    130.34566391      0.00000000
      1.41140999    130.34566391      0.00000000
      1.41140999    130.34566391      0.00000000
      1.11107768    119.82375547    180.00000000
      1.11107768    119.82375547      0.00000000
      1.11107768    119.82375547      0.00000000
      1.11107768    119.82375547      0.00000000
      1.11107768    119.82375547      0.00000000
      1.11107768    119.82375547      0.00000000


Z-matrix Symbol Section -------
Variables
 CC           1.4114099913794798     
 CCC          130.34566390705874     
 CH           1.1110776793348793     
 CCH          119.82375547027658     
Constants
 xm1          3.6800000000000002     
 ym1          3.6800000000000002     
 zm1          6.9032293999999998     
------------ End of Z-matrix Information

                     ====================================

outcell: Unit cell vectors (Ang):
       11.776283    0.000000    0.000000
        0.000000   11.030875    0.000000
        0.000000    0.000000    6.266317

outcell: Cell vector modules (Ang)   :   11.776283   11.030875    6.266317
outcell: Cell angles (23,13,12) (deg):     90.0000     90.0000     90.0000
outcell: Cell volume (Ang**3)        :    814.0116
New_DM. Step:     5
Re-using DM from previous geometry...
Re-using DM without extrapolation (not allowed)
Density Matrix sparsity pattern changed.
Note: For starting DM, Qtot, Tr[D*S] =         30.00000000         30.07690279
New grid distribution:   1
           1       1:   40    1:   20    1:    6
           2       1:   40    1:   20    7:   12
           3       1:   40    1:   20   13:   18
           4       1:   40    1:   20   19:   24
           5       1:   40   21:   40    1:    6
           6       1:   40   21:   40    7:   12
           7       1:   40   21:   40   13:   18
           8       1:   40   21:   40   19:   24

InitMesh: MESH =    80 x    80 x    48 =      307200
InitMesh: (bp) =    40 x    40 x    24 =       38400
InitMesh: Mesh cutoff (required, used) =   120.000   127.546 Ry
ExtMesh (bp) on 0 =    80 x    64 x    50 =      256000
New grid distribution:   2
           1       1:   19   16:   40    1:    7
           2       1:   20    1:   15    7:   24
           3       1:   19   16:   40    8:   24
           4      21:   40    1:   15    1:    7
           5      21:   40    1:   15    8:   24
           6      20:   40   16:   40    7:   24
           7      20:   40   16:   40    1:    6
           8       1:   20    1:   15    1:    6
New grid distribution:   3
           1      21:   40    1:   16    1:   10
           2      21:   40    1:   16   11:   24
           3       1:   19   17:   40   10:   24
           4       1:   20    1:   16   10:   24
           5      20:   40   17:   40    1:    9
           6       1:   19   17:   40    1:    9
           7      20:   40   17:   40   10:   24
           8       1:   20    1:   16    1:    9
Setting up quadratic distribution...
ExtMesh (bp) on 0 =    59 x    69 x    51 =      207621
PhiOnMesh: Number of (b)points on node 0 =                 3325
PhiOnMesh: nlist on node 0 =                50289

   scf: iscf   Eharris(eV)      E_KS(eV)   FreeEng(eV)    dDmax  Ef(eV)
   scf:    1    -1016.9980    -1016.4981    -1016.4981  0.06752 -4.6019
   scf:    2    -1017.7142    -1016.7608    -1016.7608  0.21781 -5.0618
   scf:    3    -1016.9519    -1016.6452    -1016.6452  0.06358 -4.7105
   scf:    4    -1016.9548    -1016.7509    -1016.7509  0.06381 -4.6170
   scf:    5    -1016.9393    -1016.8629    -1016.8629  0.00642 -4.6960
   scf:    6    -1016.9391    -1016.9174    -1016.9174  0.00124 -4.6962
   scf:    7    -1016.9391    -1016.9318    -1016.9318  0.00048 -4.6984
   scf:    8    -1016.9391    -1016.9351    -1016.9351  0.00018 -4.6991
   scf:    9    -1016.9391    -1016.9376    -1016.9376  0.00012 -4.6995
   scf:   10    -1016.9391    -1016.9386    -1016.9386  0.00003 -4.6992

SCF Convergence by dMax criterion
max |DM_out - DM_in|:     0.00003330
SCF cycle converged after   10 iterations

Using DM_out to compute the final energy and forces

siesta: E_KS(eV) =            -1016.9391

zmatrix: Atomic forces (eV/Ang ; eV/deg )
zmatrix: (No information if symbols are used)
molecule    1 (    12 atoms)
     1    0.000000    0.000000    0.000000
     2    0.000000    0.000000    0.000000
     3    0.000000    0.000000    0.000000
     4    0.000000    0.000000    0.000000
     5    0.000000    0.000000    0.000000
     6    0.000000    0.000000    0.000000
     7    0.000000    0.000000    0.000000
     8    0.000000    0.000000    0.000000
     9    0.000000    0.000000    0.000000
    10    0.000000    0.000000    0.000000
    11    0.000000    0.000000    0.000000
    12    0.000000    0.000000    0.000000


Variable forces (eV/Ang ; eV/deg )
 CC          -11.946323465272608     
 CCC        -0.45022068522075598     
 CH          0.42768737250335115     
 CCH         -3.4399680756242814E-003

siesta: Atomic forces (eV/Ang):
----------------------------------------
   Tot   -0.005033   -0.011841    0.000880
----------------------------------------
   Max    3.882555
   Res    1.439170    sqrt( Sum f_i^2 / 3N )
----------------------------------------
   Max    3.882555    constrained

Stress-tensor-Voigt (kbar):       16.89       15.41       -0.09       -3.80        0.00       -0.00
(Free)E + p*V (eV/cell)    -1022.3953
Target enthalpy (eV/cell)    -1016.9391
 Power > 0
FIRE: step, dt, npos, alpha, magv, magf, long
FIREdat:     5    0.0750   2    0.1000    0.507019    1.952165    0
FIRE: nvar, x, v, f
           1   2.6580732221509380      -0.13883943634465618      -0.46463417163140441     
           2   2.2437340954992422      -0.48745639095669341       -1.8959374026251479     
           3   2.1001152573670874        7.0491635950777091E-003   1.6634253092005308E-002
           4   2.0905109910275343       -1.1317417716389873E-002  -1.4486149465155349E-002

outcoor: Final (unrelaxed) atomic coordinates (Ang):        
    3.68000000    3.68000000    6.90322940   2       1  C
    4.38570500    4.90231691    6.90322940   2       2  C
    5.77416860    5.15578681    6.90322940   2       3  C
    6.86623908    4.26166141    6.90322940   2       4  C
    6.89178268    2.85048258    6.90322940   2       5  C
    5.83278592    1.91742094    6.90322940   2       6  C
    2.56892758    3.68341772    6.90322940   1       7  H
    3.82720895    5.86282499    6.90322940   1       8  H
    6.14465344    6.20327647    6.90322940   1       9  H
    7.90443698    4.65743751    6.90322940   1      10  H
    7.86555110    2.31544177    6.90322940   1      11  H
    6.05541833    0.82887676    6.90322940   1      12  H

zmatrix: Z-matrix coordinates: (Ang ; deg )
zmatrix: (Fractional coordinates have been converted to cartesian)
molecule    1 (    12 atoms)
      3.68000000      3.68000000      6.90322940
      1.40659121     90.00000000     60.00000000
      1.40659121    128.55649402     90.00000000
      1.40659121    128.55649402      0.00000000
      1.40659121    128.55649402      0.00000000
      1.40659121    128.55649402      0.00000000
      1.11133269    119.77745681    180.00000000
      1.11133269    119.77745681      0.00000000
      1.11133269    119.77745681      0.00000000
      1.11133269    119.77745681      0.00000000
      1.11133269    119.77745681      0.00000000
      1.11133269    119.77745681      0.00000000


Z-matrix Symbol Section -------
Variables
 CC           1.4065912134781668     
 CCC          128.55649402170977     
 CH           1.1113326915477433     
 CCH          119.77745681158882     
Constants
 xm1          3.6800000000000002     
 ym1          3.6800000000000002     
 zm1          6.9032293999999998     
------------ End of Z-matrix Information


siesta: Program's energy decomposition (eV):
siesta: Ebs     =      -351.406090
siesta: Eions   =      1613.953835
siesta: Ena     =       344.967324
siesta: Ekin    =       714.627256
siesta: Enl     =      -112.902965
siesta: DEna    =       -27.042744
siesta: DUscf   =         3.365039
siesta: DUext   =         0.000000
siesta: Exc     =      -325.999181
siesta: eta*DQ  =         0.000000
siesta: Emadel  =         0.000000
siesta: Emeta   =         0.000000
siesta: Emolmec =         0.000000
siesta: Ekinion =         0.000000
siesta: Eharris =     -1016.939106
siesta: Etot    =     -1016.939106
siesta: FreeEng =     -1016.939106

siesta: Final energy (eV):
siesta:  Band Struct. =    -351.406090
siesta:       Kinetic =     714.627256
siesta:       Hartree =    1619.861807
siesta:    Ext. field =       0.000000
siesta:   Exch.-corr. =    -325.999181
siesta:  Ion-electron =   -3879.719705
siesta:       Ion-ion =     854.290717
siesta:       Ekinion =       0.000000
siesta:         Total =   -1016.939106

siesta: Atomic forces (eV/Ang):
siesta:      1    3.479637    2.019510    0.000316
siesta:      2   -1.488021   -2.609325    0.000110
siesta:      3    2.955188   -1.217647    0.000420
siesta:      4   -0.919614    1.189839    0.000255
siesta:      5   -3.158015   -2.836689    0.000421
siesta:      6    1.069866    3.882555    0.001059
siesta:      7   -0.024178   -0.836702   -0.000236
siesta:      8   -0.665193   -0.095368   -0.000123
siesta:      9   -0.460228    0.088348   -0.000816
siesta:     10   -0.252529    0.507081   -0.000990
siesta:     11    0.334572    0.121906    0.000331
siesta:     12   -0.876519   -0.225349    0.000133
siesta: ----------------------------------------
siesta:    Tot   -0.005033   -0.011841    0.000880

siesta: Stress tensor (static) (eV/Ang**3):
siesta:     0.010543   -0.002369   -0.000001
siesta:    -0.002369    0.009620    0.000002
siesta:    -0.000001    0.000002   -0.000054

siesta: Cell volume =        814.011582 Ang**3

siesta: Pressure (static):
siesta:                Solid            Molecule  Units
siesta:          -0.00007300          0.00000002  Ry/Bohr**3
siesta:          -0.00670280          0.00000224  eV/Ang**3
siesta:         -10.73918021          0.00358278  kBar
(Free)E+ p_basis*V_orbitals  =       -1012.935912
(Free)Eharris+ p_basis*V_orbitals  =       -1012.935913

siesta: Electric dipole (a.u.)  =    0.222340    0.160727   -0.000075
siesta: Electric dipole (Debye) =    0.565133    0.408527   -0.000190
>> End of run:  10-JUN-2018  21:06:33
Job completed
