Siesta Version: siesta-trunk-479
Architecture  : atto-intel12-openmpi
Compiler flags: /share/apps/openmpi-1.6.5-intel/bin/mpif90 -w  -O2 -mp
PP flags      : -DCDF -DMPI 
PARALLEL version
NetCDF support

* Running on    4 nodes in parallel
>> Start of run:  29-SEP-2015  15:37:23

                           ***********************       
                           *  WELCOME TO SIESTA  *       
                           ***********************       

reinit: Reading from standard input
************************** Dump of input data file ****************************
SystemName benzene with FIRE optimizer (Reduced set of variables)
SystemLabel fire_benzene
NumberOfSpecies 2
NumberOfAtoms   12
%block ChemicalSpeciesLabel
1    1 H
2    6 C
%endblock ChemicalSpeciesLabel
%block PS.Lmax
  C 2
%endblock PS.Lmax
AtomicCoordinatesFormat NotScaledCartesianAng
ZM.ForceTolLength 0.04 eV/Ang
ZM.ForceTolAngle 0.0001 eV/deg
ZM.MaxDisplLength 0.1 Ang
ZM.MaxDisplAngle 20.0 deg
%block Zmatrix
molecule
      2 0 0 0 xm1 ym1 zm1 0 0 0
      2 1 0 0 CC 90.0 60.0 0 0 0
      2 2 1 0 CC CCC 90.0 0 0 0
      2 3 2 1 CC CCC 0.0 0 0 0
      2 4 3 2 CC CCC 0.0 0 0 0
      2 5 4 3 CC CCC 0.0 0 0 0
      1 1 2 3 CH CCH 180.0 0 0 0
      1 2 1 7 CH CCH 0.0 0 0 0
      1 3 2 8 CH CCH 0.0 0 0 0
      1 4 3 9 CH CCH 0.0 0 0 0
      1 5 4 10 CH CCH 0.0 0 0 0
      1 6 5 11 CH CCH 0.0 0 0 0
constants
        ym1 3.68
        xm1 3.68
        zm1 6.9032294
variables
        CC 1.417
        CH 1.112
        CCH 120.0
        CCC 120.0
%endblock Zmatrix
ZM.UnitsLength Ang
ZM.UnitsAngle deg
MD.TypeOfRun FIRE
MD.NumCGSteps  4
MD.FIRE.TimeStep      0.3 fs
MD.FIRE.Mass           1.0
MD.FIRE.Debug          T
MD.FIRE.Nmin           5
MeshCutoff 120 Ry
PAO.EnergyShift 0.01 Ry
DM.NumberPulay 5
DM.MixingWeight 0.3
************************** End of input data file *****************************

reinit: -----------------------------------------------------------------------
reinit: System Name: benzene with FIRE optimizer (Reduced set of variables
reinit: -----------------------------------------------------------------------
reinit: System Label: fire_benzene                                                
reinit: -----------------------------------------------------------------------

initatom: Reading input for the pseudopotentials and atomic orbitals ----------
 Species number:            1  Label: H Atomic number:           1
 Species number:            2  Label: C Atomic number:           6
Ground state valence configuration:   1s01
Reading pseudopotential information in formatted form from H.psf

Valence configuration for pseudopotential generation:
1s( 1.00) rc: 1.25
2p( 0.00) rc: 1.25
3d( 0.00) rc: 1.25
4f( 0.00) rc: 1.25
Ground state valence configuration:   2s02  2p02
Reading pseudopotential information in formatted form from C.psf

Valence configuration for pseudopotential generation:
2s( 2.00) rc: 1.49
2p( 2.00) rc: 1.52
3d( 0.00) rc: 1.58
relmxkb: Read Max KB Ang. Momentum=    2 for species C
For H, standard SIESTA heuristics set lmxkb to 2
 (one more than the basis l, including polarization orbitals).
Use PS.lmax or PS.KBprojectors blocks to override.

<basis_specs>
===============================================================================
H                    Z=   1    Mass=  1.0100        Charge= 0.17977+309
Lmxo=0 Lmxkb= 2    BasisType=split      Semic=F
L=0  Nsemic=0  Cnfigmx=1
          n=1  nzeta=2  polorb=1
            splnorm:   0.15000    
               vcte:    0.0000    
               rinn:    0.0000    
               qcoe:    0.0000    
               qyuk:    0.0000    
               qwid:   0.10000E-01
                rcs:    0.0000      0.0000    
            lambdas:   1.00000     1.00000    
-------------------------------------------------------------------------------
L=0  Nkbl=1  erefs: 0.17977+309
L=1  Nkbl=1  erefs: 0.17977+309
L=2  Nkbl=1  erefs: 0.17977+309
===============================================================================
</basis_specs>

atom: Called for H                     (Z =   1)

read_vps: Pseudopotential generation method:
read_vps: ATM3      Troullier-Martins                       
Total valence charge:    1.00000

xc_check: Exchange-correlation functional:
xc_check: Ceperley-Alder
V l=0 = -2*Zval/r beyond r=  1.2343
V l=1 = -2*Zval/r beyond r=  1.2189
V l=2 = -2*Zval/r beyond r=  1.2189
All V_l potentials equal beyond r=  1.2343
This should be close to max(r_c) in ps generation
All pots = -2*Zval/r beyond r=  1.2343

VLOCAL1: 99.0% of the norm of Vloc inside     28.493 Ry
VLOCAL1: 99.9% of the norm of Vloc inside     64.935 Ry
atom: Maximum radius for 4*pi*r*r*local-pseudopot. charge    1.45251
atom: Maximum radius for r*vlocal+2*Zval:    1.21892
GHOST: No ghost state for L =  0
GHOST: No ghost state for L =  1
GHOST: No ghost state for L =  2

KBgen: Kleinman-Bylander projectors: 
   l= 0   rc=  1.364359   el= -0.467325   Ekb= -2.005361   kbcos= -0.336422
   l= 1   rc=  1.434438   el=  0.001430   Ekb= -0.501708   kbcos= -0.021697
   l= 2   rc=  1.470814   el=  0.002365   Ekb= -0.190555   kbcos= -0.002281

KBgen: Total number of  Kleinman-Bylander projectors:    9
atom: -------------------------------------------------------------------------

atom: SANKEY-TYPE ORBITALS:
atom: Selected multiple-zeta basis: split     

SPLIT: Orbitals with angular momentum L= 0

SPLIT: Basis orbitals for state 1s

SPLIT: PAO cut-off radius determined from an
SPLIT: energy shift=  0.010000 Ry

   izeta = 1
                 lambda =    1.000000
                     rc =    5.336316
                 energy =   -0.457946
                kinetic =    0.886710
    potential(screened) =   -1.344656
       potential(ionic) =   -1.876618

   izeta = 2
                 rmatch =    4.002347
              splitnorm =    0.150000
                 energy =   -0.355904
                kinetic =    1.439488
    potential(screened) =   -1.795392
       potential(ionic) =   -2.364690

POLgen: Perturbative polarization orbital with L=  1

POLgen: Polarization orbital for state 1s

   izeta = 1
                     rc =    5.336316
                 energy =    0.616245
                kinetic =    1.262150
    potential(screened) =   -0.645906
       potential(ionic) =   -1.116519
atom: Total number of Sankey-type orbitals:  5

atm_pop: Valence configuration (for local Pseudopot. screening):
 1s( 1.00)                                                            
Vna: chval, zval:    1.00000   1.00000

Vna:  Cut-off radius for the neutral-atom potential:   5.336316

atom: _________________________________________________________________________

<basis_specs>
===============================================================================
C                    Z=   6    Mass=  12.010        Charge= 0.17977+309
Lmxo=1 Lmxkb= 2    BasisType=split      Semic=F
L=0  Nsemic=0  Cnfigmx=2
          n=1  nzeta=2  polorb=0
            splnorm:   0.15000    
               vcte:    0.0000    
               rinn:    0.0000    
               qcoe:    0.0000    
               qyuk:    0.0000    
               qwid:   0.10000E-01
                rcs:    0.0000      0.0000    
            lambdas:   1.00000     1.00000    
L=1  Nsemic=0  Cnfigmx=2
          n=1  nzeta=2  polorb=1
            splnorm:   0.15000    
               vcte:    0.0000    
               rinn:    0.0000    
               qcoe:    0.0000    
               qyuk:    0.0000    
               qwid:   0.10000E-01
                rcs:    0.0000      0.0000    
            lambdas:   1.00000     1.00000    
-------------------------------------------------------------------------------
L=0  Nkbl=1  erefs: 0.17977+309
L=1  Nkbl=1  erefs: 0.17977+309
L=2  Nkbl=1  erefs: 0.17977+309
===============================================================================
</basis_specs>

atom: Called for C                     (Z =   6)

read_vps: Pseudopotential generation method:
read_vps: ATM3      Troullier-Martins                       
Total valence charge:    4.00000

xc_check: Exchange-correlation functional:
xc_check: Ceperley-Alder
V l=0 = -2*Zval/r beyond r=  1.4666
V l=1 = -2*Zval/r beyond r=  1.5038
V l=2 = -2*Zval/r beyond r=  1.5612
All V_l potentials equal beyond r=  1.5612
This should be close to max(r_c) in ps generation
All pots = -2*Zval/r beyond r=  1.5612

VLOCAL1: 99.0% of the norm of Vloc inside     17.809 Ry
VLOCAL1: 99.9% of the norm of Vloc inside     40.586 Ry
atom: Maximum radius for 4*pi*r*r*local-pseudopot. charge    1.88329
atom: Maximum radius for r*vlocal+2*Zval:    1.62091
GHOST: No ghost state for L =  0
GHOST: No ghost state for L =  1
GHOST: No ghost state for L =  2

KBgen: Kleinman-Bylander projectors: 
   l= 0   rc=  1.747182   el= -1.001947   Ekb=  5.181700   kbcos=  0.300603
   l= 1   rc=  1.747182   el= -0.398598   Ekb= -4.328763   kbcos= -0.367074
   l= 2   rc=  1.955272   el=  0.002326   Ekb= -1.016175   kbcos= -0.009979

KBgen: Total number of  Kleinman-Bylander projectors:    9
atom: -------------------------------------------------------------------------

atom: SANKEY-TYPE ORBITALS:
atom: Selected multiple-zeta basis: split     

SPLIT: Orbitals with angular momentum L= 0

SPLIT: Basis orbitals for state 2s

SPLIT: PAO cut-off radius determined from an
SPLIT: energy shift=  0.010000 Ry

   izeta = 1
                 lambda =    1.000000
                     rc =    4.518360
                 energy =   -0.992087
                kinetic =    0.856755
    potential(screened) =   -1.848843
       potential(ionic) =   -5.436865

   izeta = 2
                 rmatch =    3.475094
              splitnorm =    0.150000
                 energy =   -0.853594
                kinetic =    1.308346
    potential(screened) =   -2.161940
       potential(ionic) =   -6.002045

SPLIT: Orbitals with angular momentum L= 1

SPLIT: Basis orbitals for state 2p

SPLIT: PAO cut-off radius determined from an
SPLIT: energy shift=  0.010000 Ry

   izeta = 1
                 lambda =    1.000000
                     rc =    5.382558
                 energy =   -0.388318
                kinetic =    2.456485
    potential(screened) =   -2.844804
       potential(ionic) =   -6.312273

   izeta = 2
                 rmatch =    3.607901
              splitnorm =    0.150000
                 energy =   -0.250655
                kinetic =    3.636791
    potential(screened) =   -3.887446
       potential(ionic) =   -7.736789

POLgen: Perturbative polarization orbital with L=  2

POLgen: Polarization orbital for state 2p

   izeta = 1
                     rc =    5.382558
                 energy =    1.148490
                kinetic =    2.389078
    potential(screened) =   -1.240587
       potential(ionic) =   -4.090578
atom: Total number of Sankey-type orbitals: 13

atm_pop: Valence configuration (for local Pseudopot. screening):
 2s( 2.00)                                                            
 2p( 2.00)                                                            
Vna: chval, zval:    4.00000   4.00000

Vna:  Cut-off radius for the neutral-atom potential:   5.382558

atom: _________________________________________________________________________

prinput: Basis input ----------------------------------------------------------

PAO.BasisType split     

%block ChemicalSpeciesLabel
    1    1 H                       # Species index, atomic number, species label
    2    6 C                       # Species index, atomic number, species label
%endblock ChemicalSpeciesLabel

%block PAO.Basis                 # Define Basis set
H                     1                    # Species label, number of l-shells
 n=1   0   2 P   1                   # n, l, Nzeta, Polarization, NzetaPol
   5.336      4.002   
   1.000      1.000   
C                     2                    # Species label, number of l-shells
 n=2   0   2                         # n, l, Nzeta 
   4.518      3.475   
   1.000      1.000   
 n=2   1   2 P   1                   # n, l, Nzeta, Polarization, NzetaPol
   5.383      3.608   
   1.000      1.000   
%endblock PAO.Basis

prinput: ----------------------------------------------------------------------

Dumping basis to NetCDF file H.ion.nc
Dumping basis to NetCDF file C.ion.nc
coor:   Atomic-coordinates input format  =     Cartesian coordinates
coor:                                          (in Angstroms)
read_Zmatrix: Length units: Ang       
read_Zmatrix: Angle  units: deg       
read_Zmatrix: Force tolerances:
read_Zmatrix:    for lengths =     0.001556 Ry/Bohr
read_Zmatrix:    for angles  =     0.000421 Ry/rad

read_Zmatrix: Maximum displacements:
read_Zmatrix:    for lengths =     0.188973 Bohr
read_Zmatrix:    for angles  =     0.349066 rad
%block Zmatrix
molecule
      2 0 0 0 xm1 ym1 zm1 0 0 0
      2 1 0 0 CC 90.0 60.0 0 0 0
      2 2 1 0 CC CCC 90.0 0 0 0
      2 3 2 1 CC CCC 0.0 0 0 0
      2 4 3 2 CC CCC 0.0 0 0 0
      2 5 4 3 CC CCC 0.0 0 0 0
      1 1 2 3 CH CCH 180.0 0 0 0
      1 2 1 7 CH CCH 0.0 0 0 0
      1 3 2 8 CH CCH 0.0 0 0 0
      1 4 3 9 CH CCH 0.0 0 0 0
      1 5 4 10 CH CCH 0.0 0 0 0
      1 6 5 11 CH CCH 0.0 0 0 0
constants
        ym1 3.68
        xm1 3.68
        zm1 6.9032294
variables
        CC 1.417
        CH 1.112
        CCH 120.0
        CCC 120.0
%endblock Zmatrix
 nZmol:            1
 nSpecies:            2           2           2           2           2
           2           1           1           1           1           1
           1

zmatrix: Z-matrix coordinates: (Ang ; deg )
zmatrix: (Fractional coordinates have been converted to cartesian)
molecule    1 (    12 atoms)
      3.68000000      3.68000000      6.90322940
      1.41700000     90.00000000     60.00000000
      1.41700000    120.00000000     90.00000000
      1.41700000    120.00000000      0.00000000
      1.41700000    120.00000000      0.00000000
      1.41700000    120.00000000      0.00000000
      1.11200000    120.00000000    180.00000000
      1.11200000    120.00000000      0.00000000
      1.11200000    120.00000000      0.00000000
      1.11200000    120.00000000      0.00000000
      1.11200000    120.00000000      0.00000000
      1.11200000    120.00000000      0.00000000


Z-matrix Symbol Section -------
Variables
 CC           1.41700000000000     
 CCC          120.000000000000     
 CH           1.11200000000000     
 CCH          120.000000000000     
Constants
 xm1          3.68000000000000     
 ym1          3.68000000000000     
 zm1          6.90322940000000     
------------ End of Z-matrix Information


siesta: Atomic coordinates (Bohr) and species
siesta:      6.95419   6.95419  13.04522  2        1
siesta:      8.29307   9.27319  13.04522  2        2
siesta:     10.97081   9.27319  13.04522  2        3
siesta:     12.30968   6.95419  13.04522  2        4
siesta:     10.97081   4.63520  13.04522  2        5
siesta:      8.29307   4.63520  13.04522  2        6
siesta:      4.85282   6.95419  13.04522  1        7
siesta:      7.24238  11.09303  13.04522  1        8
siesta:     12.02150  11.09303  13.04522  1        9
siesta:     14.41106   6.95419  13.04522  1       10
siesta:     12.02150   2.81536  13.04522  1       11
siesta:      7.24238   2.81536  13.04522  1       12

siesta: Automatic unit cell vectors (Ang):
siesta:   11.776283    0.000000    0.000000
siesta:    0.000000   11.030875    0.000000
siesta:    0.000000    0.000000    6.266317

siesta: System type = molecule  

initatomlists: Number of atoms, orbitals, and projectors:     12   108   108

siesta: ******************** Simulation parameters ****************************
siesta:
siesta: The following are some of the parameters of the simulation.
siesta: A complete list of the parameters used, including default values,
siesta: can be found in file out.fdf
siesta:
redata: Non-Collinear-spin run           =     F
redata: SpinPolarized (Up/Down) run      =     F
redata: Number of spin components        =     1
redata: Long output                      =     F
redata: Number of Atomic Species         =        2
redata: Charge density info will appear in .RHO file
redata: Write Mulliken Pop.              =     NO
redata: Mesh Cutoff                      =   120.0000  Ry
redata: Net charge of the system         =     0.0000 |e|
redata: Min. number of SCF Iter          =        0
redata: Max. number of SCF Iter          =       50
redata: Mix DM or H after convergence    =     F
redata: Recompute H after scf cycle      =     F
redata: Performing Pulay mixing using    =     5 iterations
redata: Mix DM in first SCF step ?       =     F
redata: Write Pulay info on disk?        =     F
redata: Discard 1st Pulay DM after  kick =     F
redata: New DM Mixing Weight             =     0.3000
redata: New DM Occupancy tolerance       = 0.000000000001
redata: No kicks to SCF
redata: DM Mixing Weight for Kicks       =     0.5000
redata: DM Tolerance for SCF             =     0.000100
redata: Require (free) Energy convergence in SCF =     F
redata: DM (free)Energy tolerance for SCF =     0.000010 eV
redata: Require Harris convergence for SCF =     F
redata: DM Harris energy tolerance for SCF =     0.000010 eV
redata: Using Saved Data (generic)   =     F
redata: Use continuation files for DM    =     F
redata: Neglect nonoverlap interactions  =     F
redata: Method of Calculation            =     Diagonalization
redata: Divide and Conquer               =     T
redata: Electronic Temperature           =     0.0019  Ry
redata: Fix the spin of the system       =     F
redata: Dynamics option                  =     FIRE coord. optimization
redata: Variable cell                    =     F
redata: Use continuation files for CG    =     F
redata: Max atomic displ per move        =     0.2000  Bohr
redata: Maximum number of CG moves       =        4
redata: Force tolerance                  =     0.0016  Ry/Bohr
redata: ***********************************************************************
Total number of electrons:    30.000000
Total ionic charge:    30.000000

* ProcessorY, Blocksize:    2  24


* Orbital distribution balance (max,min):    36    24

 Kpoints in:            1 . Kpoints trimmed:            1

siesta: k-grid: Number of k-points =     1
siesta: k-grid: Cutoff (effective) =     3.133 Ang
siesta: k-grid: Supercell and displacements
siesta: k-grid:    1   0   0      0.000
siesta: k-grid:    0   1   0      0.000
siesta: k-grid:    0   0   1      0.000

                     ====================================
                        Begin FIRE opt. move =      0

zmatrix: Z-matrix coordinates: (Ang ; deg )
zmatrix: (Fractional coordinates have been converted to cartesian)
molecule    1 (    12 atoms)
      3.68000000      3.68000000      6.90322940
      1.41700000     90.00000000     60.00000000
      1.41700000    120.00000000     90.00000000
      1.41700000    120.00000000      0.00000000
      1.41700000    120.00000000      0.00000000
      1.41700000    120.00000000      0.00000000
      1.11200000    120.00000000    180.00000000
      1.11200000    120.00000000      0.00000000
      1.11200000    120.00000000      0.00000000
      1.11200000    120.00000000      0.00000000
      1.11200000    120.00000000      0.00000000
      1.11200000    120.00000000      0.00000000


Z-matrix Symbol Section -------
Variables
 CC           1.41700000000000     
 CCC          120.000000000000     
 CH           1.11200000000000     
 CCH          120.000000000000     
Constants
 xm1          3.68000000000000     
 ym1          3.68000000000000     
 zm1          6.90322940000000     
------------ End of Z-matrix Information

                     ====================================

outcell: Unit cell vectors (Ang):
       11.776283    0.000000    0.000000
        0.000000   11.030875    0.000000
        0.000000    0.000000    6.266317

outcell: Cell vector modules (Ang)   :   11.776283   11.030875    6.266317
outcell: Cell angles (23,13,12) (deg):     90.0000     90.0000     90.0000
outcell: Cell volume (Ang**3)        :    814.0116
New_DM. Step:     1
Initializing Density Matrix...
New grid distribution:   1
           1       1:   40    1:   20    1:   12
           2       1:   40    1:   20   13:   24
           3       1:   40   21:   40    1:   12
           4       1:   40   21:   40   13:   24

InitMesh: MESH =    80 x    80 x    48 =      307200
InitMesh: (bp) =    40 x    40 x    24 =       38400
InitMesh: Mesh cutoff (required, used) =   120.000   127.546 Ry
ExtMesh (bp) on 0 =    80 x    64 x    56 =      286720
New grid distribution:   2
           1      19:   40    1:   14    1:   24
           2       1:   18    1:   14    1:   24
           3      19:   40   15:   40    1:   24
           4       1:   18   15:   40    1:   24
New grid distribution:   3
           1      19:   40    1:   15    1:   24
           2       1:   18    1:   15    1:   24
           3      19:   40   16:   40    1:   24
           4       1:   18   16:   40    1:   24
Setting up quadratic distribution...
ExtMesh (bp) on 0 =    62 x    58 x    68 =      244528
PhiOnMesh: Number of (b)points on node 0 =                 7392
PhiOnMesh: nlist on node 0 =               103918

stepf: Fermi-Dirac step function

siesta: Program's energy decomposition (eV):
siesta: Ebs     =      -450.458025
siesta: Eions   =      1613.953835
siesta: Ena     =       340.728180
siesta: Ekin    =       613.333480
siesta: Enl     =       -32.517563
siesta: DEna    =         0.000002
siesta: DUscf   =         0.000000
siesta: DUext   =         0.000000
siesta: Exc     =      -317.548230
siesta: eta*DQ  =         0.000000
siesta: Emadel  =         0.000000
siesta: Emeta   =         0.000000
siesta: Emolmec =         0.000000
siesta: Ekinion =         0.000000
siesta: Eharris =     -1027.088452
siesta: Etot    =     -1009.957966
siesta: FreeEng =     -1009.957966

   scf: iscf   Eharris(eV)      E_KS(eV)   FreeEng(eV)    dDmax  Ef(eV)
   scf:    1    -1027.0885    -1009.9580    -1009.9580  1.95529 -7.7332
timer: Routine,Calls,Time,% =    IterSCF     1       0.232   8.81
   scf:    2    -1026.4534    -1021.6424    -1021.6424  0.28419 -1.6497
   scf:    3    -1023.9298    -1021.4695    -1021.4695  0.18912 -4.0587
   scf:    4    -1023.8478    -1023.1470    -1023.1470  0.03663 -4.5119
   scf:    5    -1023.8416    -1023.6519    -1023.6519  0.00786 -4.5250
   scf:    6    -1023.8405    -1023.7696    -1023.7696  0.00245 -4.4718
   scf:    7    -1023.8402    -1023.8308    -1023.8308  0.00026 -4.4705
   scf:    8    -1023.8402    -1023.8336    -1023.8336  0.00015 -4.4735
   scf:    9    -1023.8402    -1023.8393    -1023.8393  0.00007 -4.4736

SCF Convergence by dMax criterion
max |DM_out - DM_in|:     0.00007372
SCF cycle converged after    9 iterations

Using DM_out to compute the final energy and forces

siesta: E_KS(eV) =            -1023.8402

siesta: E_KS - E_eggbox =     -1023.8402

zmatrix: Atomic forces (eV/Ang ; eV/deg )
zmatrix: (No information if symbols are used)
molecule    1 (    12 atoms)
     1    0.000000    0.000000    0.000000
     2    0.000000    0.000000    0.000000
     3    0.000000    0.000000    0.000000
     4    0.000000    0.000000    0.000000
     5    0.000000    0.000000    0.000000
     6    0.000000    0.000000    0.000000
     7    0.000000    0.000000    0.000000
     8    0.000000    0.000000    0.000000
     9    0.000000    0.000000    0.000000
    10    0.000000    0.000000    0.000000
    11    0.000000    0.000000    0.000000
    12    0.000000    0.000000    0.000000


Variable forces (eV/Ang ; eV/deg )
 CC          -5.56228961265173     
 CCC        -0.119823691230076     
 CH         -0.811661227949220     
 CCH         5.482469189511262E-005

siesta: Atomic forces (eV/Ang):
----------------------------------------
   Tot   -0.003388   -0.005300    0.003052
----------------------------------------
   Max    0.797987
   Res    0.327707    sqrt( Sum f_i^2 / 3N )
----------------------------------------
   Max    0.797987    constrained

Stress-tensor-Voigt (kbar):        8.65        8.62       -0.06        0.01        0.00        0.00
(Free)E + p*V (eV/cell)    -1026.7546
Target enthalpy (eV/cell)    -1023.8402
Fire_optim: No of elements:      4
 Power > 0
FIRE: step, dt, npos, alpha, magv, magf, long
FIREdat:     1    0.3000   1    0.1000    0.164976    0.549920    0
FIRE: nvar, x, v, f
           1   2.66800782816276      -6.490105095667008E-002
 -0.216336836522234     
           2   2.07168841622316      -0.151377907800248     
 -0.504593026000828     
           3   2.09995571300585      -9.470500528211885E-003
 -3.156833509403962E-002
           4   2.09440549171655       6.926215566953151E-005
  2.308738522317717E-004

                     ====================================
                        Begin FIRE opt. move =      1

zmatrix: Z-matrix coordinates: (Ang ; deg )
zmatrix: (Fractional coordinates have been converted to cartesian)
molecule    1 (    12 atoms)
      3.68000000      3.68000000      6.90322940
      1.41184838     90.00000000     60.00000000
      1.41184838    118.69900272     90.00000000
      1.41184838    118.69900272      0.00000000
      1.41184838    118.69900272      0.00000000
      1.41184838    118.69900272      0.00000000
      1.11124826    120.00059526    180.00000000
      1.11124826    120.00059526      0.00000000
      1.11124826    120.00059526      0.00000000
      1.11124826    120.00059526      0.00000000
      1.11124826    120.00059526      0.00000000
      1.11124826    120.00059526      0.00000000


Z-matrix Symbol Section -------
Variables
 CC           1.41184837848369     
 CCC          118.699002715729     
 CH           1.11124826434130     
 CCH          120.000595264380     
Constants
 xm1          3.68000000000000     
 ym1          3.68000000000000     
 zm1          6.90322940000000     
------------ End of Z-matrix Information

                     ====================================

outcell: Unit cell vectors (Ang):
       11.776283    0.000000    0.000000
        0.000000   11.030875    0.000000
        0.000000    0.000000    6.266317

outcell: Cell vector modules (Ang)   :   11.776283   11.030875    6.266317
outcell: Cell angles (23,13,12) (deg):     90.0000     90.0000     90.0000
outcell: Cell volume (Ang**3)        :    814.0116
New_DM. Step:     2
Re-using DM from previous geometry...
Re-using DM without extrapolation (not allowed)
Density Matrix sparsity pattern changed.
Note: For starting DM, Qtot, Tr[D*S] =         30.00000000         30.14496065
New grid distribution:   1
           1       1:   40    1:   20    1:   12
           2       1:   40    1:   20   13:   24
           3       1:   40   21:   40    1:   12
           4       1:   40   21:   40   13:   24

InitMesh: MESH =    80 x    80 x    48 =      307200
InitMesh: (bp) =    40 x    40 x    24 =       38400
InitMesh: Mesh cutoff (required, used) =   120.000   127.546 Ry
ExtMesh (bp) on 0 =    80 x    64 x    56 =      286720
New grid distribution:   2
           1      18:   40    1:   14    1:   24
           2       1:   17    1:   14    1:   24
           3      18:   40   15:   40    1:   24
           4       1:   17   15:   40    1:   24
New grid distribution:   3
           1      18:   40    1:   15    1:   24
           2       1:   17    1:   15    1:   24
           3      19:   40   16:   40    1:   24
           4       1:   18   16:   40    1:   24
Setting up quadratic distribution...
ExtMesh (bp) on 0 =    63 x    58 x    68 =      248472
PhiOnMesh: Number of (b)points on node 0 =                 7728
PhiOnMesh: nlist on node 0 =               113877

   scf: iscf   Eharris(eV)      E_KS(eV)   FreeEng(eV)    dDmax  Ef(eV)
   scf:    1    -1023.3071    -1024.1260    -1024.1260  0.09766 -4.3763
   scf:    2    -1023.7433    -1022.9605    -1022.9605  0.10263 -5.1025
   scf:    3    -1023.1924    -1023.4475    -1023.4475  0.02705 -4.4933
   scf:    4    -1023.1909    -1023.1617    -1023.1617  0.00672 -4.4913
   scf:    5    -1023.1907    -1023.1702    -1023.1702  0.00301 -4.4835
   scf:    6    -1023.1907    -1023.1828    -1023.1828  0.00045 -4.4855
   scf:    7    -1023.1906    -1023.1855    -1023.1855  0.00025 -4.4868
   scf:    8    -1023.1906    -1023.1889    -1023.1889  0.00008 -4.4869

SCF Convergence by dMax criterion
max |DM_out - DM_in|:     0.00007526
SCF cycle converged after    8 iterations

Using DM_out to compute the final energy and forces

siesta: E_KS(eV) =            -1023.1906

zmatrix: Atomic forces (eV/Ang ; eV/deg )
zmatrix: (No information if symbols are used)
molecule    1 (    12 atoms)
     1    0.000000    0.000000    0.000000
     2    0.000000    0.000000    0.000000
     3    0.000000    0.000000    0.000000
     4    0.000000    0.000000    0.000000
     5    0.000000    0.000000    0.000000
     6    0.000000    0.000000    0.000000
     7    0.000000    0.000000    0.000000
     8    0.000000    0.000000    0.000000
     9    0.000000    0.000000    0.000000
    10    0.000000    0.000000    0.000000
    11    0.000000    0.000000    0.000000
    12    0.000000    0.000000    0.000000


Variable forces (eV/Ang ; eV/deg )
 CC           6.53426127844210     
 CCC          1.31754181812813     
 CH         -0.541356140100002     
 CCH        -9.326463058773167E-003

siesta: Atomic forces (eV/Ang):
----------------------------------------
   Tot    0.011810   -0.002714    0.003196
----------------------------------------
   Max    8.855292
   Res    2.350682    sqrt( Sum f_i^2 / 3N )
----------------------------------------
   Max    8.855292    constrained

Stress-tensor-Voigt (kbar):       -0.02      -17.01       -0.05       11.71       -0.00        0.00
(Free)E + p*V (eV/cell)    -1020.2989
Target enthalpy (eV/cell)    -1023.1906
 Power < 0
FIRE: step, dt, npos, alpha, magv, magf, long
FIREdat:     2    0.1500   0    0.1000    1.666300    5.554335    0
FIRE: nvar, x, v, f
           1   2.67944413731947       7.624206104474902E-002
  0.254140203482497     
           2   2.32136365384117        1.66450158412004     
   5.54833861373347     
           3   2.09900822775568      -6.316568334453657E-003
 -2.105522778151219E-002
           4   2.09263811944168      -1.178248183243265E-002
 -3.927493944144218E-002

                     ====================================
                        Begin FIRE opt. move =      2

zmatrix: Z-matrix coordinates: (Ang ; deg )
zmatrix: (Fractional coordinates have been converted to cartesian)
molecule    1 (    12 atoms)
      3.68000000      3.68000000      6.90322940
      1.41790021     90.00000000     60.00000000
      1.41790021    133.00434008     90.00000000
      1.41790021    133.00434008      0.00000000
      1.41790021    133.00434008      0.00000000
      1.41790021    133.00434008      0.00000000
      1.11074688    119.89933229    180.00000000
      1.11074688    119.89933229      0.00000000
      1.11074688    119.89933229      0.00000000
      1.11074688    119.89933229      0.00000000
      1.11074688    119.89933229      0.00000000
      1.11074688    119.89933229      0.00000000


Z-matrix Symbol Section -------
Variables
 CC           1.41790021025431     
 CCC          133.004340080167     
 CH           1.11074687693907     
 CCH          119.899332292202     
Constants
 xm1          3.68000000000000     
 ym1          3.68000000000000     
 zm1          6.90322940000000     
------------ End of Z-matrix Information

                     ====================================

outcell: Unit cell vectors (Ang):
       11.776283    0.000000    0.000000
        0.000000   11.030875    0.000000
        0.000000    0.000000    6.266317

outcell: Cell vector modules (Ang)   :   11.776283   11.030875    6.266317
outcell: Cell angles (23,13,12) (deg):     90.0000     90.0000     90.0000
outcell: Cell volume (Ang**3)        :    814.0116
New_DM. Step:     3
Re-using DM from previous geometry...
Re-using DM without extrapolation (not allowed)
Density Matrix sparsity pattern changed.
Note: For starting DM, Qtot, Tr[D*S] =         30.00000000         26.75489016
New grid distribution:   1
           1       1:   40    1:   20    1:   12
           2       1:   40    1:   20   13:   24
           3       1:   40   21:   40    1:   12
           4       1:   40   21:   40   13:   24

InitMesh: MESH =    80 x    80 x    48 =      307200
InitMesh: (bp) =    40 x    40 x    24 =       38400
InitMesh: Mesh cutoff (required, used) =   120.000   127.546 Ry
ExtMesh (bp) on 0 =    80 x    64 x    56 =      286720
New grid distribution:   2
           1       1:   21    1:   15    1:   24
           2      22:   40    1:   15    1:   24
           3      20:   40   16:   40    1:   24
           4       1:   19   16:   40    1:   24
New grid distribution:   3
           1       1:   21    1:   16    1:   24
           2      22:   40    1:   16    1:   24
           3       1:   20   17:   40    1:   24
           4      21:   40   17:   40    1:   24
Setting up quadratic distribution...
ExtMesh (bp) on 0 =    61 x    59 x    68 =      244732
PhiOnMesh: Number of (b)points on node 0 =                 7560
PhiOnMesh: nlist on node 0 =               106064

   scf: iscf   Eharris(eV)      E_KS(eV)   FreeEng(eV)    dDmax  Ef(eV)
   scf:    1    -1064.1807     -993.2320     -993.2320  0.94609 -3.8163
   scf:    2    -1589.6093     -862.9093     -862.9093  3.49204-10.6909
   scf:    3    -1022.8529     -987.4480     -987.4480  0.49351 -4.1201
   scf:    4    -1018.6103     -992.3406     -992.3406  0.93265 -4.2204
   scf:    5    -1016.3904     -994.3479     -994.3479  0.48053 -4.6722
   scf:    6    -1016.2933     -994.9204     -994.9204  0.47786 -4.6976
   scf:    7    -1016.0214    -1000.1641    -1000.1641  0.23568 -4.9351
   scf:    8    -1015.9307    -1007.9094    -1007.9094  0.26010 -4.9773
   scf:    9    -1015.8656    -1010.7006    -1010.7006  0.10508 -5.0601
   scf:   10    -1015.8461    -1014.9238    -1014.9238  0.02348 -4.9808
   scf:   11    -1015.8529    -1015.7343    -1015.7343  0.07515 -4.9779
   scf:   12    -1015.8446    -1015.7553    -1015.7553  0.03425 -4.9797
   scf:   13    -1015.8428    -1015.7496    -1015.7496  0.00348 -4.9719
   scf:   14    -1015.8429    -1015.7638    -1015.7638  0.00542 -4.9758
   scf:   15    -1015.8428    -1015.8122    -1015.8122  0.00177 -4.9746
   scf:   16    -1015.8428    -1015.8485    -1015.8485  0.00032 -4.9753
   scf:   17    -1015.8428    -1015.8522    -1015.8522  0.00035 -4.9750
   scf:   18    -1015.8428    -1015.8478    -1015.8478  0.00006 -4.9750

SCF Convergence by dMax criterion
max |DM_out - DM_in|:     0.00006167
SCF cycle converged after   18 iterations

Using DM_out to compute the final energy and forces

siesta: E_KS(eV) =            -1015.8428

zmatrix: Atomic forces (eV/Ang ; eV/deg )
zmatrix: (No information if symbols are used)
molecule    1 (    12 atoms)
     1    0.000000    0.000000    0.000000
     2    0.000000    0.000000    0.000000
     3    0.000000    0.000000    0.000000
     4    0.000000    0.000000    0.000000
     5    0.000000    0.000000    0.000000
     6    0.000000    0.000000    0.000000
     7    0.000000    0.000000    0.000000
     8    0.000000    0.000000    0.000000
     9    0.000000    0.000000    0.000000
    10    0.000000    0.000000    0.000000
    11    0.000000    0.000000    0.000000
    12    0.000000    0.000000    0.000000


Variable forces (eV/Ang ; eV/deg )
 CC          -12.1456459498453     
 CCC        -0.330189706581792     
 CH          0.839596990941638     
 CCH        -1.587795881147327E-002

siesta: Atomic forces (eV/Ang):
----------------------------------------
   Tot   -0.020574    0.016775   -0.001430
----------------------------------------
   Max    4.102933
   Res    1.565386    sqrt( Sum f_i^2 / 3N )
----------------------------------------
   Max    4.102933    constrained

Stress-tensor-Voigt (kbar):       16.43       15.51       -0.09        0.23        0.00       -0.00
(Free)E + p*V (eV/cell)    -1021.2370
Target enthalpy (eV/cell)    -1015.8428
 Power < 0
FIRE: step, dt, npos, alpha, magv, magf, long
FIREdat:     3    0.0750   0    0.1000    0.220561    1.470407    0
FIRE: nvar, x, v, f
           1   2.67412978899181      -7.085797770217052E-002
 -0.472386518014470     
           2   2.30572084988695      -0.208570719389522     
  -1.39047146259681     
           3   2.09937559486676       4.898228147652357E-003
  3.265485431768238E-002
           4   2.09188589794014      -1.002962002065266E-002
 -6.686413347101777E-002

                     ====================================
                        Begin FIRE opt. move =      3

zmatrix: Z-matrix coordinates: (Ang ; deg )
zmatrix: (Fractional coordinates have been converted to cartesian)
molecule    1 (    12 atoms)
      3.68000000      3.68000000      6.90322940
      1.41508798     90.00000000     60.00000000
      1.41508798    132.10807343     90.00000000
      1.41508798    132.10807343      0.00000000
      1.41508798    132.10807343      0.00000000
      1.41508798    132.10807343      0.00000000
      1.11094128    119.85623317    180.00000000
      1.11094128    119.85623317      0.00000000
      1.11094128    119.85623317      0.00000000
      1.11094128    119.85623317      0.00000000
      1.11094128    119.85623317      0.00000000
      1.11094128    119.85623317      0.00000000


Z-matrix Symbol Section -------
Variables
 CC           1.41508797934932     
 CCC          132.108073433840     
 CH           1.11094127916481     
 CCH          119.856233174904     
Constants
 xm1          3.68000000000000     
 ym1          3.68000000000000     
 zm1          6.90322940000000     
------------ End of Z-matrix Information

                     ====================================

outcell: Unit cell vectors (Ang):
       11.776283    0.000000    0.000000
        0.000000   11.030875    0.000000
        0.000000    0.000000    6.266317

outcell: Cell vector modules (Ang)   :   11.776283   11.030875    6.266317
outcell: Cell angles (23,13,12) (deg):     90.0000     90.0000     90.0000
outcell: Cell volume (Ang**3)        :    814.0116
 Folding of H and S is implicitly performed
New_DM. Step:     4
Re-using DM from previous geometry...
Re-using DM without extrapolation (not allowed)
Density Matrix sparsity pattern changed.
Note: For starting DM, Qtot, Tr[D*S] =         30.00000000         30.04847799
New grid distribution:   1
           1       1:   40    1:   20    1:   12
           2       1:   40    1:   20   13:   24
           3       1:   40   21:   40    1:   12
           4       1:   40   21:   40   13:   24

InitMesh: MESH =    80 x    80 x    48 =      307200
InitMesh: (bp) =    40 x    40 x    24 =       38400
InitMesh: Mesh cutoff (required, used) =   120.000   127.546 Ry
ExtMesh (bp) on 0 =    80 x    64 x    56 =      286720
New grid distribution:   2
           1       1:   21    1:   15    1:   24
           2      22:   40    1:   15    1:   24
           3      20:   40   16:   40    1:   24
           4       1:   19   16:   40    1:   24
New grid distribution:   3
           1       1:   20    1:   16    1:   24
           2      21:   40    1:   16    1:   24
           3       1:   20   17:   40    1:   24
           4      21:   40   17:   40    1:   24
Setting up quadratic distribution...
ExtMesh (bp) on 0 =    61 x    59 x    68 =      244732
PhiOnMesh: Number of (b)points on node 0 =                 7560
PhiOnMesh: nlist on node 0 =               110863

   scf: iscf   Eharris(eV)      E_KS(eV)   FreeEng(eV)    dDmax  Ef(eV)
   scf:    1    -1016.2061    -1015.9316    -1015.9316  0.04466 -4.8305
   scf:    2    -1016.6593    -1016.1207    -1016.1207  0.32648 -5.0422
   scf:    3    -1016.1899    -1016.0131    -1016.0131  0.02933 -4.9054
   scf:    4    -1016.1930    -1016.1024    -1016.1024  0.04329 -4.8794
   scf:    5    -1016.1878    -1016.1516    -1016.1516  0.00589 -4.8991
   scf:    6    -1016.1877    -1016.1824    -1016.1824  0.00137 -4.8978
   scf:    7    -1016.1877    -1016.1851    -1016.1851  0.00034 -4.8968
   scf:    8    -1016.1877    -1016.1864    -1016.1864  0.00021 -4.8979
   scf:    9    -1016.1877    -1016.1870    -1016.1870  0.00009 -4.8979

SCF Convergence by dMax criterion
max |DM_out - DM_in|:     0.00009048
SCF cycle converged after    9 iterations

Using DM_out to compute the final energy and forces

siesta: E_KS(eV) =            -1016.1877

zmatrix: Atomic forces (eV/Ang ; eV/deg )
zmatrix: (No information if symbols are used)
molecule    1 (    12 atoms)
     1    0.000000    0.000000    0.000000
     2    0.000000    0.000000    0.000000
     3    0.000000    0.000000    0.000000
     4    0.000000    0.000000    0.000000
     5    0.000000    0.000000    0.000000
     6    0.000000    0.000000    0.000000
     7    0.000000    0.000000    0.000000
     8    0.000000    0.000000    0.000000
     9    0.000000    0.000000    0.000000
    10    0.000000    0.000000    0.000000
    11    0.000000    0.000000    0.000000
    12    0.000000    0.000000    0.000000


Variable forces (eV/Ang ; eV/deg )
 CC          -11.9101249619540     
 CCC        -0.362334922084545     
 CH          0.710561765724776     
 CCH        -1.153081936850467E-002

siesta: Atomic forces (eV/Ang):
----------------------------------------
   Tot    0.011707    0.009533   -0.004347
----------------------------------------
   Max    3.991097
   Res    1.521656    sqrt( Sum f_i^2 / 3N )
----------------------------------------
   Max    3.991097    constrained

Stress-tensor-Voigt (kbar):       16.50       15.19       -0.09       -1.06       -0.00        0.01
(Free)E + p*V (eV/cell)    -1021.5404
Target enthalpy (eV/cell)    -1016.1877
 Power > 0
FIRE: step, dt, npos, alpha, magv, magf, long
FIREdat:     4    0.0750   1    0.1000    0.340175    1.595583    0
FIRE: nvar, x, v, f
           1   2.66756380540722      -0.104917433505507     
 -0.463226285627596     
           2   2.28576900227738      -0.323243601537247     
  -1.52583911314630     
           3   2.09981260378377       6.863143979526900E-003
  2.763622451461436E-002
           4   2.09102198798589      -1.333971570180613E-002
 -4.855776831520540E-002

                     ====================================
                        Begin FIRE opt. move =      4

zmatrix: Z-matrix coordinates: (Ang ; deg )
zmatrix: (Fractional coordinates have been converted to cartesian)
molecule    1 (    12 atoms)
      3.68000000      3.68000000      6.90322940
      1.41161341     90.00000000     60.00000000
      1.41161341    130.96491677     90.00000000
      1.41161341    130.96491677      0.00000000
      1.41161341    130.96491677      0.00000000
      1.41161341    130.96491677      0.00000000
      1.11117253    119.80673478    180.00000000
      1.11117253    119.80673478      0.00000000
      1.11117253    119.80673478      0.00000000
      1.11117253    119.80673478      0.00000000
      1.11117253    119.80673478      0.00000000
      1.11117253    119.80673478      0.00000000


Z-matrix Symbol Section -------
Variables
 CC           1.41161341185398     
 CCC          130.964916772323     
 CH           1.11117253423249     
 CCH          119.806734780646     
Constants
 xm1          3.68000000000000     
 ym1          3.68000000000000     
 zm1          6.90322940000000     
------------ End of Z-matrix Information

                     ====================================

outcell: Unit cell vectors (Ang):
       11.776283    0.000000    0.000000
        0.000000   11.030875    0.000000
        0.000000    0.000000    6.266317

outcell: Cell vector modules (Ang)   :   11.776283   11.030875    6.266317
outcell: Cell angles (23,13,12) (deg):     90.0000     90.0000     90.0000
outcell: Cell volume (Ang**3)        :    814.0116
 Folding of H and S is implicitly performed
New_DM. Step:     5
Re-using DM from previous geometry...
Re-using DM without extrapolation (not allowed)
Density Matrix sparsity pattern changed.
Note: For starting DM, Qtot, Tr[D*S] =         30.00000000         30.06831960
New grid distribution:   1
           1       1:   40    1:   20    1:   12
           2       1:   40    1:   20   13:   24
           3       1:   40   21:   40    1:   12
           4       1:   40   21:   40   13:   24

InitMesh: MESH =    80 x    80 x    48 =      307200
InitMesh: (bp) =    40 x    40 x    24 =       38400
InitMesh: Mesh cutoff (required, used) =   120.000   127.546 Ry
ExtMesh (bp) on 0 =    80 x    64 x    56 =      286720
New grid distribution:   2
           1       1:   20    1:   15    1:   24
           2      21:   40    1:   15    1:   24
           3      20:   40   16:   40    1:   24
           4       1:   19   16:   40    1:   24
New grid distribution:   3
           1       1:   20    1:   16    1:   24
           2      21:   40    1:   16    1:   24
           3      20:   40   17:   40    1:   24
           4       1:   19   17:   40    1:   24
Setting up quadratic distribution...
ExtMesh (bp) on 0 =    60 x    59 x    68 =      240720
PhiOnMesh: Number of (b)points on node 0 =                 7200
PhiOnMesh: nlist on node 0 =               104200

   scf: iscf   Eharris(eV)      E_KS(eV)   FreeEng(eV)    dDmax  Ef(eV)
   scf:    1    -1016.7201    -1016.2877    -1016.2877  0.06161 -4.6991
   scf:    2    -1017.3900    -1016.5362    -1016.5362  0.27454 -5.0535
   scf:    3    -1016.6848    -1016.4141    -1016.4141  0.05462 -4.7789
   scf:    4    -1016.6888    -1016.5194    -1016.5194  0.05942 -4.7487
   scf:    5    -1016.6766    -1016.6110    -1016.6110  0.00533 -4.7769
   scf:    6    -1016.6765    -1016.6618    -1016.6618  0.00155 -4.7723
   scf:    7    -1016.6765    -1016.6709    -1016.6709  0.00058 -4.7748
   scf:    8    -1016.6765    -1016.6731    -1016.6731  0.00022 -4.7754
   scf:    9    -1016.6765    -1016.6750    -1016.6750  0.00012 -4.7759
   scf:   10    -1016.6765    -1016.6760    -1016.6760  0.00003 -4.7757

SCF Convergence by dMax criterion
max |DM_out - DM_in|:     0.00003076
SCF cycle converged after   10 iterations

Using DM_out to compute the final energy and forces

siesta: E_KS(eV) =            -1016.6765

zmatrix: Atomic forces (eV/Ang ; eV/deg )
zmatrix: (No information if symbols are used)
molecule    1 (    12 atoms)
     1    0.000000    0.000000    0.000000
     2    0.000000    0.000000    0.000000
     3    0.000000    0.000000    0.000000
     4    0.000000    0.000000    0.000000
     5    0.000000    0.000000    0.000000
     6    0.000000    0.000000    0.000000
     7    0.000000    0.000000    0.000000
     8    0.000000    0.000000    0.000000
     9    0.000000    0.000000    0.000000
    10    0.000000    0.000000    0.000000
    11    0.000000    0.000000    0.000000
    12    0.000000    0.000000    0.000000


Variable forces (eV/Ang ; eV/deg )
 CC          -11.7157256726388     
 CCC        -0.416217313699194     
 CH          0.527959308390832     
 CCH        -5.993762727578105E-003

siesta: Atomic forces (eV/Ang):
----------------------------------------
   Tot    0.016589   -0.013007   -0.000943
----------------------------------------
   Max    3.878354
   Res    1.462745    sqrt( Sum f_i^2 / 3N )
----------------------------------------
   Max    3.878354    constrained

Stress-tensor-Voigt (kbar):       16.50       14.97       -0.09       -2.88        0.00        0.00
(Free)E + p*V (eV/cell)    -1021.9927
Target enthalpy (eV/cell)    -1016.6765
 Power > 0
FIRE: step, dt, npos, alpha, magv, magf, long
FIREdat:     5    0.0750   2    0.1000    0.475790    1.811299    0
FIRE: nvar, x, v, f
           1   2.65855848997963      -0.137158325598126     
 -0.455665419473311     
           2   2.25655162740359      -0.455292928965981     
  -1.75274481730118     
           3   2.10036254189241       8.102539800872284E-003
  2.053417828693171E-002
           4   2.09001501560956      -1.437281741185513E-002
 -2.524050829007082E-002

outcoor: Final (unrelaxed) atomic coordinates (Ang):        
    3.68000000    3.68000000    6.90322940   2       1  C
    4.38580671    4.90249307    6.90322940   2       2  C
    5.77164947    5.17099309    6.90322940   2       3  C
    6.88295088    4.30055550    6.90322940   2       4  C
    6.95423938    2.89074332    6.90322940   2       5  C
    5.93641099    1.91264425    6.90322940   2       6  C
    2.56883379    3.68374810    6.90322940   1       7  H
    3.82697765    5.86291719    6.90322940   1       8  H
    6.13050990    6.22262211    6.90322940   1       9  H
    7.91231543    4.71902059    6.90322940   1      10  H
    7.94507513    2.38780304    6.90322940   1      11  H
    6.20622390    0.83472709    6.90322940   1      12  H

zmatrix: Z-matrix coordinates: (Ang ; deg )
zmatrix: (Fractional coordinates have been converted to cartesian)
molecule    1 (    12 atoms)
      3.68000000      3.68000000      6.90322940
      1.40684801     90.00000000     60.00000000
      1.40684801    129.29088450     90.00000000
      1.40684801    129.29088450      0.00000000
      1.40684801    129.29088450      0.00000000
      1.40684801    129.29088450      0.00000000
      1.11146355    119.74903951    180.00000000
      1.11146355    119.74903951      0.00000000
      1.11146355    119.74903951      0.00000000
      1.11146355    119.74903951      0.00000000
      1.11146355    119.74903951      0.00000000
      1.11146355    119.74903951      0.00000000


Z-matrix Symbol Section -------
Variables
 CC           1.40684800605195     
 CCC          129.290884503603     
 CH           1.11146354883100     
 CCH          119.749039513397     
Constants
 xm1          3.68000000000000     
 ym1          3.68000000000000     
 zm1          6.90322940000000     
------------ End of Z-matrix Information


siesta: Program's energy decomposition (eV):
siesta: Ebs     =      -351.426006
siesta: Eions   =      1613.953835
siesta: Ena     =       344.977158
siesta: Ekin    =       714.724868
siesta: Enl     =      -112.824438
siesta: DEna    =       -27.038932
siesta: DUscf   =         3.349571
siesta: DUext   =         0.000000
siesta: Exc     =      -325.910862
siesta: eta*DQ  =         0.000000
siesta: Emadel  =         0.000000
siesta: Emeta   =         0.000000
siesta: Emolmec =         0.000000
siesta: Ekinion =         0.000000
siesta: Eharris =     -1016.676469
siesta: Etot    =     -1016.676469
siesta: FreeEng =     -1016.676469

siesta: Final energy (eV):
siesta:  Band Struct. =    -351.426006
siesta:       Kinetic =     714.724868
siesta:       Hartree =    1611.002181
siesta:    Ext. field =       0.000000
siesta:   Exch.-corr. =    -325.910862
siesta:  Ion-electron =   -3862.233054
siesta:       Ion-ion =     845.740398
siesta:       Ekinion =       0.000000
siesta:         Total =   -1016.676469

siesta: Atomic forces (eV/Ang):
siesta:      1    3.387695    2.269877    0.000461
siesta:      2   -1.499660   -2.647117    0.000134
siesta:      3    3.051237   -1.213116    0.000157
siesta:      4   -0.959684    1.149175   -0.000177
siesta:      5   -3.128768   -3.024080    0.000162
siesta:      6    1.165108    3.878354    0.000635
siesta:      7   -0.041904   -0.830487   -0.000238
siesta:      8   -0.705861   -0.091292   -0.000132
siesta:      9   -0.489971    0.095191   -0.000124
siesta:     10   -0.268049    0.539084   -0.000639
siesta:     11    0.367698    0.141123   -0.000854
siesta:     12   -0.861251   -0.279717   -0.000328
siesta: ----------------------------------------
siesta:    Tot    0.016589   -0.013007   -0.000943

siesta: Stress tensor (static) (eV/Ang**3):
siesta:     0.010301   -0.001799    0.000001
siesta:    -0.001799    0.009346    0.000001
siesta:     0.000001    0.000001   -0.000054

siesta: Cell volume =        814.011582 Ang**3

siesta: Pressure (static):
siesta:                Solid            Molecule  Units
siesta:          -0.00007113          0.00000015  Ry/Bohr**3
siesta:          -0.00653090          0.00001366  eV/Ang**3
siesta:         -10.46376511          0.02189192  kBar
(Free)E+ p_basis*V_orbitals  =       -1012.673276
(Free)Eharris+ p_basis*V_orbitals  =       -1012.673276

siesta: Electric dipole (a.u.)  =    0.237159    0.000000   -0.000074
siesta: Electric dipole (Debye) =    0.602798    0.000000   -0.000189
>> End of run:  29-SEP-2015  15:37:41
