Siesta Version:                                        siesta-trunk-300
Architecture  : nano-intel-mpi
Compiler flags: /opt/intel/impi/3.1/bin64/mpiifort -w  -O3 -mp
PARALLEL version
NetCDF support

* Running on    4 nodes in parallel
>> Start of run:  29-SEP-2009  17:24:46

                           ***********************       
                           *  WELCOME TO SIESTA  *       
                           ***********************       

reinit: Reading from standard input
************************** Dump of input data file ****************************
SystemName benzene with FIRE optimizer (Reduced set of variables)
SystemLabel fire_benzene
NumberOfSpecies 2
NumberOfAtoms   12
%block ChemicalSpeciesLabel
1    1 H
2    6 C
%endblock ChemicalSpeciesLabel
%block PS.Lmax
  C 2
%endblock PS.Lmax
AtomicCoordinatesFormat NotScaledCartesianAng
ZM.ForceTolLength 0.04 eV/Ang
ZM.ForceTolAngle 0.0001 eV/deg
ZM.MaxDisplLength 0.1 Ang
ZM.MaxDisplAngle 20.0 deg
%block Zmatrix
molecule
      2 0 0 0 xm1 ym1 zm1 0 0 0
      2 1 0 0 CC 90.0 60.0 0 0 0
      2 2 1 0 CC CCC 90.0 0 0 0
      2 3 2 1 CC CCC 0.0 0 0 0
      2 4 3 2 CC CCC 0.0 0 0 0
      2 5 4 3 CC CCC 0.0 0 0 0
      1 1 2 3 CH CCH 180.0 0 0 0
      1 2 1 7 CH CCH 0.0 0 0 0
      1 3 2 8 CH CCH 0.0 0 0 0
      1 4 3 9 CH CCH 0.0 0 0 0
      1 5 4 10 CH CCH 0.0 0 0 0
      1 6 5 11 CH CCH 0.0 0 0 0
constants
        ym1 3.68
        xm1 3.68
        zm1 6.9032294
variables
        CC 1.417
        CH 1.112
        CCH 120.0
        CCC 120.0
%endblock Zmatrix
ZM.UnitsLength Ang
ZM.UnitsAngle deg
MD.TypeOfRun FIRE
MD.NumCGSteps  4
MD.FIRE.TimeStep      0.3 fs
MD.FIRE.Mass           1.0
MD.FIRE.Debug          T
MD.FIRE.Nmin           5
MeshCutoff 120 Ry
PAO.EnergyShift 0.01 Ry
DM.NumberPulay 5
DM.MixingWeight 0.3
************************** End of input data file *****************************

reinit: -----------------------------------------------------------------------
reinit: System Name: benzene with FIRE optimizer (Reduced set of variables
reinit: -----------------------------------------------------------------------
reinit: System Label: fire_benzene                                                
reinit: -----------------------------------------------------------------------

initatom: Reading input for the pseudopotentials and atomic orbitals ----------
 Species number:            1  Label: H Atomic number:           1
 Species number:            2  Label: C Atomic number:           6
Ground state valence configuration:   1s01
Reading pseudopotential information in formatted form from H.psf

Valence configuration for pseudopotential generation:
1s( 1.00) rc: 1.25
2p( 0.00) rc: 1.25
3d( 0.00) rc: 1.25
4f( 0.00) rc: 1.25
Ground state valence configuration:   2s02  2p02
Reading pseudopotential information in formatted form from C.psf

Valence configuration for pseudopotential generation:
2s( 2.00) rc: 1.49
2p( 2.00) rc: 1.52
3d( 0.00) rc: 1.58
relmxkb: Read Max KB Ang. Momentum=    2 for species C
For H, standard SIESTA heuristics set lmxkb to 2
 (one more than the basis l, including polarization orbitals).
Use PS.lmax or PS.KBprojectors blocks to override.

<basis_specs>
===============================================================================
H                    Z=   1    Mass=  1.0100        Charge= 0.17977+309
Lmxo=0 Lmxkb=2     BasisType=split      Semic=F
L=0  Nsemic=0  Cnfigmx=1
          n=1  nzeta=2  polorb=1
            splnorm:   0.15000    
               vcte:    0.0000    
               rinn:    0.0000    
                rcs:    0.0000      0.0000    
            lambdas:    1.0000      1.0000    
-------------------------------------------------------------------------------
L=0  Nkbl=1  erefs: 0.17977+309
L=1  Nkbl=1  erefs: 0.17977+309
L=2  Nkbl=1  erefs: 0.17977+309
===============================================================================
</basis_specs>

atom: Called for H                     (Z =   1)

read_vps: Pseudopotential generation method:
read_vps: ATM3      Troullier-Martins                       
Total valence charge:    1.00000

xc_check: Exchange-correlation functional:
xc_check: Ceperley-Alder
V l=0 = -2*Zval/r beyond r=  1.2343
V l=1 = -2*Zval/r beyond r=  1.2189
V l=2 = -2*Zval/r beyond r=  1.2189
All V_l potentials equal beyond r=  1.2343
This should be close to max(r_c) in ps generation
All pots = -2*Zval/r beyond r=  1.2343

VLOCAL1: 99.0% of the norm of Vloc inside     28.493 Ry
VLOCAL1: 99.9% of the norm of Vloc inside     64.935 Ry
atom: Maximum radius for 4*pi*r*r*local-pseudopot. charge    1.45251
atom: Maximum radius for r*vlocal+2*Zval:    1.21892
GHOST: No ghost state for L =  0
GHOST: No ghost state for L =  1
GHOST: No ghost state for L =  2

KBgen: Kleinman-Bylander projectors: 
   l= 0   rc=  1.364359   el= -0.467325   Ekb= -2.005361   kbcos= -0.336422
   l= 1   rc=  1.434438   el=  0.001430   Ekb= -0.501708   kbcos= -0.021697
   l= 2   rc=  1.470814   el=  0.002365   Ekb= -0.190555   kbcos= -0.002281

KBgen: Total number of  Kleinman-Bylander projectors:    9
atom: -------------------------------------------------------------------------

atom: SANKEY-TYPE ORBITALS:
atom: Selected multiple-zeta basis: split     

SPLIT: Orbitals with angular momentum L= 0

SPLIT: Basis orbitals for state 1s

SPLIT: PAO cut-off radius determined from an
SPLIT: energy shift=  0.010000 Ry

   izeta = 1
                 lambda =    1.000000
                     rc =    5.336316
                 energy =   -0.457946
                kinetic =    0.886710
    potential(screened) =   -1.344656
       potential(ionic) =   -1.876618

   izeta = 2
                 rmatch =    4.002347
              splitnorm =    0.150000
                 energy =   -0.355904
                kinetic =    1.439488
    potential(screened) =   -1.795392
       potential(ionic) =   -2.364690

POLgen: Perturbative polarization orbital with L=  1

POLgen: Polarization orbital for state 1s

   izeta = 1
                     rc =    5.336316
                 energy =    0.616245
                kinetic =    1.262150
    potential(screened) =   -0.645906
       potential(ionic) =   -1.116519
atom: Total number of Sankey-type orbitals:  5

atm_pop: Valence configuration (for local Pseudopot. screening):
 1s( 1.00)                                                            
Vna: chval, zval:    1.00000   1.00000

Vna:  Cut-off radius for the neutral-atom potential:   5.336316

atom: _________________________________________________________________________

<basis_specs>
===============================================================================
C                    Z=   6    Mass=  12.010        Charge= 0.17977+309
Lmxo=1 Lmxkb=2     BasisType=split      Semic=F
L=0  Nsemic=0  Cnfigmx=2
          n=1  nzeta=2  polorb=0
            splnorm:   0.15000    
               vcte:    0.0000    
               rinn:    0.0000    
                rcs:    0.0000      0.0000    
            lambdas:    1.0000      1.0000    
L=1  Nsemic=0  Cnfigmx=2
          n=1  nzeta=2  polorb=1
            splnorm:   0.15000    
               vcte:    0.0000    
               rinn:    0.0000    
                rcs:    0.0000      0.0000    
            lambdas:    1.0000      1.0000    
-------------------------------------------------------------------------------
L=0  Nkbl=1  erefs: 0.17977+309
L=1  Nkbl=1  erefs: 0.17977+309
L=2  Nkbl=1  erefs: 0.17977+309
===============================================================================
</basis_specs>

atom: Called for C                     (Z =   6)

read_vps: Pseudopotential generation method:
read_vps: ATM3      Troullier-Martins                       
Total valence charge:    4.00000

xc_check: Exchange-correlation functional:
xc_check: Ceperley-Alder
V l=0 = -2*Zval/r beyond r=  1.4666
V l=1 = -2*Zval/r beyond r=  1.5038
V l=2 = -2*Zval/r beyond r=  1.5612
All V_l potentials equal beyond r=  1.5612
This should be close to max(r_c) in ps generation
All pots = -2*Zval/r beyond r=  1.5612

VLOCAL1: 99.0% of the norm of Vloc inside     17.809 Ry
VLOCAL1: 99.9% of the norm of Vloc inside     40.586 Ry
atom: Maximum radius for 4*pi*r*r*local-pseudopot. charge    1.88329
atom: Maximum radius for r*vlocal+2*Zval:    1.62091
GHOST: No ghost state for L =  0
GHOST: No ghost state for L =  1
GHOST: No ghost state for L =  2

KBgen: Kleinman-Bylander projectors: 
   l= 0   rc=  1.747182   el= -1.001947   Ekb=  5.181700   kbcos=  0.300603
   l= 1   rc=  1.747182   el= -0.398598   Ekb= -4.328763   kbcos= -0.367074
   l= 2   rc=  1.955272   el=  0.002326   Ekb= -1.016175   kbcos= -0.009979

KBgen: Total number of  Kleinman-Bylander projectors:    9
atom: -------------------------------------------------------------------------

atom: SANKEY-TYPE ORBITALS:
atom: Selected multiple-zeta basis: split     

SPLIT: Orbitals with angular momentum L= 0

SPLIT: Basis orbitals for state 2s

SPLIT: PAO cut-off radius determined from an
SPLIT: energy shift=  0.010000 Ry

   izeta = 1
                 lambda =    1.000000
                     rc =    4.518360
                 energy =   -0.992087
                kinetic =    0.856755
    potential(screened) =   -1.848843
       potential(ionic) =   -5.436865

   izeta = 2
                 rmatch =    3.475094
              splitnorm =    0.150000
                 energy =   -0.853594
                kinetic =    1.308346
    potential(screened) =   -2.161940
       potential(ionic) =   -6.002045

SPLIT: Orbitals with angular momentum L= 1

SPLIT: Basis orbitals for state 2p

SPLIT: PAO cut-off radius determined from an
SPLIT: energy shift=  0.010000 Ry

   izeta = 1
                 lambda =    1.000000
                     rc =    5.382558
                 energy =   -0.388318
                kinetic =    2.456485
    potential(screened) =   -2.844804
       potential(ionic) =   -6.312273

   izeta = 2
                 rmatch =    3.607901
              splitnorm =    0.150000
                 energy =   -0.250655
                kinetic =    3.636791
    potential(screened) =   -3.887446
       potential(ionic) =   -7.736789

POLgen: Perturbative polarization orbital with L=  2

POLgen: Polarization orbital for state 2p

   izeta = 1
                     rc =    5.382558
                 energy =    1.148490
                kinetic =    2.389078
    potential(screened) =   -1.240587
       potential(ionic) =   -4.090578
atom: Total number of Sankey-type orbitals: 13

atm_pop: Valence configuration (for local Pseudopot. screening):
 2s( 2.00)                                                            
 2p( 2.00)                                                            
Vna: chval, zval:    4.00000   4.00000

Vna:  Cut-off radius for the neutral-atom potential:   5.382558

atom: _________________________________________________________________________

prinput: Basis input ----------------------------------------------------------

PAO.BasisType split     

%block ChemicalSpeciesLabel
    1    1 H                       # Species index, atomic number, species label
    2    6 C                       # Species index, atomic number, species label
%endblock ChemicalSpeciesLabel

%block PAO.Basis                 # Define Basis set
H                     1                    # Species label, number of l-shells
 n=1   0   2 P   1                   # n, l, Nzeta, Polarization, NzetaPol
   5.336      4.002   
   1.000      1.000   
C                     2                    # Species label, number of l-shells
 n=2   0   2                         # n, l, Nzeta 
   4.518      3.475   
   1.000      1.000   
 n=2   1   2 P   1                   # n, l, Nzeta, Polarization, NzetaPol
   5.383      3.608   
   1.000      1.000   
%endblock PAO.Basis

prinput: ----------------------------------------------------------------------

Dumping basis to NetCDF file H.ion.nc
Dumping basis to NetCDF file C.ion.nc
coor:   Atomic-coordinates input format  =     Cartesian coordinates
coor:                                          (in Angstroms)
read_Zmatrix: Length units: Ang       
read_Zmatrix: Angle  units: deg       
read_Zmatrix: Force tolerances:
read_Zmatrix:    for lengths =     0.001556 Ry/Bohr
read_Zmatrix:    for angles  =     0.000421 Ry/rad

read_Zmatrix: Maximum displacements:
read_Zmatrix:    for lengths =     0.188973 Bohr
read_Zmatrix:    for angles  =     0.349066 rad
%block Zmatrix
molecule
      2 0 0 0 xm1 ym1 zm1 0 0 0
      2 1 0 0 CC 90.0 60.0 0 0 0
      2 2 1 0 CC CCC 90.0 0 0 0
      2 3 2 1 CC CCC 0.0 0 0 0
      2 4 3 2 CC CCC 0.0 0 0 0
      2 5 4 3 CC CCC 0.0 0 0 0
      1 1 2 3 CH CCH 180.0 0 0 0
      1 2 1 7 CH CCH 0.0 0 0 0
      1 3 2 8 CH CCH 0.0 0 0 0
      1 4 3 9 CH CCH 0.0 0 0 0
      1 5 4 10 CH CCH 0.0 0 0 0
      1 6 5 11 CH CCH 0.0 0 0 0
constants
        ym1 3.68
        xm1 3.68
        zm1 6.9032294
variables
        CC 1.417
        CH 1.112
        CCH 120.0
        CCC 120.0
%endblock Zmatrix

zmatrix: Z-matrix coordinates: (Ang ; deg )
zmatrix: (Fractional coordinates have been converted to cartesian)
molecule    1 (    12 atoms)
      3.68000000      3.68000000      6.90322940
      1.41700000     90.00000000     60.00000000
      1.41700000    120.00000000     90.00000000
      1.41700000    120.00000000      0.00000000
      1.41700000    120.00000000      0.00000000
      1.41700000    120.00000000      0.00000000
      1.11200000    120.00000000    180.00000000
      1.11200000    120.00000000      0.00000000
      1.11200000    120.00000000      0.00000000
      1.11200000    120.00000000      0.00000000
      1.11200000    120.00000000      0.00000000
      1.11200000    120.00000000      0.00000000


Z-matrix Symbol Section -------
Variables
 cc           1.41700000000000     
 ccc          120.000000000000     
 ch           1.11200000000000     
 cch          120.000000000000     
Constants
 xm1          3.68000000000000     
 ym1          3.68000000000000     
 zm1          6.90322940000000     
------------ End of Z-matrix Information


siesta: Atomic coordinates (Bohr) and species
siesta:      6.95419   6.95419  13.04522  2        1
siesta:      8.29307   9.27319  13.04522  2        2
siesta:     10.97081   9.27319  13.04522  2        3
siesta:     12.30968   6.95419  13.04522  2        4
siesta:     10.97081   4.63520  13.04522  2        5
siesta:      8.29307   4.63520  13.04522  2        6
siesta:      4.85282   6.95419  13.04522  1        7
siesta:      7.24238  11.09303  13.04522  1        8
siesta:     12.02150  11.09303  13.04522  1        9
siesta:     14.41106   6.95419  13.04522  1       10
siesta:     12.02150   2.81536  13.04522  1       11
siesta:      7.24238   2.81536  13.04522  1       12

siesta: Automatic unit cell vectors (Ang):
siesta:   11.776283    0.000000    0.000000
siesta:    0.000000   11.030875    0.000000
siesta:    0.000000    0.000000    6.266317

siesta: System type = molecule  

initatomlists: Number of atoms, orbitals, and projectors:     12   108   108

siesta: ******************** Simulation parameters ****************************
siesta:
siesta: The following are some of the parameters of the simulation.
siesta: A complete list of the parameters used, including default values,
siesta: can be found in file out.fdf
siesta:
redata: Non-Collinear-spin run           =     F
redata: SpinPolarized (Up/Down) run      =     F
redata: Number of spin components        =     1
redata: Long output                      =     F
redata: Number of Atomic Species         =        2
redata: Charge density info will appear in .RHO file
redata: Write Mulliken Pop.              =     NO
redata: Mesh Cutoff                      =   120.0000  Ry
redata: Net charge of the system         =     0.0000 |e|
redata: Max. number of SCF Iter          =       50
redata: Performing Pulay mixing using    =     5 iterations
redata: Mix DM in first SCF step ?       =     F
redata: Write Pulay info on disk?        =     F
redata: New DM Mixing Weight             =     0.3000
redata: New DM Occupancy tolerance       = 0.000000000001
redata: No kicks to SCF
redata: DM Mixing Weight for Kicks       =     0.5000
redata: DM Tolerance for SCF             =     0.000100
redata: Require Energy convergence for SCF =     F
redata: DM Energy tolerance for SCF      =     0.000100 eV
redata: Require Harris convergence for SCF =     F
redata: DM Harris energy tolerance for SCF =     0.000100 eV
redata: Using Saved Data (generic)   =     F
redata: Use continuation files for DM    =     F
redata: Neglect nonoverlap interactions  =     F
redata: Method of Calculation            =     Diagonalization
redata: Divide and Conquer               =     T
redata: Electronic Temperature           =     0.0019  Ry
redata: Fix the spin of the system       =     F
redata: Dynamics option                  =     FIRE coord. optimization
redata: Variable cell                    =     F
redata: Use continuation files for CG    =     F
redata: Max atomic displ per move        =     0.2000  Bohr
redata: Maximum number of CG moves       =        4
redata: Force tolerance                  =     0.0016  Ry/Bohr
redata: ***********************************************************************
Total number of electrons:    30.000000
Total ionic charge:    30.000000

* ProcessorY, Blocksize:    2  24

 Kpoints in:            1 . Kpoints trimmed:            1

siesta: k-grid: Number of k-points =     1
siesta: k-grid: Cutoff (effective) =     3.133 Ang
siesta: k-grid: Supercell and displacements
siesta: k-grid:    1   0   0      0.000
siesta: k-grid:    0   1   0      0.000
siesta: k-grid:    0   0   1      0.000

* Maximum dynamic memory allocated =     2 MB

siesta:                 ==============================
                            Begin CG move =      0

zmatrix: Z-matrix coordinates: (Ang ; deg )
zmatrix: (Fractional coordinates have been converted to cartesian)
molecule    1 (    12 atoms)
      3.68000000      3.68000000      6.90322940
      1.41700000     90.00000000     60.00000000
      1.41700000    120.00000000     90.00000000
      1.41700000    120.00000000      0.00000000
      1.41700000    120.00000000      0.00000000
      1.41700000    120.00000000      0.00000000
      1.11200000    120.00000000    180.00000000
      1.11200000    120.00000000      0.00000000
      1.11200000    120.00000000      0.00000000
      1.11200000    120.00000000      0.00000000
      1.11200000    120.00000000      0.00000000
      1.11200000    120.00000000      0.00000000


Z-matrix Symbol Section -------
Variables
 cc           1.41700000000000     
 ccc          120.000000000000     
 ch           1.11200000000000     
 cch          120.000000000000     
Constants
 xm1          3.68000000000000     
 ym1          3.68000000000000     
 zm1          6.90322940000000     
------------ End of Z-matrix Information

                        ==============================

outcell: Unit cell vectors (Ang):
       11.776283    0.000000    0.000000
        0.000000   11.030875    0.000000
        0.000000    0.000000    6.266317

outcell: Cell vector modules (Ang)   :   11.776283   11.030875    6.266317
outcell: Cell angles (23,13,12) (deg):     90.0000     90.0000     90.0000
outcell: Cell volume (Ang**3)        :    814.0116
New_DM. Step:     1
Initializing Density Matrix...

InitMesh: MESH =    80 x    80 x    48 =      307200
InitMesh: Mesh cutoff (required, used) =   120.000   127.546 Ry

* Maximum dynamic memory allocated =    16 MB

stepf: Fermi-Dirac step function

siesta: Program's energy decomposition (eV):
siesta: Eions   =      1613.953835
siesta: Ena     =       340.728180
siesta: Ekin    =       613.333480
siesta: Enl     =       -32.517563
siesta: DEna    =         0.000002
siesta: DUscf   =         0.000000
siesta: DUext   =         0.000000
siesta: Exc     =      -317.548229
siesta: eta*DQ  =         0.000000
siesta: Emadel  =         0.000000
siesta: Emeta   =         0.000000
siesta: Emolmec =         0.000000
siesta: Ekinion =         0.000000
siesta: Eharris =     -1027.088449
siesta: Etot    =     -1009.957965
siesta: FreeEng =     -1009.957965

siesta: iscf   Eharris(eV)      E_KS(eV)   FreeEng(eV)   dDmax  Ef(eV)
siesta:    1    -1027.0884    -1009.9580    -1009.9580  1.9553 -7.7332
timer: Routine,Calls,Time,% = IterSCF        1       8.662  76.06
elaps: Routine,Calls,Wall,% = IterSCF        1       2.164  75.87
siesta:    2    -1026.4534    -1021.6423    -1021.6423  0.2842 -1.6497
siesta:    3    -1023.9297    -1021.4694    -1021.4694  0.1891 -4.0587
siesta:    4    -1023.8477    -1023.1469    -1023.1469  0.0366 -4.5119
siesta:    5    -1023.8415    -1023.6519    -1023.6519  0.0079 -4.5250
siesta:    6    -1023.8404    -1023.7696    -1023.7696  0.0025 -4.4718
siesta:    7    -1023.8402    -1023.8308    -1023.8308  0.0003 -4.4705
siesta:    8    -1023.8402    -1023.8335    -1023.8335  0.0002 -4.4735
siesta:    9    -1023.8402    -1023.8393    -1023.8393  0.0001 -4.4736

siesta: E_KS(eV) =            -1023.8398

siesta: E_KS - E_eggbox =     -1023.8398

zmatrix: Atomic forces (eV/Ang ; eV/deg )
zmatrix: (No information if symbols are used)
molecule    1 (    12 atoms)
     1    0.000000    0.000000    0.000000
     2    0.000000    0.000000    0.000000
     3    0.000000    0.000000    0.000000
     4    0.000000    0.000000    0.000000
     5    0.000000    0.000000    0.000000
     6    0.000000    0.000000    0.000000
     7    0.000000    0.000000    0.000000
     8    0.000000    0.000000    0.000000
     9    0.000000    0.000000    0.000000
    10    0.000000    0.000000    0.000000
    11    0.000000    0.000000    0.000000
    12    0.000000    0.000000    0.000000


Variable forces (eV/Ang ; eV/deg )
 cc          -5.55982796810468     
 ccc        -0.119770172735205     
 ch         -0.809762931586421     
 cch         5.484569916777156E-005

siesta: Atomic forces (eV/Ang):
----------------------------------------
   Tot   -0.003384   -0.005301    0.003041
----------------------------------------
   Max    0.797887
   Res    0.327647    sqrt( Sum f_i^2 / 3N )
----------------------------------------
   Max    0.797887    constrained

Stress-tensor-Voigt (kbar):        8.64        8.61       -0.06        0.01        0.00        0.00
(Free)E + p*V (eV/cell)    -1026.7523
Target enthalpy (eV/cell)    -1023.8398
Fire_optim: No of elements:      4
 Power > 0
FIRE: step, dt, npos, alpha, magv, magf, long
FIREdat:     1    0.3000   1    0.1000    0.164901    0.549672    0
FIRE: nvar, x, v, f
           1   2.66801213655003      -6.487232837490771E-002
 -0.216241094583026     
           2   2.07169855802112      -0.151310295813846     
 -0.504367652712819     
           3   2.09995903541724      -9.448351118966343E-003
 -3.149450372988781E-002
           4   2.09440549569744       6.928869497032466E-005
  2.309623165677489E-004

* Maximum dynamic memory allocated =    16 MB

siesta:                 ==============================
                            Begin CG move =      1

zmatrix: Z-matrix coordinates: (Ang ; deg )
zmatrix: (Fractional coordinates have been converted to cartesian)
molecule    1 (    12 atoms)
      3.68000000      3.68000000      6.90322940
      1.41185066     90.00000000     60.00000000
      1.41185066    118.69958380     90.00000000
      1.41185066    118.69958380      0.00000000
      1.41185066    118.69958380      0.00000000
      1.41185066    118.69958380      0.00000000
      1.11125002    120.00059549    180.00000000
      1.11125002    120.00059549      0.00000000
      1.11125002    120.00059549      0.00000000
      1.11125002    120.00059549      0.00000000
      1.11125002    120.00059549      0.00000000
      1.11125002    120.00059549      0.00000000


Z-matrix Symbol Section -------
Variables
 cc           1.41185065838313     
 ccc          118.699583797949     
 ch           1.11125002248499     
 cch          120.000595492469     
Constants
 xm1          3.68000000000000     
 ym1          3.68000000000000     
 zm1          6.90322940000000     
------------ End of Z-matrix Information

                        ==============================

outcell: Unit cell vectors (Ang):
       11.776283    0.000000    0.000000
        0.000000   11.030875    0.000000
        0.000000    0.000000    6.266317

outcell: Cell vector modules (Ang)   :   11.776283   11.030875    6.266317
outcell: Cell angles (23,13,12) (deg):     90.0000     90.0000     90.0000
outcell: Cell volume (Ang**3)        :    814.0116
New_DM. Step:     2
Re-using DM from previous geometry...
Re-using DM without extrapolation...
Density Matrix sparsity pattern changed.

siesta: iscf   Eharris(eV)      E_KS(eV)   FreeEng(eV)   dDmax  Ef(eV)
siesta:    1    -1023.3078    -1024.1260    -1024.1260  0.0976 -4.3760
siesta:    2    -1023.7438    -1022.9613    -1022.9613  0.1026 -5.1028
siesta:    3    -1023.1932    -1023.4480    -1023.4480  0.0270 -4.4933
siesta:    4    -1023.1917    -1023.1625    -1023.1625  0.0067 -4.4913
siesta:    5    -1023.1914    -1023.1709    -1023.1709  0.0030 -4.4835
siesta:    6    -1023.1914    -1023.1836    -1023.1836  0.0004 -4.4855
siesta:    7    -1023.1914    -1023.1862    -1023.1862  0.0002 -4.4868
siesta:    8    -1023.1914    -1023.1897    -1023.1897  0.0001 -4.4868

siesta: E_KS(eV) =            -1023.1906

zmatrix: Atomic forces (eV/Ang ; eV/deg )
zmatrix: (No information if symbols are used)
molecule    1 (    12 atoms)
     1    0.000000    0.000000    0.000000
     2    0.000000    0.000000    0.000000
     3    0.000000    0.000000    0.000000
     4    0.000000    0.000000    0.000000
     5    0.000000    0.000000    0.000000
     6    0.000000    0.000000    0.000000
     7    0.000000    0.000000    0.000000
     8    0.000000    0.000000    0.000000
     9    0.000000    0.000000    0.000000
    10    0.000000    0.000000    0.000000
    11    0.000000    0.000000    0.000000
    12    0.000000    0.000000    0.000000


Variable forces (eV/Ang ; eV/deg )
 cc           6.52740310264384     
 ccc          1.31666937143759     
 ch         -0.541431480037664     
 cch        -9.321271524440062E-003

siesta: Atomic forces (eV/Ang):
----------------------------------------
   Tot    0.011986   -0.002681    0.003204
----------------------------------------
   Max    8.849292
   Res    2.349203    sqrt( Sum f_i^2 / 3N )
----------------------------------------
   Max    8.849292    constrained

Stress-tensor-Voigt (kbar):       -0.02      -16.99       -0.05       11.70        0.00        0.00
(Free)E + p*V (eV/cell)    -1020.3022
Target enthalpy (eV/cell)    -1023.1906
 Power < 0
FIRE: step, dt, npos, alpha, magv, magf, long
FIREdat:     2    0.1500   0    0.1000    1.665196    5.550652    0
FIRE: nvar, x, v, f
           1   2.67943644248015       7.616203953419337E-002
  0.253873465113978     
           2   2.32120846628732        1.66339938844132     
   5.54466462813775     
           3   2.09901141830659      -6.317447404310458E-003
 -2.105815801436819E-002
           4   2.09263910722252      -1.177592316613260E-002
 -3.925307722044200E-002

* Maximum dynamic memory allocated =    16 MB

siesta:                 ==============================
                            Begin CG move =      2

zmatrix: Z-matrix coordinates: (Ang ; deg )
zmatrix: (Fractional coordinates have been converted to cartesian)
molecule    1 (    12 atoms)
      3.68000000      3.68000000      6.90322940
      1.41789614     90.00000000     60.00000000
      1.41789614    132.99544849     90.00000000
      1.41789614    132.99544849      0.00000000
      1.41789614    132.99544849      0.00000000
      1.41789614    132.99544849      0.00000000
      1.11074857    119.89938889    180.00000000
      1.11074857    119.89938889      0.00000000
      1.11074857    119.89938889      0.00000000
      1.11074857    119.89938889      0.00000000
      1.11074857    119.89938889      0.00000000
      1.11074857    119.89938889      0.00000000


Z-matrix Symbol Section -------
Variables
 cc           1.41789613832232     
 ccc          132.995448488298     
 ch           1.11074856530523     
 cch          119.899388887875     
Constants
 xm1          3.68000000000000     
 ym1          3.68000000000000     
 zm1          6.90322940000000     
------------ End of Z-matrix Information

                        ==============================

outcell: Unit cell vectors (Ang):
       11.776283    0.000000    0.000000
        0.000000   11.030875    0.000000
        0.000000    0.000000    6.266317

outcell: Cell vector modules (Ang)   :   11.776283   11.030875    6.266317
outcell: Cell angles (23,13,12) (deg):     90.0000     90.0000     90.0000
outcell: Cell volume (Ang**3)        :    814.0116
New_DM. Step:     3
Re-using DM from previous geometry...
Extrapolating Density Matrix...
Density Matrix sparsity pattern changed.

siesta: iscf   Eharris(eV)      E_KS(eV)   FreeEng(eV)   dDmax  Ef(eV)
siesta:    1    -1074.8345     -987.6599     -987.6599  1.0465 -3.6173
siesta:    2    -1723.5221     -823.6298     -823.6303  3.9489-13.1797
siesta:    3    -1024.3674     -978.8594     -978.8594  0.6436 -3.3373
siesta:    4    -1018.4035     -985.5579     -985.5579  0.9585 -4.1420
siesta:    5    -1016.5197     -988.0954     -988.0954  0.4581 -4.5886
siesta:    6    -1016.3380     -989.1538     -989.1538  0.4681 -4.6344
siesta:    7    -1016.2041     -994.0032     -994.0032  0.4673 -4.8101
siesta:    8    -1016.0249    -1005.7367    -1005.7367  0.3631 -4.9455
siesta:    9    -1015.8709    -1009.4244    -1009.4244  0.1092 -5.0644
siesta:   10    -1015.8504    -1014.1684    -1014.1684  0.0618 -4.9889
siesta:   11    -1015.8724    -1015.5671    -1015.5671  0.1235 -4.9804
siesta:   12    -1015.8666    -1015.5005    -1015.5005  0.1157 -4.9799
siesta:   13    -1015.8536    -1015.5392    -1015.5392  0.0732 -4.9724
siesta:   14    -1015.8457    -1015.6385    -1015.6385  0.0069 -4.9818
siesta:   15    -1015.8459    -1015.8391    -1015.8391  0.0107 -4.9745
siesta:   16    -1015.8457    -1015.8531    -1015.8531  0.0029 -4.9744
siesta:   17    -1015.8457    -1015.8555    -1015.8555  0.0009 -4.9742
siesta:   18    -1015.8457    -1015.8443    -1015.8443  0.0005 -4.9745
siesta:   19    -1015.8457    -1015.8470    -1015.8470  0.0004 -4.9745
siesta:   20    -1015.8457    -1015.8462    -1015.8462  0.0000 -4.9744

siesta: E_KS(eV) =            -1015.8458

zmatrix: Atomic forces (eV/Ang ; eV/deg )
zmatrix: (No information if symbols are used)
molecule    1 (    12 atoms)
     1    0.000000    0.000000    0.000000
     2    0.000000    0.000000    0.000000
     3    0.000000    0.000000    0.000000
     4    0.000000    0.000000    0.000000
     5    0.000000    0.000000    0.000000
     6    0.000000    0.000000    0.000000
     7    0.000000    0.000000    0.000000
     8    0.000000    0.000000    0.000000
     9    0.000000    0.000000    0.000000
    10    0.000000    0.000000    0.000000
    11    0.000000    0.000000    0.000000
    12    0.000000    0.000000    0.000000


Variable forces (eV/Ang ; eV/deg )
 cc          -12.1403929170406     
 ccc        -0.330022564505849     
 ch          0.838766293158976     
 cch        -1.582749353788188E-002

siesta: Atomic forces (eV/Ang):
----------------------------------------
   Tot   -0.017092    0.014635   -0.000372
----------------------------------------
   Max    4.100856
   Res    1.564945    sqrt( Sum f_i^2 / 3N )
----------------------------------------
   Max    4.100856    constrained

Stress-tensor-Voigt (kbar):       16.42       15.51       -0.09        0.23        0.00       -0.01
(Free)E + p*V (eV/cell)    -1021.2382
Target enthalpy (eV/cell)    -1015.8458
 Power < 0
FIRE: step, dt, npos, alpha, magv, magf, long
FIREdat:     3    0.0750   0    0.1000    0.220450    1.469666    0
FIRE: nvar, x, v, f
           1   2.67412439262605      -7.082733138801946E-002
 -0.472182209253463     
           2   2.30557358072267      -0.208465140862012     
  -1.38976760574674     
           3   2.09937842194442       4.893381837690402E-003
  3.262254558460268E-002
           4   2.09188927652349      -9.997742653771341E-003
 -6.665161769180894E-002

* Maximum dynamic memory allocated =    16 MB

siesta:                 ==============================
                            Begin CG move =      3

zmatrix: Z-matrix coordinates: (Ang ; deg )
zmatrix: (Fractional coordinates have been converted to cartesian)
molecule    1 (    12 atoms)
      3.68000000      3.68000000      6.90322940
      1.41508512     90.00000000     60.00000000
      1.41508512    132.09963553     90.00000000
      1.41508512    132.09963553      0.00000000
      1.41508512    132.09963553      0.00000000
      1.41508512    132.09963553      0.00000000
      1.11094278    119.85642675    180.00000000
      1.11094278    119.85642675      0.00000000
      1.11094278    119.85642675      0.00000000
      1.11094278    119.85642675      0.00000000
      1.11094278    119.85642675      0.00000000
      1.11094278    119.85642675      0.00000000


Z-matrix Symbol Section -------
Variables
 cc           1.41508512371668     
 ccc          132.099635532274     
 ch           1.11094277518928     
 cch          119.856426753471     
Constants
 xm1          3.68000000000000     
 ym1          3.68000000000000     
 zm1          6.90322940000000     
------------ End of Z-matrix Information

                        ==============================

outcell: Unit cell vectors (Ang):
       11.776283    0.000000    0.000000
        0.000000   11.030875    0.000000
        0.000000    0.000000    6.266317

outcell: Cell vector modules (Ang)   :   11.776283   11.030875    6.266317
outcell: Cell angles (23,13,12) (deg):     90.0000     90.0000     90.0000
outcell: Cell volume (Ang**3)        :    814.0116

NOTE: orbital pair    104    89 (at least) is multiply connected.
NOTE: Harmless for Gamma calculations, except if a COHP analysis is intended.
New_DM. Step:     4
Re-using DM from previous geometry...
Extrapolating Density Matrix...
Density Matrix sparsity pattern changed.

siesta: iscf   Eharris(eV)      E_KS(eV)   FreeEng(eV)   dDmax  Ef(eV)
siesta:    1    -1042.9981    -1017.9954    -1017.9954  1.2581 -3.2165
siesta:    2    -1326.4109     -943.8545     -943.8545  3.9261 -5.3239
siesta:    3    -1019.7500    -1009.6832    -1009.6832  0.8519 -4.2363
siesta:    4    -1021.5933    -1008.2157    -1008.2157  0.7472 -4.0466
siesta:    5    -1016.6526    -1005.0541    -1005.0541  0.2582 -4.9675
siesta:    6    -1016.3421    -1006.7094    -1006.7094  0.1939 -4.9837
siesta:    7    -1016.2952    -1008.4473    -1008.4473  0.1560 -4.9243
siesta:    8    -1016.2113    -1013.5075    -1013.5075  0.0768 -4.9464
siesta:    9    -1016.2084    -1014.1548    -1014.1548  0.0974 -4.9096
siesta:   10    -1016.1993    -1014.8814    -1014.8814  0.0612 -4.9124
siesta:   11    -1016.1918    -1015.9535    -1015.9535  0.0286 -4.8972
siesta:   12    -1016.1907    -1016.1329    -1016.1329  0.0019 -4.8947
siesta:   13    -1016.1907    -1016.1930    -1016.1930  0.0024 -4.8962
siesta:   14    -1016.1907    -1016.1748    -1016.1748  0.0019 -4.8974
siesta:   15    -1016.1908    -1016.1955    -1016.1955  0.0010 -4.8970
siesta:   16    -1016.1907    -1016.1905    -1016.1905  0.0004 -4.8972
siesta:   17    -1016.1907    -1016.1910    -1016.1910  0.0002 -4.8971
siesta:   18    -1016.1907    -1016.1913    -1016.1913  0.0000 -4.8971

siesta: E_KS(eV) =            -1016.1909

zmatrix: Atomic forces (eV/Ang ; eV/deg )
zmatrix: (No information if symbols are used)
molecule    1 (    12 atoms)
     1    0.000000    0.000000    0.000000
     2    0.000000    0.000000    0.000000
     3    0.000000    0.000000    0.000000
     4    0.000000    0.000000    0.000000
     5    0.000000    0.000000    0.000000
     6    0.000000    0.000000    0.000000
     7    0.000000    0.000000    0.000000
     8    0.000000    0.000000    0.000000
     9    0.000000    0.000000    0.000000
    10    0.000000    0.000000    0.000000
    11    0.000000    0.000000    0.000000
    12    0.000000    0.000000    0.000000


Variable forces (eV/Ang ; eV/deg )
 cc          -11.9139790099498     
 ccc        -0.362803676603962     
 ch          0.708064772644216     
 cch        -1.150196187978378E-002

siesta: Atomic forces (eV/Ang):
----------------------------------------
   Tot    0.011444    0.007003   -0.003765
----------------------------------------
   Max    3.989519
   Res    1.521266    sqrt( Sum f_i^2 / 3N )
----------------------------------------
   Max    3.989519    constrained

Stress-tensor-Voigt (kbar):       16.51       15.19       -0.09       -1.07        0.00        0.00
(Free)E + p*V (eV/cell)    -1021.5456
Target enthalpy (eV/cell)    -1016.1909
 Power > 0
FIRE: step, dt, npos, alpha, magv, magf, long
FIREdat:     4    0.0750   1    0.1000    0.340208    1.597509    0
FIRE: nvar, x, v, f
           1   2.66756072183368      -0.104892217427179     
 -0.463376182991680     
           2   2.28562396877969      -0.323287817115792     
  -1.52781309891636     
           3   2.09981468110703       6.849505375296108E-003
  2.753910774769203E-002
           4   2.09102807189618      -1.329908757813991E-002
 -4.843624570638759E-002

* Maximum dynamic memory allocated =    16 MB

siesta:                 ==============================
                            Begin CG move =      4

zmatrix: Z-matrix coordinates: (Ang ; deg )
zmatrix: (Fractional coordinates have been converted to cartesian)
molecule    1 (    12 atoms)
      3.68000000      3.68000000      6.90322940
      1.41161178     90.00000000     60.00000000
      1.41161178    130.95660697     90.00000000
      1.41161178    130.95660697      0.00000000
      1.41161178    130.95660697      0.00000000
      1.41161178    130.95660697      0.00000000
      1.11117363    119.80708336    180.00000000
      1.11117363    119.80708336      0.00000000
      1.11117363    119.80708336      0.00000000
      1.11117363    119.80708336      0.00000000
      1.11117363    119.80708336      0.00000000
      1.11117363    119.80708336      0.00000000


Z-matrix Symbol Section -------
Variables
 cc           1.41161178009778     
 ccc          130.956606965017     
 ch           1.11117363350417     
 cch          119.807083363029     
Constants
 xm1          3.68000000000000     
 ym1          3.68000000000000     
 zm1          6.90322940000000     
------------ End of Z-matrix Information

                        ==============================

outcell: Unit cell vectors (Ang):
       11.776283    0.000000    0.000000
        0.000000   11.030875    0.000000
        0.000000    0.000000    6.266317

outcell: Cell vector modules (Ang)   :   11.776283   11.030875    6.266317
outcell: Cell angles (23,13,12) (deg):     90.0000     90.0000     90.0000
outcell: Cell volume (Ang**3)        :    814.0116
New_DM. Step:     5
Re-using DM from previous geometry...
Extrapolating Density Matrix...
Density Matrix sparsity pattern changed.

siesta: iscf   Eharris(eV)      E_KS(eV)   FreeEng(eV)   dDmax  Ef(eV)
siesta:    1    -1016.6898    -1016.6822    -1016.6822  0.0448 -4.7170
siesta:    2    -1017.1503    -1016.6240    -1016.6240  0.2513 -4.8577
siesta:    3    -1016.6804    -1016.6701    -1016.6701  0.0157 -4.7756
siesta:    4    -1016.6803    -1016.6791    -1016.6791  0.0119 -4.7683
siesta:    5    -1016.6800    -1016.6872    -1016.6872  0.0061 -4.7767
siesta:    6    -1016.6799    -1016.6867    -1016.6867  0.0012 -4.7758
siesta:    7    -1016.6799    -1016.6834    -1016.6834  0.0007 -4.7734
siesta:    8    -1016.6799    -1016.6815    -1016.6815  0.0002 -4.7718
siesta:    9    -1016.6799    -1016.6803    -1016.6803  0.0001 -4.7723

siesta: E_KS(eV) =            -1016.6800

zmatrix: Atomic forces (eV/Ang ; eV/deg )
zmatrix: (No information if symbols are used)
molecule    1 (    12 atoms)
     1    0.000000    0.000000    0.000000
     2    0.000000    0.000000    0.000000
     3    0.000000    0.000000    0.000000
     4    0.000000    0.000000    0.000000
     5    0.000000    0.000000    0.000000
     6    0.000000    0.000000    0.000000
     7    0.000000    0.000000    0.000000
     8    0.000000    0.000000    0.000000
     9    0.000000    0.000000    0.000000
    10    0.000000    0.000000    0.000000
    11    0.000000    0.000000    0.000000
    12    0.000000    0.000000    0.000000


Variable forces (eV/Ang ; eV/deg )
 cc          -11.7176714841876     
 ccc        -0.416477381322326     
 ch          0.527095086862576     
 cch        -5.952836092643706E-003

siesta: Atomic forces (eV/Ang):
----------------------------------------
   Tot    0.017946   -0.012053   -0.001456
----------------------------------------
   Max    3.878940
   Res    1.462690    sqrt( Sum f_i^2 / 3N )
----------------------------------------
   Max    3.878940    constrained

Stress-tensor-Voigt (kbar):       16.51       14.98       -0.09       -2.89        0.00        0.00
(Free)E + p*V (eV/cell)    -1021.9973
Target enthalpy (eV/cell)    -1016.6800
 Power > 0
FIRE: step, dt, npos, alpha, magv, magf, long
FIREdat:     5    0.0750   2    0.1000    0.475903    1.812375    0
FIRE: nvar, x, v, f
           1   2.65855710912148      -0.137138460703519     
 -0.455741098868715     
           2   2.25640021830706      -0.455419006137525     
  -1.75383999562171     
           3   2.10036354233130       8.086920870704872E-003
  2.050056569850190E-002
           4   2.09002458701168      -1.431985449560036E-002
 -2.506816094912697E-002

* Maximum dynamic memory allocated =    16 MB

outcoor: Final (unrelaxed) atomic coordinates (Ang):        
    3.68000000    3.68000000    6.90322940   2       1  C
    4.38342364    4.89836548    6.90322940   2       2  C
    5.77184944    5.12528627    6.90322940   2       3  C
    6.82656319    4.19426631    6.90322940   2       4  C
    6.77370149    2.78841251    6.90322940   2       5  C
    5.65204998    1.93922635    6.90322940   2       6  C
    2.56854654    3.68485766    6.90322940   1       7  H
    3.82349005    5.85848359    6.90322940   1       8  H
    6.16049956    6.16658521    6.90322940   1       9  H
    7.87863708    4.55272539    6.90322940   1      10  H
    7.71727268    2.20102355    6.90322940   1      11  H
    5.79480247    0.83696771    6.90322940   1      12  H

zmatrix: Z-matrix coordinates: (Ang ; deg )
zmatrix: (Fractional coordinates have been converted to cartesian)
molecule    1 (    12 atoms)
      3.68000000      3.68000000      6.90322940
      1.40684728     90.00000000     60.00000000
      1.40684728    129.28220940     90.00000000
      1.40684728    129.28220940      0.00000000
      1.40684728    129.28220940      0.00000000
      1.40684728    129.28220940      0.00000000
      1.11146408    119.74958791    180.00000000
      1.11146408    119.74958791      0.00000000
      1.11146408    119.74958791      0.00000000
      1.11146408    119.74958791      0.00000000
      1.11146408    119.74958791      0.00000000
      1.11146408    119.74958791      0.00000000


Z-matrix Symbol Section -------
Variables
 cc           1.40684727533358     
 ccc          129.282209401392     
 ch           1.11146407824025     
 cch          119.749587914342     
Constants
 xm1          3.68000000000000     
 ym1          3.68000000000000     
 zm1          6.90322940000000     
------------ End of Z-matrix Information


siesta: Program's energy decomposition (eV):
siesta: Eions   =      1613.953835
siesta: Ena     =       344.976979
siesta: Ekin    =       714.721351
siesta: Enl     =      -112.825082
siesta: DEna    =       -27.037694
siesta: DUscf   =         3.349745
siesta: DUext   =         0.000000
siesta: Exc     =      -325.911458
siesta: eta*DQ  =         0.000000
siesta: Emadel  =         0.000000
siesta: Emeta   =         0.000000
siesta: Emolmec =         0.000000
siesta: Ekinion =         0.000000
siesta: Eharris =     -1016.679908
siesta: Etot    =     -1016.679994
siesta: FreeEng =     -1016.679994

siesta: Final energy (eV):
siesta:       Kinetic =     714.721351
siesta:       Hartree =    1611.113518
siesta:    Ext. field =       0.000000
siesta:   Exch.-corr. =    -325.911458
siesta:  Ion-electron =   -3862.453527
siesta:       Ion-ion =     845.850121
siesta:       Ekinion =       0.000000
siesta:         Total =   -1016.679994

siesta: Atomic forces (eV/Ang):
siesta:      1    3.389274    2.266646    0.000451
siesta:      2   -1.499398   -2.646994    0.000154
siesta:      3    3.049802   -1.213208    0.000170
siesta:      4   -0.959000    1.150420   -0.000147
siesta:      5   -3.130492   -3.022561    0.000099
siesta:      6    1.166011    3.878940    0.000281
siesta:      7   -0.041570   -0.830729   -0.000239
siesta:      8   -0.705412   -0.091080   -0.000131
siesta:      9   -0.489392    0.095407   -0.000129
siesta:     10   -0.267513    0.538884   -0.000657
siesta:     11    0.367302    0.140727   -0.000910
siesta:     12   -0.861666   -0.278506   -0.000398
siesta: ----------------------------------------
siesta:    Tot    0.017946   -0.012053   -0.001456

siesta: Stress tensor (static) (eV/Ang**3):
siesta:     0.010304   -0.001805    0.000001
siesta:    -0.001803    0.009347    0.000001
siesta:     0.000001    0.000001   -0.000054

siesta: Cell volume =        814.011582 Ang**3

siesta: Pressure (static):
siesta:                Solid            Molecule  Units
siesta:          -0.00007114          0.00000016  Ry/Bohr**3
siesta:          -0.00653221          0.00001505  eV/Ang**3
siesta:         -10.46587376          0.02410759  kBar
(Free)E+ p_basis*V_orbitals  =       -1012.676801
(Free)Eharris+ p_basis*V_orbitals  =       -1012.676373

siesta: Electric dipole (a.u.)  =    0.236918    0.175418   -0.000077
siesta: Electric dipole (Debye) =    0.602186    0.445869   -0.000195

* Maximum dynamic memory allocated : Node    0 =    16 MB
* Maximum dynamic memory allocated : Node    1 =    12 MB
* Maximum dynamic memory allocated : Node    2 =    10 MB
* Maximum dynamic memory allocated : Node    3 =     8 MB

* Maximum memory occured during redistribXZ                   

timer: CPU execution times:
timer:  Routine       Calls   Time/call    Tot.time        %
timer:  siesta            1     182.529     182.529   100.00
timer:  Setup             1       0.925       0.925     0.51
timer:  bands             1       0.000       0.000     0.00
timer:  writewave         1       0.004       0.004     0.00
timer:  KSV_init          1       0.000       0.000     0.00
timer:  IterMD            5      36.316     181.582    99.48
timer:  hsparse           5       0.008       0.040     0.02
timer:  overlap           5       0.307       1.536     0.84
timer:  IterSCF          64       2.449     156.763    85.88
timer:  kinefsm          10       0.151       1.514     0.83
timer:  nlefsm           10       0.330       3.302     1.81
timer:  DHSCF            69       2.226     153.590    84.15
timer:  DHSCF1            1       0.216       0.216     0.12
timer:  DHSCF2            5       1.967       9.834     5.39
timer:  REORD           562       0.001       0.355     0.19
timer:  POISON           74       0.108       8.017     4.39
timer:  DHSCF3           69       1.990     137.324    75.23
timer:  rhoofd           69       0.425      29.316    16.06
timer:  cellXC           69       0.095       6.541     3.58
timer:  vmat             69       0.756      52.178    28.59
timer:  MolMec           10       0.000       0.000     0.00
timer:  diagon           64       0.042       2.709     1.48
timer:  r-eigvec         64       0.041       2.624     1.44
timer:  r-buildHS        64       0.000       0.009     0.00
timer:  rdiag            64       0.041       2.614     1.43
timer:  rdiag1           64       0.001       0.079     0.04
timer:  rdiag2           64       0.004       0.228     0.12
timer:  rdiag3           64       0.033       2.098     1.15
timer:  rdiag4           64       0.002       0.106     0.06
timer:  r-buildD         64       0.001       0.061     0.03
timer:  DHSCF4            5       1.221       6.106     3.35
timer:  dfscf             5       1.108       5.541     3.04
timer:  overfsm           5       0.014       0.069     0.04
timer:  optical           1       0.013       0.013     0.01
  

elaps: ELAPSED times:
elaps:  Routine       Calls   Time/call    Tot.time        %
elaps:  siesta            1      46.480      46.480   100.00
elaps:  Setup             1       0.235       0.235     0.51
elaps:  bands             1       0.000       0.000     0.00
elaps:  writewave         1       0.001       0.001     0.00
elaps:  KSV_init          1       0.000       0.000     0.00
elaps:  IterMD            5       9.248      46.240    99.48
elaps:  hsparse           5       0.003       0.013     0.03
elaps:  overlap           5       0.092       0.459     0.99
elaps:  IterSCF          64       0.625      40.014    86.09
elaps:  kinefsm          10       0.046       0.458     0.99
elaps:  nlefsm           10       0.086       0.859     1.85
elaps:  DHSCF            69       0.578      39.853    85.74
elaps:  DHSCF1            1       0.053       0.053     0.11
elaps:  DHSCF2            5       0.492       2.460     5.29
elaps:  REORD           562       0.000       0.094     0.20
elaps:  POISON           74       0.027       2.011     4.33
elaps:  DHSCF3           69       0.498      34.341    73.88
elaps:  rhoofd           69       0.251      17.288    37.19
elaps:  cellXC           69       0.024       1.636     3.52
elaps:  vmat             69       0.189      13.048    28.07
elaps:  MolMec           10       0.000       0.000     0.00
elaps:  diagon           64       0.010       0.670     1.44
elaps:  r-eigvec         64       0.010       0.649     1.40
elaps:  r-buildHS        64       0.000       0.004     0.01
elaps:  rdiag            64       0.010       0.644     1.39
elaps:  rdiag1           64       0.000       0.026     0.06
elaps:  rdiag2           64       0.001       0.056     0.12
elaps:  rdiag3           64       0.008       0.524     1.13
elaps:  rdiag4           64       0.000       0.022     0.05
elaps:  r-buildD         64       0.000       0.017     0.04
elaps:  DHSCF4            5       0.592       2.961     6.37
elaps:  dfscf             5       0.537       2.684     5.77
elaps:  overfsm           5       0.004       0.021     0.05
elaps:  optical           1       0.000       0.000     0.00
  
>> End of run:  29-SEP-2009  17:25:33
