
                           ***********************       
                           *  WELCOME TO SIESTA  *       
                           ***********************       

reinit: Reading from ../fire_benzene.fdf

reinit: -----------------------------------------------------------------------
reinit: System Name: benzene with FIRE optimizer (Reduced set of variables
reinit: -----------------------------------------------------------------------
reinit: System Label: fire_benzene
reinit: -----------------------------------------------------------------------
Siesta Version: siesta-4.1--731
Architecture  : x86_64-linux-n-62-18-14
Compiler flags: mpifort -m64 -fPIC -O3 -march=native -ftree-vectorize -fexpensive-optimizatioons -funroll-loops -fprefetch-loop-arrays -fno-second-underscore  -flto -fuse-linker-plugin
PP flags      : -I/zdata/groups/common/nicpa/2016-oct/generic/build-tools/1.0/include -I/zdatta/groups/common/nicpa/2016-oct/generic/gmp/6.1.0/include -I/zdata/groups/common/nicpa/2016-oct/generic/mpfr/3.1.4/include -I/zdata/groups/common/nicpa/2016-oct/generic/mpc/1.0.3/include -I/zdata/groups/common/nicpa/2016-oct/generic/isl/0.16.1/include -I/zdata/groups/common/nicpa/2016-oct/generic/gcc/6.2.0/include -I/zdata/groups/common/nicpa/2016-oct/generic/numactl/2.0.11/include -I/zdata/groups/common/nicpa/2016-oct/XeonE5-2665/zlib/1.2.8/gnu-6.2.0/include -I/zdata/groups/common/nicpa/2016-oct/XeonE5-2665/libxml2/2.9.4/gnu-6.2.0/include -I/zdata/groups/common/nicpa/2016-oct/XeonE5-2665/hwloc/1.11.4/gnu-6.2.0/include -I/zdata/groups/common/nicpa/2016-oct/XeonE5-2665/openmpi/2.0.1/gnu-6.2.0/include -I/zdata/groups/common/nicpa/2016-oct/XeonE5-2665/hdf5/1.8.17/gnu-6.2.0/include -I/zdata/groups/common/nicpa/2016-oct/XeonE5-2665/pnetcdf/1.7.0/gnu-6.2.0/include -I/zdata/groups/common/nicpa/2016-oct/XeonE5-2665/netcdf/4.4.1/gnu-6.2.0/include -I/zdata/groups/common/nicpa/2016-oct/XeonE5-2665/flook/0.7.0/gnu-6.2.0/include -I/zdata/groups/common/nicpa/2016-oct/XeonE5-2665/parmetis/4.0.3/gnu-6.2.0/include -I/zdata/groups/common/nicpa/2016-oct/XeonE5-2665/scalapack/204/gnu-6.2.0/include -I/zdata/groups/common/nicpa/2016-oct/XeonE5-2665/openblas/0.2.19/gnu-6.2.0/include -I/zdata/groups/common/nicpa/2016-oct/XeonE5-2665/mumps/5.0.2/gnu-6.2.0/include -I/zdata/groups/common/nicpa/2016-oct/XeonE5-2665/fftw/3.3.5/gnu-6.2.0/include -DMPI -DFC_HAVE_FLUSH -DFC_HAVE_ABORT -DCDF -DCDF4 -DSIESTA__METIS -DSIESTA__MUMPS -DTS_NOCHECKS -DNCDF -DNCDF_4 -DNCDF_PARALLEL -DSIESTA__FLOOK
Libraries     : -lnetcdff -lnetcdf -lpnetcdf -lhdf5_hl -lhdf5 -lz  -lzmumps -lmumps_common -llpord -lparmetis -lmetis -lscalapack -lopenblas  -lmetis -flto -fuse-linker-plugin  -L/zdata/groups/common/nicpa/2016-oct/XeonE5-2665/flook/0.7.0/gnu-6.2.0/lib -Wl,-rpath=/zdata/groups/common/nicpa/2016-oct/XeonE5-2665/flook/0.7.0/gnu-6.2.0/lib -lflookall -ldl
PARALLEL version
NetCDF support
NetCDF-4 support
NetCDF-4 MPI-IO support
METIS ordering support

* Running on 8 nodes in parallel
>> Start of run:   2-JUL-2017  11:26:06

initatom: Reading input for the pseudopotentials and atomic orbitals ----------
Species number:   1 Atomic number:    1 Label: H
Species number:   2 Atomic number:    6 Label: C

Ground state valence configuration:   1s01
Reading pseudopotential information in formatted form from H.psf

Valence configuration for pseudopotential generation:
1s( 1.00) rc: 1.25
2p( 0.00) rc: 1.25
3d( 0.00) rc: 1.25
4f( 0.00) rc: 1.25
Ground state valence configuration:   2s02  2p02
Reading pseudopotential information in formatted form from C.psf

Valence configuration for pseudopotential generation:
2s( 2.00) rc: 1.49
2p( 2.00) rc: 1.52
3d( 0.00) rc: 1.58
relmxkb: Read Max KB Ang. Momentum=    2 for species C
For H, standard SIESTA heuristics set lmxkb to 2
 (one more than the basis l, including polarization orbitals).
Use PS.lmax or PS.KBprojectors blocks to override.

<basis_specs>
===============================================================================
H                    Z=   1    Mass=  1.0100        Charge= 0.17977+309
Lmxo=0 Lmxkb= 2    BasisType=split      Semic=F
L=0  Nsemic=0  Cnfigmx=1
          n=1  nzeta=2  polorb=1
            splnorm:   0.15000    
               vcte:    0.0000    
               rinn:    0.0000    
               qcoe:    0.0000    
               qyuk:    0.0000    
               qwid:   0.10000E-01
                rcs:    0.0000      0.0000    
            lambdas:    1.0000      1.0000    
-------------------------------------------------------------------------------
L=0  Nkbl=1  erefs: 0.17977+309
L=1  Nkbl=1  erefs: 0.17977+309
L=2  Nkbl=1  erefs: 0.17977+309
===============================================================================
</basis_specs>

atom: Called for H                     (Z =   1)

read_vps: Pseudopotential generation method:
read_vps: ATM3      Troullier-Martins                       
Total valence charge:    1.00000

xc_check: Exchange-correlation functional:
xc_check: Ceperley-Alder
V l=0 = -2*Zval/r beyond r=  1.2343
V l=1 = -2*Zval/r beyond r=  1.2189
V l=2 = -2*Zval/r beyond r=  1.2189
All V_l potentials equal beyond r=  1.2343
This should be close to max(r_c) in ps generation
All pots = -2*Zval/r beyond r=  1.2343

VLOCAL1: 99.0% of the norm of Vloc inside     28.493 Ry
VLOCAL1: 99.9% of the norm of Vloc inside     64.935 Ry
atom: Maximum radius for 4*pi*r*r*local-pseudopot. charge    1.45251
atom: Maximum radius for r*vlocal+2*Zval:    1.21892
GHOST: No ghost state for L =  0
GHOST: No ghost state for L =  1
GHOST: No ghost state for L =  2

KBgen: Kleinman-Bylander projectors: 
   l= 0   rc=  1.364359   el= -0.467325   Ekb= -2.005361   kbcos= -0.336422
   l= 1   rc=  1.434438   el=  0.001430   Ekb= -0.501708   kbcos= -0.021697
   l= 2   rc=  1.470814   el=  0.002365   Ekb= -0.190555   kbcos= -0.002281

KBgen: Total number of  Kleinman-Bylander projectors:    9
atom: -------------------------------------------------------------------------

atom: SANKEY-TYPE ORBITALS:
atom: Selected multiple-zeta basis: split     

SPLIT: Orbitals with angular momentum L= 0

SPLIT: Basis orbitals for state 1s

SPLIT: PAO cut-off radius determined from an
SPLIT: energy shift=  0.010000 Ry

   izeta = 1
                 lambda =    1.000000
                     rc =    5.336316
                 energy =   -0.457946
                kinetic =    0.886710
    potential(screened) =   -1.344656
       potential(ionic) =   -1.876618

   izeta = 2
                 rmatch =    4.002347
              splitnorm =    0.150000
                 energy =   -0.355904
                kinetic =    1.439488
    potential(screened) =   -1.795392
       potential(ionic) =   -2.364690

POLgen: Perturbative polarization orbital with L=  1

POLgen: Polarization orbital for state 1s

   izeta = 1
                     rc =    5.336316
                 energy =    0.616245
                kinetic =    1.262150
    potential(screened) =   -0.645906
       potential(ionic) =   -1.116519
atom: Total number of Sankey-type orbitals:  5

atm_pop: Valence configuration (for local Pseudopot. screening):
 1s( 1.00)                                                            
Vna: chval, zval:    1.00000   1.00000

Vna:  Cut-off radius for the neutral-atom potential:   5.336316

atom: _________________________________________________________________________

<basis_specs>
===============================================================================
C                    Z=   6    Mass=  12.010        Charge= 0.17977+309
Lmxo=1 Lmxkb= 2    BasisType=split      Semic=F
L=0  Nsemic=0  Cnfigmx=2
          n=1  nzeta=2  polorb=0
            splnorm:   0.15000    
               vcte:    0.0000    
               rinn:    0.0000    
               qcoe:    0.0000    
               qyuk:    0.0000    
               qwid:   0.10000E-01
                rcs:    0.0000      0.0000    
            lambdas:    1.0000      1.0000    
L=1  Nsemic=0  Cnfigmx=2
          n=1  nzeta=2  polorb=1
            splnorm:   0.15000    
               vcte:    0.0000    
               rinn:    0.0000    
               qcoe:    0.0000    
               qyuk:    0.0000    
               qwid:   0.10000E-01
                rcs:    0.0000      0.0000    
            lambdas:    1.0000      1.0000    
-------------------------------------------------------------------------------
L=0  Nkbl=1  erefs: 0.17977+309
L=1  Nkbl=1  erefs: 0.17977+309
L=2  Nkbl=1  erefs: 0.17977+309
===============================================================================
</basis_specs>

atom: Called for C                     (Z =   6)

read_vps: Pseudopotential generation method:
read_vps: ATM3      Troullier-Martins                       
Total valence charge:    4.00000

xc_check: Exchange-correlation functional:
xc_check: Ceperley-Alder
V l=0 = -2*Zval/r beyond r=  1.4666
V l=1 = -2*Zval/r beyond r=  1.5038
V l=2 = -2*Zval/r beyond r=  1.5612
All V_l potentials equal beyond r=  1.5612
This should be close to max(r_c) in ps generation
All pots = -2*Zval/r beyond r=  1.5612

VLOCAL1: 99.0% of the norm of Vloc inside     17.809 Ry
VLOCAL1: 99.9% of the norm of Vloc inside     40.586 Ry
atom: Maximum radius for 4*pi*r*r*local-pseudopot. charge    1.88329
atom: Maximum radius for r*vlocal+2*Zval:    1.62091
GHOST: No ghost state for L =  0
GHOST: No ghost state for L =  1
GHOST: No ghost state for L =  2

KBgen: Kleinman-Bylander projectors: 
   l= 0   rc=  1.747182   el= -1.001947   Ekb=  5.181700   kbcos=  0.300603
   l= 1   rc=  1.747182   el= -0.398598   Ekb= -4.328763   kbcos= -0.367074
   l= 2   rc=  1.955272   el=  0.002326   Ekb= -1.016175   kbcos= -0.009979

KBgen: Total number of  Kleinman-Bylander projectors:    9
atom: -------------------------------------------------------------------------

atom: SANKEY-TYPE ORBITALS:
atom: Selected multiple-zeta basis: split     

SPLIT: Orbitals with angular momentum L= 0

SPLIT: Basis orbitals for state 2s

SPLIT: PAO cut-off radius determined from an
SPLIT: energy shift=  0.010000 Ry

   izeta = 1
                 lambda =    1.000000
                     rc =    4.518360
                 energy =   -0.992087
                kinetic =    0.856755
    potential(screened) =   -1.848843
       potential(ionic) =   -5.436865

   izeta = 2
                 rmatch =    3.475094
              splitnorm =    0.150000
                 energy =   -0.853594
                kinetic =    1.308346
    potential(screened) =   -2.161940
       potential(ionic) =   -6.002045

SPLIT: Orbitals with angular momentum L= 1

SPLIT: Basis orbitals for state 2p

SPLIT: PAO cut-off radius determined from an
SPLIT: energy shift=  0.010000 Ry

   izeta = 1
                 lambda =    1.000000
                     rc =    5.382558
                 energy =   -0.388318
                kinetic =    2.456485
    potential(screened) =   -2.844804
       potential(ionic) =   -6.312273

   izeta = 2
                 rmatch =    3.607901
              splitnorm =    0.150000
                 energy =   -0.250655
                kinetic =    3.636791
    potential(screened) =   -3.887446
       potential(ionic) =   -7.736789

POLgen: Perturbative polarization orbital with L=  2

POLgen: Polarization orbital for state 2p

   izeta = 1
                     rc =    5.382558
                 energy =    1.148490
                kinetic =    2.389078
    potential(screened) =   -1.240587
       potential(ionic) =   -4.090578
atom: Total number of Sankey-type orbitals: 13

atm_pop: Valence configuration (for local Pseudopot. screening):
 2s( 2.00)                                                            
 2p( 2.00)                                                            
Vna: chval, zval:    4.00000   4.00000

Vna:  Cut-off radius for the neutral-atom potential:   5.382558

atom: _________________________________________________________________________

prinput: Basis input ----------------------------------------------------------

PAO.BasisType split     

%block ChemicalSpeciesLabel
    1    1 H                       # Species index, atomic number, species label
    2    6 C                       # Species index, atomic number, species label
%endblock ChemicalSpeciesLabel

%block PAO.Basis                 # Define Basis set
H                     1                    # Species label, number of l-shells
 n=1   0   2 P   1                   # n, l, Nzeta, Polarization, NzetaPol
   5.336      4.002   
   1.000      1.000   
C                     2                    # Species label, number of l-shells
 n=2   0   2                         # n, l, Nzeta 
   4.518      3.475   
   1.000      1.000   
 n=2   1   2 P   1                   # n, l, Nzeta, Polarization, NzetaPol
   5.383      3.608   
   1.000      1.000   
%endblock PAO.Basis

prinput: ----------------------------------------------------------------------

Dumping basis to NetCDF file H.ion.nc
Dumping basis to NetCDF file C.ion.nc
coor:   Atomic-coordinates input format  =     Cartesian coordinates
coor:                                          (in Angstroms)
read_Zmatrix: Length units: Ang       
read_Zmatrix: Angle  units: deg       
read_Zmatrix: Force tolerances:
read_Zmatrix:    for lengths =     0.001556 Ry/Bohr
read_Zmatrix:    for angles  =     0.000421 Ry/rad

read_Zmatrix: Maximum displacements:
read_Zmatrix:    for lengths =     0.188973 Bohr
read_Zmatrix:    for angles  =     0.349066 rad
%block Zmatrix
molecule
      2 0 0 0 xm1 ym1 zm1 0 0 0
      2 1 0 0 CC 90.0 60.0 0 0 0
      2 2 1 0 CC CCC 90.0 0 0 0
      2 3 2 1 CC CCC 0.0 0 0 0
      2 4 3 2 CC CCC 0.0 0 0 0
      2 5 4 3 CC CCC 0.0 0 0 0
      1 1 2 3 CH CCH 180.0 0 0 0
      1 2 1 7 CH CCH 0.0 0 0 0
      1 3 2 8 CH CCH 0.0 0 0 0
      1 4 3 9 CH CCH 0.0 0 0 0
      1 5 4 10 CH CCH 0.0 0 0 0
      1 6 5 11 CH CCH 0.0 0 0 0
constants
        ym1 3.68
        xm1 3.68
        zm1 6.9032294
variables
        CC 1.417
        CH 1.112
        CCH 120.0
        CCC 120.0
%endblock Zmatrix
 nZmol:            1
 nSpecies:            2           2           2           2           2           2           1           1           1           1           1           1

zmatrix: Z-matrix coordinates: (Ang ; deg )
zmatrix: (Fractional coordinates have been converted to cartesian)
molecule    1 (    12 atoms)
      3.68000000      3.68000000      6.90322940
      1.41700000     90.00000000     60.00000000
      1.41700000    120.00000000     90.00000000
      1.41700000    120.00000000      0.00000000
      1.41700000    120.00000000      0.00000000
      1.41700000    120.00000000      0.00000000
      1.11200000    120.00000000    180.00000000
      1.11200000    120.00000000      0.00000000
      1.11200000    120.00000000      0.00000000
      1.11200000    120.00000000      0.00000000
      1.11200000    120.00000000      0.00000000
      1.11200000    120.00000000      0.00000000


Z-matrix Symbol Section -------
Variables
 CC           1.4170000000000000     
 CCC          120.00000000000017     
 CH           1.1120000000000001     
 CCH          120.00000000000017     
Constants
 xm1          3.6800000000000002     
 ym1          3.6800000000000002     
 zm1          6.9032293999999998     
------------ End of Z-matrix Information


siesta: Atomic coordinates (Bohr) and species
siesta:      6.95419   6.95419  13.04522  2        1
siesta:      8.29307   9.27319  13.04522  2        2
siesta:     10.97081   9.27319  13.04522  2        3
siesta:     12.30968   6.95419  13.04522  2        4
siesta:     10.97081   4.63520  13.04522  2        5
siesta:      8.29307   4.63520  13.04522  2        6
siesta:      4.85282   6.95419  13.04522  1        7
siesta:      7.24238  11.09303  13.04522  1        8
siesta:     12.02150  11.09303  13.04522  1        9
siesta:     14.41106   6.95419  13.04522  1       10
siesta:     12.02150   2.81536  13.04522  1       11
siesta:      7.24238   2.81536  13.04522  1       12

siesta: Automatic unit cell vectors (Ang):
siesta:   11.776283    0.000000    0.000000
siesta:    0.000000   11.030875    0.000000
siesta:    0.000000    0.000000    6.266317

siesta: System type = molecule  

initatomlists: Number of atoms, orbitals, and projectors:     12   108   108

siesta: ******************** Simulation parameters ****************************
siesta:
siesta: The following are some of the parameters of the simulation.
siesta: A complete list of the parameters used, including default values,
siesta: can be found in file out.fdf
siesta:
redata: Spin configuration                          = none
redata: Number of spin components                   = 1
redata: Time-Reversal Symmetry                      = T
redata: Spin-spiral                                 = F
redata: Long output                                 =   F
redata: Number of Atomic Species                    =        2
redata: Charge density info will appear in .RHO file
redata: Write Mulliken Pop.                         = NO
redata: Mesh Cutoff                                 =   120.0000 Ry
redata: Net charge of the system                    =     0.0000 |e|
redata: Min. number of SCF Iter                     =        0
redata: Max. number of SCF Iter                     =       50
redata: SCF mix quantity                            = Hamiltonian
redata: Mix DM or H after convergence               =   F
redata: Recompute H after scf cycle                 =   F
redata: Mix DM in first SCF step                    =   T
redata: Write Pulay info on disk                    =   F
redata: New DM Mixing Weight                        =     0.3000
redata: New DM Occupancy tolerance                  = 0.000000000001
redata: No kicks to SCF
redata: DM Mixing Weight for Kicks                  =     0.5000
redata: Require Harris convergence for SCF          =   F
redata: Harris energy tolerance for SCF             =     0.000100 eV
redata: Require DM convergence for SCF              =   T
redata: DM tolerance for SCF                        =     0.0001
redata: Require EDM convergence for SCF             =   F
redata: EDM tolerance for SCF                       =     0.001000 eV
redata: Require H convergence for SCF               =   T
redata: Hamiltonian tolerance for SCF               =     0.001000 eV
redata: Require (free) Energy convergence for SCF   =   F
redata: (free) Energy tolerance for SCF             =     0.000100 eV
redata: Using Saved Data (generic)                  =   F
redata: Use continuation files for DM               =   F
redata: Neglect nonoverlap interactions             =   F
redata: Method of Calculation                       = Diagonalization
redata: Divide and Conquer                          =   T
redata: Electronic Temperature                      =   299.9869 K
redata: Fix the spin of the system                  =   F
redata: Dynamics option                             = FIRE coord. optimization
redata: Variable cell                               =   F
redata: Use continuation files for CG               =   F
redata: Max atomic displ per move                   =     0.1058 Ang
redata: Maximum number of CG moves                  =        4
redata: Force tolerance                             =     0.0400 eV/Ang
mix.SCF: Pulay mixing                            = Pulay
mix.SCF:    Variant                              = stable
mix.SCF:    History steps                        = 5
mix.SCF:    Linear mixing weight                 =     0.300000
mix.SCF:    Mixing weight                        =     0.300000
mix.SCF:    SVD condition                        = 0.1000E-07
redata: Save all siesta data in one NC              =   F
redata: ***********************************************************************

%block SCF.Mixers
  Pulay
%endblock SCF.Mixers

%block SCF.Mixer.Pulay
  # Mixing method
  method pulay
  variant stable

  # Mixing options
  weight 0.3000
  weight.linear 0.3000
  history 5
%endblock SCF.Mixer.Pulay

DM_history_depth set to one: no extrapolation allowed by default for geometry relaxation
Size of DM history Fstack: 1
Total number of electrons:    30.000000
Total ionic charge:    30.000000

* ProcessorY, Blocksize:    2  14


* Orbital distribution balance (max,min):    14    10

 Kpoints in:            1 . Kpoints trimmed:            1

siesta: k-grid: Number of k-points =     1
siesta: k-grid: Cutoff (effective) =     3.133 Ang
siesta: k-grid: Supercell and displacements
siesta: k-grid:    1   0   0      0.000
siesta: k-grid:    0   1   0      0.000
siesta: k-grid:    0   0   1      0.000


                     ====================================
                        Begin FIRE opt. move =      0

zmatrix: Z-matrix coordinates: (Ang ; deg )
zmatrix: (Fractional coordinates have been converted to cartesian)
molecule    1 (    12 atoms)
      3.68000000      3.68000000      6.90322940
      1.41700000     90.00000000     60.00000000
      1.41700000    120.00000000     90.00000000
      1.41700000    120.00000000      0.00000000
      1.41700000    120.00000000      0.00000000
      1.41700000    120.00000000      0.00000000
      1.11200000    120.00000000    180.00000000
      1.11200000    120.00000000      0.00000000
      1.11200000    120.00000000      0.00000000
      1.11200000    120.00000000      0.00000000
      1.11200000    120.00000000      0.00000000
      1.11200000    120.00000000      0.00000000


Z-matrix Symbol Section -------
Variables
 CC           1.4170000000000000     
 CCC          120.00000000000017     
 CH           1.1120000000000001     
 CCH          120.00000000000017     
Constants
 xm1          3.6800000000000002     
 ym1          3.6800000000000002     
 zm1          6.9032293999999998     
------------ End of Z-matrix Information

                     ====================================

outcell: Unit cell vectors (Ang):
       11.776283    0.000000    0.000000
        0.000000   11.030875    0.000000
        0.000000    0.000000    6.266317

outcell: Cell vector modules (Ang)   :   11.776283   11.030875    6.266317
outcell: Cell angles (23,13,12) (deg):     90.0000     90.0000     90.0000
outcell: Cell volume (Ang**3)        :    814.0116
<dSpData1D:S at geom step 0
  <sparsity:sparsity for geom step 0
    nrows_g=108 nrows=14 sparsity=.1296 nnzs=1512, refcount: 7>
  <dData1D:(new from dSpData1D) n=1512, refcount: 1>
refcount: 1>
new_DM -- step:     1
Initializing Density Matrix...
DM filled with atomic data:
<dSpData2D:DM initialized from atoms
  <sparsity:sparsity for geom step 0
    nrows_g=108 nrows=14 sparsity=.1296 nnzs=1512, refcount: 8>
  <dData2D:DM n=1512 m=1, refcount: 1>
refcount: 1>

No. of atoms with KB's overlaping orbs in proc 0. Max # of overlaps:      11     101
New grid distribution:   1
           1       1:   40    1:   20    1:    6
           2       1:   40    1:   20    7:   12
           3       1:   40    1:   20   13:   18
           4       1:   40    1:   20   19:   24
           5       1:   40   21:   40    1:    6
           6       1:   40   21:   40    7:   12
           7       1:   40   21:   40   13:   18
           8       1:   40   21:   40   19:   24

InitMesh: MESH =    80 x    80 x    48 =      307200
InitMesh: (bp) =    40 x    40 x    24 =       38400
InitMesh: Mesh cutoff (required, used) =   120.000   127.546 Ry
ExtMesh (bp) on 0 =    80 x    64 x    50 =      256000
New grid distribution:   2
           1      19:   40   15:   40    1:    6
           2       1:   18   15:   40    7:   24
           3      19:   40    1:   14    7:   24
           4      19:   40    1:   14    1:    6
           5       1:   18    1:   14    7:   24
           6      19:   40   15:   40    7:   24
           7       1:   18   15:   40    1:    6
           8       1:   18    1:   14    1:    6
New grid distribution:   3
           1      19:   40    1:   15    1:   10
           2       1:   18    1:   15   11:   24
           3       1:   18   16:   40   10:   24
           4      19:   40    1:   15   11:   24
           5      19:   40   16:   40    1:    9
           6       1:   18   16:   40    1:    9
           7      19:   40   16:   40   10:   24
           8       1:   18    1:   15    1:   10
Setting up quadratic distribution...
ExtMesh (bp) on 0 =    62 x    70 x    50 =      217000
PhiOnMesh: Number of (b)points on node 0 =                 3432
PhiOnMesh: nlist on node 0 =                41836

stepf: Fermi-Dirac step function

siesta: Program's energy decomposition (eV):
siesta: Ebs     =      -283.761405
siesta: Eions   =      1613.953835
siesta: Ena     =       340.728180
siesta: Ekin    =       771.603066
siesta: Enl     =      -127.546909
siesta: Eso     =         0.000000
siesta: Eldau   =         0.000000
siesta: DEna    =       -59.242988
siesta: DUscf   =         7.993257
siesta: DUext   =         0.000000
siesta: Exc     =      -341.223144
siesta: eta*DQ  =         0.000000
siesta: Emadel  =         0.000000
siesta: Emeta   =         0.000000
siesta: Emolmec =         0.000000
siesta: Ekinion =         0.000000
siesta: Eharris =     -1027.973033
siesta: Etot    =     -1021.642373
siesta: FreeEng =     -1021.642373

        iscf     Eharris(eV)        E_KS(eV)     FreeEng(eV)     dDmax    Ef(eV) dHmax(eV)
   scf:    1    -1027.973033    -1021.642373    -1021.642373  1.955289 -7.733216  6.828544
timer: Routine,Calls,Time,% = IterSCF        1       0.152  14.01
   scf:    2    -1024.822481    -1023.469654    -1023.469654  0.092897 -5.881028  2.815974
   scf:    3    -1023.988721    -1023.812247    -1023.812247  0.070419 -4.671824  0.588235
   scf:    4    -1023.855117    -1023.838947    -1023.838947  0.017426 -4.558397  0.127413
   scf:    5    -1023.835736    -1023.838467    -1023.838467  0.006755 -4.404037  0.165544
   scf:    6    -1023.840655    -1023.840184    -1023.840184  0.003283 -4.484173  0.022229
   scf:    7    -1023.840209    -1023.840211    -1023.840211  0.000585 -4.470142  0.007861
   scf:    8    -1023.840216    -1023.840214    -1023.840214  0.000167 -4.473680  0.000155
   scf:    9    -1023.840214    -1023.840214    -1023.840214  0.000004 -4.473705  0.000105

SCF Convergence by DM+H criterion
max |DM_out - DM_in|         :     0.0000040973
max |H_out - H_in|      (eV) :     0.0001053247
SCF cycle converged after 9 iterations

Using DM_out to compute the final energy and forces
No. of atoms with KB's overlaping orbs in proc 0. Max # of overlaps:      11     101

siesta: E_KS(eV) =            -1023.8402

siesta: E_KS - E_eggbox =     -1023.8402

zmatrix: Atomic forces (eV/Ang ; eV/deg )
zmatrix: (No information if symbols are used)
molecule    1 (    12 atoms)
     1    0.000000    0.000000    0.000000
     2    0.000000    0.000000    0.000000
     3    0.000000    0.000000    0.000000
     4    0.000000    0.000000    0.000000
     5    0.000000    0.000000    0.000000
     6    0.000000    0.000000    0.000000
     7    0.000000    0.000000    0.000000
     8    0.000000    0.000000    0.000000
     9    0.000000    0.000000    0.000000
    10    0.000000    0.000000    0.000000
    11    0.000000    0.000000    0.000000
    12    0.000000    0.000000    0.000000


Variable forces (eV/Ang ; eV/deg )
 CC          -5.5604578797200936     
 CCC        -0.11978402482941689     
 CH         -0.81147301612815315     
 CCH          5.4818356697114699E-005

siesta: Atomic forces (eV/Ang):
----------------------------------------
   Tot   -0.003388   -0.005300    0.003052
----------------------------------------
   Max    0.797715
   Res    0.327594    sqrt( Sum f_i^2 / 3N )
----------------------------------------
   Max    0.797715    constrained

Stress-tensor-Voigt (kbar):        8.64        8.62       -0.06        0.01        0.00        0.00
(Free)E + p*V (eV/cell)    -1026.7536
Target enthalpy (eV/cell)    -1023.8402
Fire_optim: No of elements:      4
 Power > 0
FIRE: step, dt, npos, alpha, magv, magf, long
FIREdat:     1    0.3000   1    0.1000    0.164922    0.549739    0
FIRE: nvar, x, v, f
           1   2.6680110340743712       -6.4879678212599920E-002 -0.21626559404199974     
           2   2.0716959330380917      -0.15132779570071231      -0.50442598566904107     
           3   2.0999560424154784       -9.4683044640296258E-003  -3.1561014880098756E-002
           4   2.0944054905160239        6.9254152168649654E-005   2.3084717389549887E-004

                     ====================================
                        Begin FIRE opt. move =      1

zmatrix: Z-matrix coordinates: (Ang ; deg )
zmatrix: (Fractional coordinates have been converted to cartesian)
molecule    1 (    12 atoms)
      3.68000000      3.68000000      6.90322940
      1.41185007     90.00000000     60.00000000
      1.41185007    118.69943340     90.00000000
      1.41185007    118.69943340      0.00000000
      1.41185007    118.69943340      0.00000000
      1.41185007    118.69943340      0.00000000
      1.11124844    120.00059520    180.00000000
      1.11124844    120.00059520      0.00000000
      1.11124844    120.00059520      0.00000000
      1.11124844    120.00059520      0.00000000
      1.11124844    120.00059520      0.00000000
      1.11124844    120.00059520      0.00000000


Z-matrix Symbol Section -------
Variables
 CC           1.4118500749783736     
 CCC          118.69943339749986     
 CH           1.1112484386572956     
 CCH          120.00059519559512     
Constants
 xm1          3.6800000000000002     
 ym1          3.6800000000000002     
 zm1          6.9032293999999998     
------------ End of Z-matrix Information

                     ====================================

outcell: Unit cell vectors (Ang):
       11.776283    0.000000    0.000000
        0.000000   11.030875    0.000000
        0.000000    0.000000    6.266317

outcell: Cell vector modules (Ang)   :   11.776283   11.030875    6.266317
outcell: Cell angles (23,13,12) (deg):     90.0000     90.0000     90.0000
outcell: Cell volume (Ang**3)        :    814.0116
<dSpData1D:S at geom step 1
  <sparsity:sparsity for geom step 1
    nrows_g=108 nrows=14 sparsity=.1296 nnzs=1512, refcount: 7>
  <dData1D:(new from dSpData1D) n=1512, refcount: 1>
refcount: 1>
new_DM -- step:     2
Re-using DM from previous geometries...
Number of DMs in history: 1
 DM extrapolation coefficients: 
1   1.00000
New DM after history re-use:
<dSpData2D:SpM extrapolated using coords
  <sparsity:sparsity for geom step 1
    nrows_g=108 nrows=14 sparsity=.1296 nnzs=1512, refcount: 8>
  <dData2D:(temp array for extrapolation) n=1512 m=1, refcount: 1>
refcount: 1>
Note: For starting DM, Qtot, Tr[D*S] =         30.00000000         30.14492884
No. of atoms with KB's overlaping orbs in proc 0. Max # of overlaps:      11     101
New grid distribution:   1
           1       1:   40    1:   20    1:    6
           2       1:   40    1:   20    7:   12
           3       1:   40    1:   20   13:   18
           4       1:   40    1:   20   19:   24
           5       1:   40   21:   40    1:    6
           6       1:   40   21:   40    7:   12
           7       1:   40   21:   40   13:   18
           8       1:   40   21:   40   19:   24

InitMesh: MESH =    80 x    80 x    48 =      307200
InitMesh: (bp) =    40 x    40 x    24 =       38400
InitMesh: Mesh cutoff (required, used) =   120.000   127.546 Ry
ExtMesh (bp) on 0 =    80 x    64 x    50 =      256000
New grid distribution:   2
           1      18:   40   15:   40    1:    6
           2       1:   17   15:   40    7:   24
           3      18:   40    1:   14    7:   24
           4      18:   40    1:   14    1:    6
           5       1:   17    1:   14    7:   24
           6      18:   40   15:   40    7:   24
           7       1:   17   15:   40    1:    6
           8       1:   17    1:   14    1:    6
New grid distribution:   3
           1      18:   40    1:   15    1:   10
           2       1:   17    1:   15   11:   24
           3       1:   18   16:   40   10:   24
           4      18:   40    1:   15   11:   24
           5      19:   40   16:   40    1:    9
           6       1:   18   16:   40    1:    9
           7      19:   40   16:   40   10:   24
           8       1:   17    1:   15    1:   10
Setting up quadratic distribution...
ExtMesh (bp) on 0 =    63 x    70 x    50 =      220500
PhiOnMesh: Number of (b)points on node 0 =                 3588
PhiOnMesh: nlist on node 0 =                45917

        iscf     Eharris(eV)        E_KS(eV)     FreeEng(eV)     dDmax    Ef(eV) dHmax(eV)
   scf:    1    -1021.449917    -1022.961093    -1022.961093  0.097615 -4.376020  2.008235
   scf:    2    -1018.696744    -1021.800824    -1021.800824  0.102612 -5.102757  5.003744
   scf:    3    -1023.577656    -1023.190210    -1023.190210  0.071762 -4.493775  0.063555
   scf:    4    -1023.191702    -1023.191010    -1023.191010  0.002826 -4.491967  0.035812
   scf:    5    -1023.191372    -1023.191215    -1023.191215  0.002369 -4.487345  0.006919
   scf:    6    -1023.191227    -1023.191221    -1023.191221  0.000247 -4.486600  0.003202
   scf:    7    -1023.191226    -1023.191224    -1023.191224  0.000185 -4.486504  0.000930
   scf:    8    -1023.191224    -1023.191224    -1023.191224  0.000063 -4.486572  0.000236

SCF Convergence by DM+H criterion
max |DM_out - DM_in|         :     0.0000634374
max |H_out - H_in|      (eV) :     0.0002357572
SCF cycle converged after 8 iterations

Using DM_out to compute the final energy and forces
No. of atoms with KB's overlaping orbs in proc 0. Max # of overlaps:      11     101

siesta: E_KS(eV) =            -1023.1912

zmatrix: Atomic forces (eV/Ang ; eV/deg )
zmatrix: (No information if symbols are used)
molecule    1 (    12 atoms)
     1    0.000000    0.000000    0.000000
     2    0.000000    0.000000    0.000000
     3    0.000000    0.000000    0.000000
     4    0.000000    0.000000    0.000000
     5    0.000000    0.000000    0.000000
     6    0.000000    0.000000    0.000000
     7    0.000000    0.000000    0.000000
     8    0.000000    0.000000    0.000000
     9    0.000000    0.000000    0.000000
    10    0.000000    0.000000    0.000000
    11    0.000000    0.000000    0.000000
    12    0.000000    0.000000    0.000000


Variable forces (eV/Ang ; eV/deg )
 CC           6.5263673649531357     
 CCC          1.3167876262275298     
 CH         -0.54215170375478738     
 CCH         -9.3223496084657211E-003

siesta: Atomic forces (eV/Ang):
----------------------------------------
   Tot    0.011910   -0.002740    0.003183
----------------------------------------
   Max    8.850171
   Res    2.349431    sqrt( Sum f_i^2 / 3N )
----------------------------------------
   Max    8.850171    constrained

Stress-tensor-Voigt (kbar):       -0.01      -16.99       -0.05       11.70       -0.00        0.00
(Free)E + p*V (eV/cell)    -1020.3035
Target enthalpy (eV/cell)    -1023.1912
 Power < 0
FIRE: step, dt, npos, alpha, magv, magf, long
FIREdat:     2    0.1500   0    0.1000    1.665344    5.551148    0
FIRE: nvar, x, v, f
           1   2.6794335272492504        7.6149954499194580E-002  0.25383318166398194     
           2   2.3212282506824007        1.6635487842953924        5.5451626143179746     
           3   2.0990071647643145       -6.3258510077580238E-003  -2.1086170025860079E-002
           4   2.0926388977433112       -1.1777285151417495E-002  -3.9257617171391652E-002

                     ====================================
                        Begin FIRE opt. move =      2

zmatrix: Z-matrix coordinates: (Ang ; deg )
zmatrix: (Fractional coordinates have been converted to cartesian)
molecule    1 (    12 atoms)
      3.68000000      3.68000000      6.90322940
      1.41789460     90.00000000     60.00000000
      1.41789460    132.99658205     90.00000000
      1.41789460    132.99658205      0.00000000
      1.41789460    132.99658205      0.00000000
      1.41789460    132.99658205      0.00000000
      1.11074631    119.89937689    180.00000000
      1.11074631    119.89937689      0.00000000
      1.11074631    119.89937689      0.00000000
      1.11074631    119.89937689      0.00000000
      1.11074631    119.89937689      0.00000000
      1.11074631    119.89937689      0.00000000


Z-matrix Symbol Section -------
Variables
 CC           1.4178945956491766     
 CCC          132.99658205063662     
 CH           1.1107463144284857     
 CCH          119.89937688560039     
Constants
 xm1          3.6800000000000002     
 ym1          3.6800000000000002     
 zm1          6.9032293999999998     
------------ End of Z-matrix Information

                     ====================================

outcell: Unit cell vectors (Ang):
       11.776283    0.000000    0.000000
        0.000000   11.030875    0.000000
        0.000000    0.000000    6.266317

outcell: Cell vector modules (Ang)   :   11.776283   11.030875    6.266317
outcell: Cell angles (23,13,12) (deg):     90.0000     90.0000     90.0000
outcell: Cell volume (Ang**3)        :    814.0116
<dSpData1D:S at geom step 2
  <sparsity:sparsity for geom step 2
    nrows_g=108 nrows=14 sparsity=.1289 nnzs=1504, refcount: 7>
  <dData1D:(new from dSpData1D) n=1504, refcount: 1>
refcount: 1>
new_DM -- step:     3
Re-using DM from previous geometries...
Number of DMs in history: 1
 DM extrapolation coefficients: 
1   1.00000
New DM after history re-use:
<dSpData2D:SpM extrapolated using coords
  <sparsity:sparsity for geom step 2
    nrows_g=108 nrows=14 sparsity=.1289 nnzs=1504, refcount: 8>
  <dData2D:(temp array for extrapolation) n=1504 m=1, refcount: 1>
refcount: 1>
Note: For starting DM, Qtot, Tr[D*S] =         30.00000000         26.75694208
No. of atoms with KB's overlaping orbs in proc 0. Max # of overlaps:       9      97
New grid distribution:   1
           1       1:   40    1:   20    1:    6
           2       1:   40    1:   20    7:   12
           3       1:   40    1:   20   13:   18
           4       1:   40    1:   20   19:   24
           5       1:   40   21:   40    1:    6
           6       1:   40   21:   40    7:   12
           7       1:   40   21:   40   13:   18
           8       1:   40   21:   40   19:   24

InitMesh: MESH =    80 x    80 x    48 =      307200
InitMesh: (bp) =    40 x    40 x    24 =       38400
InitMesh: Mesh cutoff (required, used) =   120.000   127.546 Ry
ExtMesh (bp) on 0 =    80 x    64 x    50 =      256000
New grid distribution:   2
           1       1:   19   16:   40    1:    7
           2       1:   21    1:   15    7:   24
           3       1:   19   16:   40    8:   24
           4      22:   40    1:   15    1:    7
           5      22:   40    1:   15    8:   24
           6      20:   40   16:   40    7:   24
           7      20:   40   16:   40    1:    6
           8       1:   21    1:   15    1:    6
New grid distribution:   3
           1      22:   40    1:   16    1:   10
           2      22:   40    1:   16   11:   24
           3      21:   40   17:   40   10:   24
           4       1:   21    1:   16   10:   24
           5       1:   20   17:   40    1:    9
           6      21:   40   17:   40    1:    9
           7       1:   20   17:   40   10:   24
           8       1:   21    1:   16    1:    9
Setting up quadratic distribution...
ExtMesh (bp) on 0 =    59 x    69 x    51 =      207621
PhiOnMesh: Number of (b)points on node 0 =                 3325
PhiOnMesh: nlist on node 0 =                49515

        iscf     Eharris(eV)        E_KS(eV)     FreeEng(eV)     dDmax    Ef(eV) dHmax(eV)
   scf:    1     -532.227567     -863.139905     -863.139905  0.945184 -3.820267 52.490483
   scf:    2     3811.409686      482.535713      482.535713  3.494341-10.675375158.242687
   scf:    3    -1396.732285     -993.663075     -993.663075  3.421634 -3.571022 23.756117
   scf:    4    -1009.063917    -1013.615895    -1013.615895  0.891099 -4.109159  7.513649
   scf:    5    -1005.018242    -1012.597578    -1012.597578  0.513607 -4.316189  8.632859
   scf:    6    -1015.123283    -1015.618102    -1015.618102  0.343365 -4.630111  2.274828
   scf:    7    -1012.986372    -1014.986664    -1014.986665  0.243011 -4.871393  3.665705
   scf:    8    -1015.755867    -1015.838185    -1015.838186  0.153421 -4.950138  0.325027
   scf:    9    -1015.727890    -1015.813171    -1015.813172  0.046929 -4.960385  0.680282
   scf:   10    -1015.847292    -1015.845327    -1015.845328  0.027026 -4.969043  0.015966
   scf:   11    -1015.845498    -1015.845417    -1015.845418  0.001867 -4.972896  0.004903
   scf:   12    -1015.845431    -1015.845424    -1015.845426  0.000227 -4.973976  0.003142
   scf:   13    -1015.845424    -1015.845424    -1015.845426  0.000174 -4.974078  0.004177
   scf:   14    -1015.845426    -1015.845425    -1015.845427  0.000134 -4.974244  0.001644
   scf:   15    -1015.845426    -1015.845426    -1015.845427  0.000076 -4.974389  0.000532

SCF Convergence by DM+H criterion
max |DM_out - DM_in|         :     0.0000760736
max |H_out - H_in|      (eV) :     0.0005315687
SCF cycle converged after 15 iterations

Using DM_out to compute the final energy and forces
No. of atoms with KB's overlaping orbs in proc 0. Max # of overlaps:       9      97

siesta: E_KS(eV) =            -1015.8454

zmatrix: Atomic forces (eV/Ang ; eV/deg )
zmatrix: (No information if symbols are used)
molecule    1 (    12 atoms)
     1    0.000000    0.000000    0.000000
     2    0.000000    0.000000    0.000000
     3    0.000000    0.000000    0.000000
     4    0.000000    0.000000    0.000000
     5    0.000000    0.000000    0.000000
     6    0.000000    0.000000    0.000000
     7    0.000000    0.000000    0.000000
     8    0.000000    0.000000    0.000000
     9    0.000000    0.000000    0.000000
    10    0.000000    0.000000    0.000000
    11    0.000000    0.000000    0.000000
    12    0.000000    0.000000    0.000000


Variable forces (eV/Ang ; eV/deg )
 CC          -12.140871799552286     
 CCC        -0.33003458599899593     
 CH          0.83863085026336504     
 CCH         -1.5834424168599828E-002

siesta: Atomic forces (eV/Ang):
----------------------------------------
   Tot   -0.017238    0.015249   -0.000420
----------------------------------------
   Max    4.101270
   Res    1.565007    sqrt( Sum f_i^2 / 3N )
----------------------------------------
   Max    4.101270    constrained

Stress-tensor-Voigt (kbar):       16.43       15.51       -0.09        0.23        0.00       -0.01
(Free)E + p*V (eV/cell)    -1021.2381
Target enthalpy (eV/cell)    -1015.8454
 Power < 0
FIRE: step, dt, npos, alpha, magv, magf, long
FIREdat:     3    0.0750   0    0.1000    0.220458    1.469721    0
FIRE: nvar, x, v, f
           1   2.6741212678592801       -7.0830125199602523E-002 -0.47220083466401680     
           2   2.3055927955970872      -0.20847273447084899       -1.3898182298056601     
           3   2.0993741091388687        4.8925916607235522E-003   3.2617277738157015E-002
           4   2.0918887387042502       -1.0002120520815201E-002  -6.6680803472101341E-002

                     ====================================
                        Begin FIRE opt. move =      3

zmatrix: Z-matrix coordinates: (Ang ; deg )
zmatrix: (Fractional coordinates have been converted to cartesian)
molecule    1 (    12 atoms)
      3.68000000      3.68000000      6.90322940
      1.41508347     90.00000000     60.00000000
      1.41508347    132.10073646     90.00000000
      1.41508347    132.10073646      0.00000000
      1.41508347    132.10073646      0.00000000
      1.41508347    132.10073646      0.00000000
      1.11094049    119.85639594    180.00000000
      1.11094049    119.85639594      0.00000000
      1.11094049    119.85639594      0.00000000
      1.11094049    119.85639594      0.00000000
      1.11094049    119.85639594      0.00000000
      1.11094049    119.85639594      0.00000000


Z-matrix Symbol Section -------
Variables
 CC           1.4150834701619703     
 CCC          132.10073646348178     
 CH           1.1109404929517792     
 CCH          119.85639593869860     
Constants
 xm1          3.6800000000000002     
 ym1          3.6800000000000002     
 zm1          6.9032293999999998     
------------ End of Z-matrix Information

                     ====================================

outcell: Unit cell vectors (Ang):
       11.776283    0.000000    0.000000
        0.000000   11.030875    0.000000
        0.000000    0.000000    6.266317

outcell: Cell vector modules (Ang)   :   11.776283   11.030875    6.266317
outcell: Cell angles (23,13,12) (deg):     90.0000     90.0000     90.0000
outcell: Cell volume (Ang**3)        :    814.0116
 Folding of H and S is implicitly performed
<dSpData1D:S at geom step 3
  <sparsity:sparsity for geom step 3
    nrows_g=108 nrows=14 sparsity=.1292 nnzs=1507, refcount: 7>
  <dData1D:(new from dSpData1D) n=1507, refcount: 1>
refcount: 1>
new_DM -- step:     4
Re-using DM from previous geometries...
Number of DMs in history: 1
 DM extrapolation coefficients: 
1   1.00000
New DM after history re-use:
<dSpData2D:SpM extrapolated using coords
  <sparsity:sparsity for geom step 3
    nrows_g=108 nrows=14 sparsity=.1292 nnzs=1507, refcount: 8>
  <dData2D:(temp array for extrapolation) n=1507 m=1, refcount: 1>
refcount: 1>
Note: For starting DM, Qtot, Tr[D*S] =         30.00000000         30.04852238
No. of atoms with KB's overlaping orbs in proc 0. Max # of overlaps:       9      97
New grid distribution:   1
           1       1:   40    1:   20    1:    6
           2       1:   40    1:   20    7:   12
           3       1:   40    1:   20   13:   18
           4       1:   40    1:   20   19:   24
           5       1:   40   21:   40    1:    6
           6       1:   40   21:   40    7:   12
           7       1:   40   21:   40   13:   18
           8       1:   40   21:   40   19:   24

InitMesh: MESH =    80 x    80 x    48 =      307200
InitMesh: (bp) =    40 x    40 x    24 =       38400
InitMesh: Mesh cutoff (required, used) =   120.000   127.546 Ry
ExtMesh (bp) on 0 =    80 x    64 x    50 =      256000
New grid distribution:   2
           1       1:   19   16:   40    1:    7
           2       1:   21    1:   15    7:   24
           3       1:   19   16:   40    8:   24
           4      22:   40    1:   15    1:    7
           5      22:   40    1:   15    8:   24
           6      20:   40   16:   40    7:   24
           7      20:   40   16:   40    1:    6
           8       1:   21    1:   15    1:    6
New grid distribution:   3
           1      21:   40   17:   40    1:    9
           2      21:   40    1:   16    1:   10
           3      21:   40   17:   40   10:   24
           4       1:   20    1:   16   10:   24
           5      21:   40    1:   16   11:   24
           6       1:   20   17:   40    1:    9
           7       1:   20   17:   40   10:   24
           8       1:   20    1:   16    1:    9
Setting up quadratic distribution...
ExtMesh (bp) on 0 =    59 x    69 x    51 =      207621
PhiOnMesh: Number of (b)points on node 0 =                 3325
PhiOnMesh: nlist on node 0 =                49778

        iscf     Eharris(eV)        E_KS(eV)     FreeEng(eV)     dDmax    Ef(eV) dHmax(eV)
   scf:    1    -1016.224572    -1016.122496    -1016.122496  0.044907 -4.829689  1.102603
   scf:    2    -1002.231879    -1011.679461    -1011.679463  0.329023 -5.041004  9.388940
   scf:    3    -1015.840998    -1016.155809    -1016.155809  0.329930 -4.902007  0.755425
   scf:    4    -1016.188150    -1016.189994    -1016.189994  0.026323 -4.893078  0.055206
   scf:    5    -1016.189943    -1016.190274    -1016.190274  0.003438 -4.897686  0.049864
   scf:    6    -1016.190229    -1016.190373    -1016.190373  0.002235 -4.896281  0.022279
   scf:    7    -1016.190399    -1016.190404    -1016.190404  0.000795 -4.896685  0.003882
   scf:    8    -1016.190405    -1016.190405    -1016.190405  0.000158 -4.896933  0.000940
   scf:    9    -1016.190405    -1016.190405    -1016.190405  0.000026 -4.897063  0.000612

SCF Convergence by DM+H criterion
max |DM_out - DM_in|         :     0.0000264762
max |H_out - H_in|      (eV) :     0.0006115767
SCF cycle converged after 9 iterations

Using DM_out to compute the final energy and forces
No. of atoms with KB's overlaping orbs in proc 0. Max # of overlaps:       9      97

siesta: E_KS(eV) =            -1016.1904

zmatrix: Atomic forces (eV/Ang ; eV/deg )
zmatrix: (No information if symbols are used)
molecule    1 (    12 atoms)
     1    0.000000    0.000000    0.000000
     2    0.000000    0.000000    0.000000
     3    0.000000    0.000000    0.000000
     4    0.000000    0.000000    0.000000
     5    0.000000    0.000000    0.000000
     6    0.000000    0.000000    0.000000
     7    0.000000    0.000000    0.000000
     8    0.000000    0.000000    0.000000
     9    0.000000    0.000000    0.000000
    10    0.000000    0.000000    0.000000
    11    0.000000    0.000000    0.000000
    12    0.000000    0.000000    0.000000


Variable forces (eV/Ang ; eV/deg )
 CC          -11.914335118224233     
 CCC        -0.36283806407432290     
 CH          0.70857159275219128     
 CCH         -1.1516060106203046E-002

siesta: Atomic forces (eV/Ang):
----------------------------------------
   Tot    0.011112    0.007368   -0.003747
----------------------------------------
   Max    3.989737
   Res    1.521311    sqrt( Sum f_i^2 / 3N )
----------------------------------------
   Max    3.989737    constrained

Stress-tensor-Voigt (kbar):       16.51       15.19       -0.09       -1.07       -0.00        0.00
(Free)E + p*V (eV/cell)    -1021.5450
Target enthalpy (eV/cell)    -1016.1904
 Power > 0
FIRE: step, dt, npos, alpha, magv, magf, long
FIREdat:     4    0.0750   1    0.1000    0.340227    1.597654    0
FIRE: nvar, x, v, f
           1   2.6675573806513562      -0.10489562235380742      -0.46339003328408068     
           2   2.2856421978681185      -0.32330639130675948       -1.5279579089914603     
           3   2.0998103892919779        6.8505244487035849E-003   2.7558819748770839E-002
           4   2.0910270128127384       -1.3308264121883840E-002  -4.8495615157095655E-002

                     ====================================
                        Begin FIRE opt. move =      4

zmatrix: Z-matrix coordinates: (Ang ; deg )
zmatrix: (Fractional coordinates have been converted to cartesian)
molecule    1 (    12 atoms)
      3.68000000      3.68000000      6.90322940
      1.41161001     90.00000000     60.00000000
      1.41161001    130.95765141     90.00000000
      1.41161001    130.95765141      0.00000000
      1.41161001    130.95765141      0.00000000
      1.41161001    130.95765141      0.00000000
      1.11117136    119.80702268    180.00000000
      1.11117136    119.80702268      0.00000000
      1.11117136    119.80702268      0.00000000
      1.11117136    119.80702268      0.00000000
      1.11117136    119.80702268      0.00000000
      1.11117136    119.80702268      0.00000000


Z-matrix Symbol Section -------
Variables
 CC           1.4116100120209427     
 CCC          130.95765141484858     
 CH           1.1111713623743611     
 CCH          119.80702268201782     
Constants
 xm1          3.6800000000000002     
 ym1          3.6800000000000002     
 zm1          6.9032293999999998     
------------ End of Z-matrix Information

                     ====================================

outcell: Unit cell vectors (Ang):
       11.776283    0.000000    0.000000
        0.000000   11.030875    0.000000
        0.000000    0.000000    6.266317

outcell: Cell vector modules (Ang)   :   11.776283   11.030875    6.266317
outcell: Cell angles (23,13,12) (deg):     90.0000     90.0000     90.0000
outcell: Cell volume (Ang**3)        :    814.0116
 Folding of H and S is implicitly performed
<dSpData1D:S at geom step 4
  <sparsity:sparsity for geom step 4
    nrows_g=108 nrows=14 sparsity=.1296 nnzs=1512, refcount: 7>
  <dData1D:(new from dSpData1D) n=1512, refcount: 1>
refcount: 1>
new_DM -- step:     5
Re-using DM from previous geometries...
Number of DMs in history: 1
 DM extrapolation coefficients: 
1   1.00000
New DM after history re-use:
<dSpData2D:SpM extrapolated using coords
  <sparsity:sparsity for geom step 4
    nrows_g=108 nrows=14 sparsity=.1296 nnzs=1512, refcount: 8>
  <dData2D:(temp array for extrapolation) n=1512 m=1, refcount: 1>
refcount: 1>
Note: For starting DM, Qtot, Tr[D*S] =         30.00000000         30.06838520
No. of atoms with KB's overlaping orbs in proc 0. Max # of overlaps:       9      97
New grid distribution:   1
           1       1:   40    1:   20    1:    6
           2       1:   40    1:   20    7:   12
           3       1:   40    1:   20   13:   18
           4       1:   40    1:   20   19:   24
           5       1:   40   21:   40    1:    6
           6       1:   40   21:   40    7:   12
           7       1:   40   21:   40   13:   18
           8       1:   40   21:   40   19:   24

InitMesh: MESH =    80 x    80 x    48 =      307200
InitMesh: (bp) =    40 x    40 x    24 =       38400
InitMesh: Mesh cutoff (required, used) =   120.000   127.546 Ry
ExtMesh (bp) on 0 =    80 x    64 x    50 =      256000
New grid distribution:   2
           1       1:   19   16:   40    1:    7
           2       1:   20    1:   15    7:   24
           3       1:   19   16:   40    8:   24
           4      21:   40    1:   15    1:    7
           5      21:   40    1:   15    8:   24
           6      20:   40   16:   40    7:   24
           7      20:   40   16:   40    1:    6
           8       1:   20    1:   15    1:    6
New grid distribution:   3
           1      21:   40    1:   16    1:   10
           2      21:   40    1:   16   11:   24
           3       1:   19   17:   40   10:   24
           4       1:   20    1:   16   10:   24
           5      20:   40   17:   40    1:    9
           6       1:   19   17:   40    1:    9
           7      20:   40   17:   40   10:   24
           8       1:   20    1:   16    1:    9
Setting up quadratic distribution...
ExtMesh (bp) on 0 =    59 x    69 x    51 =      207621
PhiOnMesh: Number of (b)points on node 0 =                 3325
PhiOnMesh: nlist on node 0 =                50123

        iscf     Eharris(eV)        E_KS(eV)     FreeEng(eV)     dDmax    Ef(eV) dHmax(eV)
   scf:    1    -1016.605221    -1016.539586    -1016.539586  0.061332 -4.699519  1.522396
   scf:    2    -1001.871563    -1011.939988    -1011.939989  0.270593 -5.055797 10.094841
   scf:    3    -1016.298880    -1016.616938    -1016.616938  0.275694 -4.773888  0.995589
   scf:    4    -1016.682323    -1016.678928    -1016.678928  0.029334 -4.769246  0.061221
   scf:    5    -1016.679433    -1016.679406    -1016.679406  0.003285 -4.775983  0.047619
   scf:    6    -1016.679476    -1016.679509    -1016.679509  0.001331 -4.774487  0.010887
   scf:    7    -1016.679525    -1016.679523    -1016.679523  0.000357 -4.772692  0.003838
   scf:    8    -1016.679524    -1016.679524    -1016.679524  0.000161 -4.772067  0.002132
   scf:    9    -1016.679525    -1016.679525    -1016.679525  0.000053 -4.772199  0.000777

SCF Convergence by DM+H criterion
max |DM_out - DM_in|         :     0.0000531859
max |H_out - H_in|      (eV) :     0.0007771500
SCF cycle converged after 9 iterations

Using DM_out to compute the final energy and forces
No. of atoms with KB's overlaping orbs in proc 0. Max # of overlaps:       9      97

siesta: E_KS(eV) =            -1016.6795

zmatrix: Atomic forces (eV/Ang ; eV/deg )
zmatrix: (No information if symbols are used)
molecule    1 (    12 atoms)
     1    0.000000    0.000000    0.000000
     2    0.000000    0.000000    0.000000
     3    0.000000    0.000000    0.000000
     4    0.000000    0.000000    0.000000
     5    0.000000    0.000000    0.000000
     6    0.000000    0.000000    0.000000
     7    0.000000    0.000000    0.000000
     8    0.000000    0.000000    0.000000
     9    0.000000    0.000000    0.000000
    10    0.000000    0.000000    0.000000
    11    0.000000    0.000000    0.000000
    12    0.000000    0.000000    0.000000


Variable forces (eV/Ang ; eV/deg )
 CC          -11.719949912158492     
 CCC        -0.41651098647248269     
 CH          0.52703621514580079     
 CCH         -5.9766177798486631E-003

siesta: Atomic forces (eV/Ang):
----------------------------------------
   Tot    0.017213   -0.012370   -0.001548
----------------------------------------
   Max    3.879014
   Res    1.462692    sqrt( Sum f_i^2 / 3N )
----------------------------------------
   Max    3.879014    constrained

Stress-tensor-Voigt (kbar):       16.51       14.98       -0.09       -2.89        0.00        0.00
(Free)E + p*V (eV/cell)    -1021.9980
Target enthalpy (eV/cell)    -1016.6795
 Power > 0
FIRE: step, dt, npos, alpha, magv, magf, long
FIREdat:     5    0.0750   2    0.1000    0.475935    1.812536    0
FIRE: nvar, x, v, f
           1   2.6585531849871971      -0.13714955649665306      -0.45582971487647139     
           2   2.2564166767024632      -0.45544792221377883       -1.7539815112454795     
           3   2.1003593087016892        8.0876108117737249E-003   2.0498275972174324E-002
           4   2.0900224870051209       -1.4337489011253441E-002  -2.5168308702772060E-002

outcoor: Final (unrelaxed) atomic coordinates (Ang):        
    3.68000000    3.68000000    6.90322940   2       1  C
    4.38580501    4.90249013    6.90322940   2       2  C
    5.77167847    5.17081376    6.90322940   2       3  C
    6.88275642    4.30009646    6.90322940   2       4  C
    6.95350843    2.89026067    6.90322940   2       5  C
    5.93518652    1.91268034    6.90322940   2       6  C
    2.56883494    3.68374252    6.90322940   1       7  H
    3.82698136    5.86291604    6.90322940   1       8  H
    6.13067715    6.22239435    6.90322940   1       9  H
    7.91222807    4.71829487    6.90322940   1      10  H
    7.94414921    2.38693904    6.90322940   1      11  H
    6.20444695    0.83462625    6.90322940   1      12  H

zmatrix: Z-matrix coordinates: (Ang ; deg )
zmatrix: (Fractional coordinates have been converted to cartesian)
molecule    1 (    12 atoms)
      3.68000000      3.68000000      6.90322940
      1.40684520     90.00000000     60.00000000
      1.40684520    129.28315240     90.00000000
      1.40684520    129.28315240      0.00000000
      1.40684520    129.28315240      0.00000000
      1.40684520    129.28315240      0.00000000
      1.11146184    119.74946759    180.00000000
      1.11146184    119.74946759      0.00000000
      1.11146184    119.74946759      0.00000000
      1.11146184    119.74946759      0.00000000
      1.11146184    119.74946759      0.00000000
      1.11146184    119.74946759      0.00000000


Z-matrix Symbol Section -------
Variables
 CC           1.4068451987719701     
 CCC          129.28315239798630     
 CH           1.1114618379008339     
 CCH          119.74946759282938     
Constants
 xm1          3.6800000000000002     
 ym1          3.6800000000000002     
 zm1          6.9032293999999998     
------------ End of Z-matrix Information


siesta: Program's energy decomposition (eV):
siesta: Ebs     =      -351.424560
siesta: Eions   =      1613.953835
siesta: Ena     =       344.976964
siesta: Ekin    =       714.723031
siesta: Enl     =      -112.825432
siesta: Eso     =         0.000000
siesta: Eldau   =         0.000000
siesta: DEna    =       -27.038382
siesta: DUscf   =         3.349880
siesta: DUext   =         0.000000
siesta: Exc     =      -325.911749
siesta: eta*DQ  =         0.000000
siesta: Emadel  =         0.000000
siesta: Emeta   =         0.000000
siesta: Emolmec =         0.000000
siesta: Ekinion =         0.000000
siesta: Eharris =     -1016.679525
siesta: Etot    =     -1016.679525
siesta: FreeEng =     -1016.679525

siesta: Final energy (eV):
siesta:  Band Struct. =    -351.424560
siesta:       Kinetic =     714.723031
siesta:       Hartree =    1611.104747
siesta:       Eldau   =       0.000000
siesta:       Eso     =       0.000000
siesta:    Ext. field =       0.000000
siesta:   Exch.-corr. =    -325.911749
siesta:  Ion-electron =   -3862.435646
siesta:       Ion-ion =     845.840093
siesta:       Ekinion =       0.000000
siesta:         Total =   -1016.679525
siesta:         Fermi =      -4.772199

siesta: Atomic forces (eV/Ang):
siesta:      1    3.389549    2.266941    0.000461
siesta:      2   -1.499880   -2.647149    0.000131
siesta:      3    3.049919   -1.213375    0.000137
siesta:      4   -0.959521    1.149560   -0.000176
siesta:      5   -3.129976   -3.022546    0.000072
siesta:      6    1.164978    3.879014    0.000268
siesta:      7   -0.041348   -0.830469   -0.000239
siesta:      8   -0.705478   -0.091282   -0.000133
siesta:      9   -0.489515    0.095523   -0.000129
siesta:     10   -0.267517    0.539120   -0.000654
siesta:     11    0.367385    0.140910   -0.000906
siesta:     12   -0.861382   -0.278616   -0.000380
siesta: ----------------------------------------
siesta:    Tot    0.017213   -0.012370   -0.001548

siesta: Stress tensor (static) (eV/Ang**3):
siesta:     0.010305   -0.001804    0.000001
siesta:    -0.001804    0.009350    0.000001
siesta:     0.000001    0.000001   -0.000054

siesta: Cell volume =        814.011582 Ang**3

siesta: Pressure (static):
siesta:                Solid            Molecule  Units
siesta:          -0.00007116          0.00000016  Ry/Bohr**3
siesta:          -0.00653362          0.00001435  eV/Ang**3
siesta:         -10.46812696          0.02299081  kBar
(Free)E+ p_basis*V_orbitals  =       -1012.676331
(Free)Eharris+ p_basis*V_orbitals  =       -1012.676331

siesta: Electric dipole (a.u.)  =    0.236771    0.000000   -0.000076
siesta: Electric dipole (Debye) =    0.601811    0.000000   -0.000193
>> End of run:   2-JUL-2017  11:26:12
Job completed
