Siesta Version: siesta-4.0--527
Architecture  : x86_64-linux-n-62-18-14
Compiler flags: mpifort -m64 -fPIC -O3 -march=native -ftree-vectorize -fexpensive-optimizatioons -funroll-loops -fprefetch-loop-arrays -fno-second-underscore 
PP flags      : -I/zdata/groups/common/nicpa/2016-oct/generic/build-tools/1.0/include -I/zdatta/groups/common/nicpa/2016-oct/generic/gmp/6.1.0/include -I/zdata/groups/common/nicpa/2016-oct/generic/mpfr/3.1.4/include -I/zdata/groups/common/nicpa/2016-oct/generic/mpc/1.0.3/include -I/zdata/groups/common/nicpa/2016-oct/generic/isl/0.16.1/include -I/zdata/groups/common/nicpa/2016-oct/generic/gcc/6.2.0/include -I/zdata/groups/common/nicpa/2016-oct/generic/numactl/2.0.11/include -I/zdata/groups/common/nicpa/2016-oct/XeonE5-2665/zlib/1.2.8/gnu-6.2.0/include -I/zdata/groups/common/nicpa/2016-oct/XeonE5-2665/libxml2/2.9.4/gnu-6.2.0/include -I/zdata/groups/common/nicpa/2016-oct/XeonE5-2665/hwloc/1.11.4/gnu-6.2.0/include -I/zdata/groups/common/nicpa/2016-oct/XeonE5-2665/openmpi/2.0.1/gnu-6.2.0/include -I/zdata/groups/common/nicpa/2016-oct/XeonE5-2665/hdf5/1.8.17/gnu-6.2.0/include -I/zdata/groups/common/nicpa/2016-oct/XeonE5-2665/pnetcdf/1.7.0/gnu-6.2.0/include -I/zdata/groups/common/nicpa/2016-oct/XeonE5-2665/netcdf/4.4.1/gnu-6.2.0/include -I/zdata/groups/common/nicpa/2016-oct/XeonE5-2665/flook/0.7.0/gnu-6.2.0/include -I/zdata/groups/common/nicpa/2016-oct/XeonE5-2665/parmetis/4.0.3/gnu-6.2.0/include -I/zdata/groups/common/nicpa/2016-oct/XeonE5-2665/scalapack/204/gnu-6.2.0/include -I/zdata/groups/common/nicpa/2016-oct/XeonE5-2665/openblas/0.2.19/gnu-6.2.0/include -I/zdata/groups/common/nicpa/2016-oct/XeonE5-2665/mumps/5.0.2/gnu-6.2.0/include -I/zdata/groups/common/nicpa/2016-oct/XeonE5-2665/fftw/3.3.5/gnu-6.2.0/include -DMPI -DFC_HAVE_FLUSH -DFC_HAVE_ABORT -DCDF  -DSIESTA__METIS -DSIESTA__MUMPS -DTS_NOCHECKS -DSIESTA__FLOOK  
PARALLEL version
NetCDF support

* Running on    8 nodes in parallel
>> Start of run:   2-JUL-2017  11:47:35

                           ***********************       
                           *  WELCOME TO SIESTA  *       
                           ***********************       

reinit: Reading from standard input
************************** Dump of input data file ****************************
Systemlabel  force_2
Systemname   si2 Force constants
NumberOfSpecies 1
%block chemicalspecieslabel
1 14 Si
%endblock chemicalspecieslabel
PAO.BasisSize SZ
MeshCutoff 130.0 Ry
# In a real calculation, a high degree of self-consistency should be achieved
#DM.MixingWeight  0.3
#DM.NumberPulay    3
#DM.Tolerance     1.0d-5
# Here we use Harris since we are just interested in testing the displacement
# logic
HarrisFunctional T
%include FC.fdf
************************** End of input data file *****************************

reinit: -----------------------------------------------------------------------
reinit: System Name: si2 Force constants
reinit: -----------------------------------------------------------------------
reinit: System Label: force_2                                                     
reinit: -----------------------------------------------------------------------

initatom: Reading input for the pseudopotentials and atomic orbitals ----------
 Species number:            1  Label: Si Atomic number:          14
Ground state valence configuration:   3s02  3p02
Reading pseudopotential information in formatted form from Si.psf

Valence configuration for pseudopotential generation:
3s( 2.00) rc: 1.89
3p( 2.00) rc: 1.89
3d( 0.00) rc: 1.89
4f( 0.00) rc: 1.89
For Si, standard SIESTA heuristics set lmxkb to 2
 (one more than the basis l, including polarization orbitals).
Use PS.lmax or PS.KBprojectors blocks to override.

<basis_specs>
===============================================================================
Si                   Z=  14    Mass=  28.090        Charge= 0.17977+309
Lmxo=1 Lmxkb= 2    BasisType=split      Semic=F
L=0  Nsemic=0  Cnfigmx=3
          n=1  nzeta=1  polorb=0
            splnorm:   0.15000    
               vcte:    0.0000    
               rinn:    0.0000    
               qcoe:    0.0000    
               qyuk:    0.0000    
               qwid:   0.10000E-01
                rcs:    0.0000    
            lambdas:    1.0000    
L=1  Nsemic=0  Cnfigmx=3
          n=1  nzeta=1  polorb=0
            splnorm:   0.15000    
               vcte:    0.0000    
               rinn:    0.0000    
               qcoe:    0.0000    
               qyuk:    0.0000    
               qwid:   0.10000E-01
                rcs:    0.0000    
            lambdas:    1.0000    
-------------------------------------------------------------------------------
L=0  Nkbl=1  erefs: 0.17977+309
L=1  Nkbl=1  erefs: 0.17977+309
L=2  Nkbl=1  erefs: 0.17977+309
===============================================================================
</basis_specs>

atom: Called for Si                    (Z =  14)

read_vps: Pseudopotential generation method:
read_vps: ATM3      Troullier-Martins                       
Total valence charge:    4.00000

xc_check: Exchange-correlation functional:
xc_check: Ceperley-Alder
V l=0 = -2*Zval/r beyond r=  2.5494
V l=1 = -2*Zval/r beyond r=  2.5494
V l=2 = -2*Zval/r beyond r=  2.5494
All V_l potentials equal beyond r=  1.8652
This should be close to max(r_c) in ps generation
All pots = -2*Zval/r beyond r=  2.5494
Using large-core scheme for Vlocal

atom: Estimated core radius    2.54944

atom: Including non-local core corrections could be a good idea
atom: Maximum radius for 4*pi*r*r*local-pseudopot. charge    2.85303
atom: Maximum radius for r*vlocal+2*Zval:    2.58151
GHOST: No ghost state for L =  0
GHOST: No ghost state for L =  1
GHOST: No ghost state for L =  2

KBgen: Kleinman-Bylander projectors: 
   l= 0   rc=  1.936440   el= -0.796617   Ekb=  4.661340   kbcos=  0.299756
   l= 1   rc=  1.936440   el= -0.307040   Ekb=  1.494238   kbcos=  0.301471
   l= 2   rc=  1.936440   el=  0.002313   Ekb= -2.808672   kbcos= -0.054903

KBgen: Total number of  Kleinman-Bylander projectors:    9
atom: -------------------------------------------------------------------------

atom: SANKEY-TYPE ORBITALS:

SPLIT: Orbitals with angular momentum L= 0

SPLIT: Basis orbitals for state 3s

SPLIT: PAO cut-off radius determined from an
SPLIT: energy shift=  0.020000 Ry

   izeta = 1
                 lambda =    1.000000
                     rc =    5.007352
                 energy =   -0.777669
                kinetic =    0.573829
    potential(screened) =   -1.351499
       potential(ionic) =   -3.827441

SPLIT: Orbitals with angular momentum L= 1

SPLIT: Basis orbitals for state 3p

SPLIT: PAO cut-off radius determined from an
SPLIT: energy shift=  0.020000 Ry

   izeta = 1
                 lambda =    1.000000
                     rc =    6.270866
                 energy =   -0.288955
                kinetic =    0.877930
    potential(screened) =   -1.166885
       potential(ionic) =   -3.426998
atom: Total number of Sankey-type orbitals:  4

atm_pop: Valence configuration (for local Pseudopot. screening):
 3s( 2.00)                                                            
 3p( 2.00)                                                            
Vna: chval, zval:    4.00000   4.00000

Vna:  Cut-off radius for the neutral-atom potential:   6.270866

atom: _________________________________________________________________________

prinput: Basis input ----------------------------------------------------------

PAO.BasisType split     

%block ChemicalSpeciesLabel
    1   14 Si                      # Species index, atomic number, species label
%endblock ChemicalSpeciesLabel

%block PAO.Basis                 # Define Basis set
Si                    2                    # Species label, number of l-shells
 n=3   0   1                         # n, l, Nzeta 
   5.007   
   1.000   
 n=3   1   1                         # n, l, Nzeta 
   6.271   
   1.000   
%endblock PAO.Basis

prinput: ----------------------------------------------------------------------

Dumping basis to NetCDF file Si.ion.nc
coor:   Atomic-coordinates input format  =     Fractional

siesta: Atomic coordinates (Bohr) and species
siesta:      0.00000   0.00000   0.00000  1        1
siesta:      2.56530   2.56530   2.56530  1        2

siesta: System type = bulk      

initatomlists: Number of atoms, orbitals, and projectors:      2     8    18

siesta: ******************** Simulation parameters ****************************
siesta:
siesta: The following are some of the parameters of the simulation.
siesta: A complete list of the parameters used, including default values,
siesta: can be found in file out.fdf
siesta:
redata: Non-Collinear-spin run           =     F
redata: SpinPolarized (Up/Down) run      =     F
redata: Number of spin components        =     1
redata: Long output                      =     F
redata: Number of Atomic Species         =        1
redata: Charge density info will appear in .RHO file
redata: Write Mulliken Pop.              =     NO
redata: Mesh Cutoff                      =   130.0000  Ry
redata: Net charge of the system         =     0.0000 |e|
redata: Min. number of SCF Iter          =        0
redata: Max. number of SCF Iter          =       50
redata: Mix DM or H after convergence    =     F
redata: Recompute H after scf cycle      =     F
redata: Mixing is linear
redata: Mix DM in first SCF step ?       =     F
redata: Write Pulay info on disk?        =     F
redata: Discard 1st Pulay DM after  kick =     F
redata: New DM Mixing Weight             =     0.2500
redata: New DM Occupancy tolerance       = 0.000000000001
redata: No kicks to SCF
redata: DM Mixing Weight for Kicks       =     0.5000
redata: DM Tolerance for SCF             =     0.000100
redata: Require (free) Energy convergence in SCF =     F
redata: DM (free)Energy tolerance for SCF =     0.000010 eV
redata: Require Harris convergence for SCF =     F
redata: DM Harris energy tolerance for SCF =     0.000010 eV
redata: Using Saved Data (generic)   =     F
redata: Use continuation files for DM    =     F
redata: Neglect nonoverlap interactions  =     F
redata: Method of Calculation            =     Diagonalization
redata: Divide and Conquer               =     T
redata: Electronic Temperature           =     0.0019  Ry
redata: Fix the spin of the system       =     F
redata: Dynamics option                  =     Force Constants Matrix Calculation
redata: Atomic displ for force constants  =     0.0400  Bohr
redata: First atom to move               =        1
redata: Last atom to move                =        2
redata: ***********************************************************************
Total number of electrons:     8.000000
Total ionic charge:     8.000000

* ProcessorY, Blocksize:    2   1


* Orbital distribution balance (max,min):     1     1

 Kpoints in:            1 . Kpoints trimmed:            1

siesta: k-grid: Number of k-points =     1
siesta: k-grid: Cutoff (effective) =     1.920 Ang
siesta: k-grid: Supercell and displacements
siesta: k-grid:    1   0   0      0.000
siesta: k-grid:    0   1   0      0.000
siesta: k-grid:    0   0   1      0.000

                     ====================================
                        Begin FC step =      0
                        Undisplaced coordinates
                     ====================================

outcell: Unit cell vectors (Ang):
        0.000000    2.715000    2.715000
        2.715000    0.000000    2.715000
        2.715000    2.715000    0.000000

outcell: Cell vector modules (Ang)   :    3.839590    3.839590    3.839590
outcell: Cell angles (23,13,12) (deg):     60.0000     60.0000     60.0000
outcell: Cell volume (Ang**3)        :     40.0258
 Folding of H and S is implicitly performed
New_DM. Step:     1
Initializing Density Matrix...
Note: For starting DM, Qtot, Tr[D*S] =          8.00000000          6.85278698
New grid distribution:   1
           1       1:   12    1:    6    1:    3
           2       1:   12    1:    6    4:    6
           3       1:   12    1:    6    7:    9
           4       1:   12    1:    6   10:   12
           5       1:   12    7:   12    1:    3
           6       1:   12    7:   12    4:    6
           7       1:   12    7:   12    7:    9
           8       1:   12    7:   12   10:   12

InitMesh: MESH =    24 x    24 x    24 =       13824
InitMesh: (bp) =    12 x    12 x    12 =        1728
InitMesh: Mesh cutoff (required, used) =   130.000   161.974 Ry
ExtMesh (bp) on 0 =    64 x    58 x    55 =      204160
New grid distribution:   2
           1       1:    7    1:    6    1:    6
           2       7:   12    7:   12    1:    6
           3       1:    6    1:    6    7:   12
           4       8:   12    1:    6    1:    6
           5       7:   12    1:    6    7:   12
           6       1:    6    7:   12    1:    6
           7       1:    7    7:   12    7:   12
           8       8:   12    7:   12    7:   12
New grid distribution:   3
           1       1:    6    7:   12    7:   12
           2       7:   12    1:    6    1:    6
           3       7:   12    1:    6    7:   12
           4       7:   12    7:   12    1:    6
           5       1:    6    1:    6    7:   12
           6       1:    6    1:    6    1:    6
           7       7:   12    7:   12    7:   12
           8       1:    6    7:   12    1:    6
Setting up quadratic distribution...
ExtMesh (bp) on 0 =    59 x    58 x    58 =      198476
PhiOnMesh: Number of (b)points on node 0 =                  252
PhiOnMesh: nlist on node 0 =                 6710

stepf: Fermi-Dirac step function

siesta: Program's energy decomposition (eV):
siesta: Ebs     =       -51.809545
siesta: Eions   =       380.802124
siesta: Ena     =       115.502327
siesta: Ekin    =        82.397263
siesta: Enl     =        39.713031
siesta: DEna    =        -8.221426
siesta: DUscf   =         0.353217
siesta: DUext   =         0.000000
siesta: Exc     =       -66.294639
siesta: eta*DQ  =         0.000000
siesta: Emadel  =         0.000000
siesta: Emeta   =         0.000000
siesta: Emolmec =         0.000000
siesta: Ekinion =         0.000000
siesta: Eharris =      -194.939313
siesta: Etot    =      -217.352350
siesta: FreeEng =      -217.352350

siesta: Eharris(eV) =    -194.939313


siesta: Eharris(eV) =    -194.939313

timer: Routine,Calls,Time,% =    IterSCF     1       0.015   4.85
SCF_NOT_CONV: SCF did not converge in maximum number of steps.
Geom step, scf iteration, dmax:   0  1    1.787167

Using DM_out to compute the final energy and forces

siesta: E_KS - E_eggbox =      -194.6964

siesta: Atomic forces (eV/Ang):
----------------------------------------
   Tot    0.530332    0.006024    0.343650
----------------------------------------
   Max    0.486297
   Res    0.242568    sqrt( Sum f_i^2 / 3N )
----------------------------------------
   Max    0.486297    constrained

Stress-tensor-Voigt (kbar):     -477.59     -481.24     -482.22       -5.53       17.24       -9.76
(Free)E + p*V (eV/cell)     -182.6964
Target enthalpy (eV/cell)     -194.6964

                     ====================================
                        Begin FC step =      1
                         displace atom 1
                         in direction 1 by -0.021167 Ang
                     ====================================

outcell: Unit cell vectors (Ang):
        0.000000    2.715000    2.715000
        2.715000    0.000000    2.715000
        2.715000    2.715000    0.000000

outcell: Cell vector modules (Ang)   :    3.839590    3.839590    3.839590
outcell: Cell angles (23,13,12) (deg):     60.0000     60.0000     60.0000
outcell: Cell volume (Ang**3)        :     40.0258
 Folding of H and S is implicitly performed
New_DM. Step:     2
Initializing Density Matrix...
Note: For starting DM, Qtot, Tr[D*S] =          8.00000000          6.85278698
New grid distribution:   1
           1       1:   12    1:    6    1:    3
           2       1:   12    1:    6    4:    6
           3       1:   12    1:    6    7:    9
           4       1:   12    1:    6   10:   12
           5       1:   12    7:   12    1:    3
           6       1:   12    7:   12    4:    6
           7       1:   12    7:   12    7:    9
           8       1:   12    7:   12   10:   12

InitMesh: MESH =    24 x    24 x    24 =       13824
InitMesh: (bp) =    12 x    12 x    12 =        1728
InitMesh: Mesh cutoff (required, used) =   130.000   161.974 Ry
ExtMesh (bp) on 0 =    64 x    58 x    55 =      204160
New grid distribution:   2
           1       1:    7    1:    6    1:    6
           2       7:   12    7:   12    1:    6
           3       1:    6    1:    6    7:   12
           4       8:   12    1:    6    1:    6
           5       7:   12    1:    6    7:   12
           6       1:    6    7:   12    1:    6
           7       1:    7    7:   12    7:   12
           8       8:   12    7:   12    7:   12
New grid distribution:   3
           1       1:    6    7:   12    7:   12
           2       7:   12    1:    6    1:    6
           3       7:   12    1:    6    7:   12
           4       7:   12    7:   12    1:    6
           5       1:    6    1:    6    7:   12
           6       1:    6    1:    6    1:    6
           7       7:   12    7:   12    7:   12
           8       1:    6    7:   12    1:    6
Setting up quadratic distribution...
ExtMesh (bp) on 0 =    59 x    58 x    58 =      198476
PhiOnMesh: Number of (b)points on node 0 =                  252
PhiOnMesh: nlist on node 0 =                 6708

siesta: Eharris(eV) =    -194.930730


siesta: Eharris(eV) =    -194.930730

SCF_NOT_CONV: SCF did not converge in maximum number of steps.
Geom step, scf iteration, dmax:   1  1    1.787306

Using DM_out to compute the final energy and forces

siesta: Atomic forces (eV/Ang):
----------------------------------------
   Tot    0.513418    0.008983    0.344785
----------------------------------------
   Max    1.235044
   Res    0.601092    sqrt( Sum f_i^2 / 3N )
----------------------------------------
   Max    1.235044    constrained

Stress-tensor-Voigt (kbar):     -478.78     -484.65     -485.18       -5.58       40.37       -9.95
(Free)E + p*V (eV/cell)     -182.6226
Target enthalpy (eV/cell)     -194.6856

                     ====================================
                        Begin FC step =      2
                         displace atom 1
                         in direction 1 by  0.021167 Ang
                     ====================================

outcell: Unit cell vectors (Ang):
        0.000000    2.715000    2.715000
        2.715000    0.000000    2.715000
        2.715000    2.715000    0.000000

outcell: Cell vector modules (Ang)   :    3.839590    3.839590    3.839590
outcell: Cell angles (23,13,12) (deg):     60.0000     60.0000     60.0000
outcell: Cell volume (Ang**3)        :     40.0258
 Folding of H and S is implicitly performed
New_DM. Step:     3
Initializing Density Matrix...
Note: For starting DM, Qtot, Tr[D*S] =          8.00000000          6.85278698
New grid distribution:   1
           1       1:   12    1:    6    1:    3
           2       1:   12    1:    6    4:    6
           3       1:   12    1:    6    7:    9
           4       1:   12    1:    6   10:   12
           5       1:   12    7:   12    1:    3
           6       1:   12    7:   12    4:    6
           7       1:   12    7:   12    7:    9
           8       1:   12    7:   12   10:   12

InitMesh: MESH =    24 x    24 x    24 =       13824
InitMesh: (bp) =    12 x    12 x    12 =        1728
InitMesh: Mesh cutoff (required, used) =   130.000   161.974 Ry
ExtMesh (bp) on 0 =    64 x    58 x    55 =      204160
New grid distribution:   2
           1       1:    7    1:    6    1:    6
           2       7:   12    7:   12    1:    6
           3       1:    6    1:    6    7:   12
           4       8:   12    1:    6    1:    6
           5       7:   12    1:    6    7:   12
           6       1:    6    7:   12    1:    6
           7       1:    7    7:   12    7:   12
           8       8:   12    7:   12    7:   12
New grid distribution:   3
           1       1:    6    7:   12    7:   12
           2       7:   12    1:    6    1:    6
           3       7:   12    1:    6    7:   12
           4       7:   12    7:   12    1:    6
           5       1:    6    1:    6    7:   12
           6       1:    6    1:    6    1:    6
           7       7:   12    7:   12    7:   12
           8       1:    6    7:   12    1:    6
Setting up quadratic distribution...
ExtMesh (bp) on 0 =    59 x    58 x    58 =      198476
PhiOnMesh: Number of (b)points on node 0 =                  252
PhiOnMesh: nlist on node 0 =                 6724

siesta: Eharris(eV) =    -194.938708


siesta: Eharris(eV) =    -194.938708

SCF_NOT_CONV: SCF did not converge in maximum number of steps.
Geom step, scf iteration, dmax:   2  1    1.787361

Using DM_out to compute the final energy and forces

siesta: Atomic forces (eV/Ang):
----------------------------------------
   Tot    0.010573   -0.000272   -0.000268
----------------------------------------
   Max    0.790987
   Res    0.453691    sqrt( Sum f_i^2 / 3N )
----------------------------------------
   Max    0.790987    constrained

Stress-tensor-Voigt (kbar):     -478.58     -480.17     -479.61       -0.16      -22.88        0.09
(Free)E + p*V (eV/cell)     -182.7089
Target enthalpy (eV/cell)     -194.6864

                     ====================================
                        Begin FC step =      3
                         displace atom 1
                         in direction 2 by -0.021167 Ang
                     ====================================

outcell: Unit cell vectors (Ang):
        0.000000    2.715000    2.715000
        2.715000    0.000000    2.715000
        2.715000    2.715000    0.000000

outcell: Cell vector modules (Ang)   :    3.839590    3.839590    3.839590
outcell: Cell angles (23,13,12) (deg):     60.0000     60.0000     60.0000
outcell: Cell volume (Ang**3)        :     40.0258
 Folding of H and S is implicitly performed
New_DM. Step:     4
Initializing Density Matrix...
Note: For starting DM, Qtot, Tr[D*S] =          8.00000000          6.85278698
New grid distribution:   1
           1       1:   12    1:    6    1:    3
           2       1:   12    1:    6    4:    6
           3       1:   12    1:    6    7:    9
           4       1:   12    1:    6   10:   12
           5       1:   12    7:   12    1:    3
           6       1:   12    7:   12    4:    6
           7       1:   12    7:   12    7:    9
           8       1:   12    7:   12   10:   12

InitMesh: MESH =    24 x    24 x    24 =       13824
InitMesh: (bp) =    12 x    12 x    12 =        1728
InitMesh: Mesh cutoff (required, used) =   130.000   161.974 Ry
ExtMesh (bp) on 0 =    64 x    58 x    55 =      204160
New grid distribution:   2
           1       1:    7    1:    6    1:    6
           2       7:   12    7:   12    1:    6
           3       1:    6    1:    6    7:   12
           4       8:   12    1:    6    1:    6
           5       7:   12    1:    6    7:   12
           6       1:    6    7:   12    1:    6
           7       1:    7    7:   12    7:   12
           8       8:   12    7:   12    7:   12
New grid distribution:   3
           1       1:    6    7:   12    7:   12
           2       7:   12    1:    6    1:    6
           3       7:   12    1:    6    7:   12
           4       7:   12    7:   12    1:    6
           5       1:    6    1:    6    7:   12
           6       1:    6    1:    6    1:    6
           7       7:   12    7:   12    7:   12
           8       1:    6    7:   12    1:    6
Setting up quadratic distribution...
ExtMesh (bp) on 0 =    59 x    58 x    58 =      198476
PhiOnMesh: Number of (b)points on node 0 =                  252
PhiOnMesh: nlist on node 0 =                 6713

siesta: Eharris(eV) =    -194.932994


siesta: Eharris(eV) =    -194.932994

SCF_NOT_CONV: SCF did not converge in maximum number of steps.
Geom step, scf iteration, dmax:   3  1    1.787187

Using DM_out to compute the final energy and forces

siesta: Atomic forces (eV/Ang):
----------------------------------------
   Tot    0.000000   -0.010143    0.000000
----------------------------------------
   Max    0.782343
   Res    0.448767    sqrt( Sum f_i^2 / 3N )
----------------------------------------
   Max    0.782343    constrained

Stress-tensor-Voigt (kbar):     -479.81     -479.67     -479.81       -0.00       -0.00       22.98
(Free)E + p*V (eV/cell)     -182.7041
Target enthalpy (eV/cell)     -194.6894

                     ====================================
                        Begin FC step =      4
                         displace atom 1
                         in direction 2 by  0.021167 Ang
                     ====================================

outcell: Unit cell vectors (Ang):
        0.000000    2.715000    2.715000
        2.715000    0.000000    2.715000
        2.715000    2.715000    0.000000

outcell: Cell vector modules (Ang)   :    3.839590    3.839590    3.839590
outcell: Cell angles (23,13,12) (deg):     60.0000     60.0000     60.0000
outcell: Cell volume (Ang**3)        :     40.0258
 Folding of H and S is implicitly performed
New_DM. Step:     5
Initializing Density Matrix...
Note: For starting DM, Qtot, Tr[D*S] =          8.00000000          6.85278698
New grid distribution:   1
           1       1:   12    1:    6    1:    3
           2       1:   12    1:    6    4:    6
           3       1:   12    1:    6    7:    9
           4       1:   12    1:    6   10:   12
           5       1:   12    7:   12    1:    3
           6       1:   12    7:   12    4:    6
           7       1:   12    7:   12    7:    9
           8       1:   12    7:   12   10:   12

InitMesh: MESH =    24 x    24 x    24 =       13824
InitMesh: (bp) =    12 x    12 x    12 =        1728
InitMesh: Mesh cutoff (required, used) =   130.000   161.974 Ry
ExtMesh (bp) on 0 =    64 x    58 x    55 =      204160
New grid distribution:   2
           1       1:    7    1:    6    1:    6
           2       7:   12    7:   12    1:    6
           3       1:    6    1:    6    7:   12
           4       8:   12    1:    6    1:    6
           5       7:   12    1:    6    7:   12
           6       1:    6    7:   12    1:    6
           7       1:    7    7:   12    7:   12
           8       8:   12    7:   12    7:   12
New grid distribution:   3
           1       1:    6    7:   12    7:   12
           2       7:   12    1:    6    1:    6
           3       7:   12    1:    6    7:   12
           4       7:   12    7:   12    1:    6
           5       1:    6    1:    6    7:   12
           6       1:    6    1:    6    1:    6
           7       7:   12    7:   12    7:   12
           8       1:    6    7:   12    1:    6
Setting up quadratic distribution...
ExtMesh (bp) on 0 =    59 x    58 x    58 =      198476
PhiOnMesh: Number of (b)points on node 0 =                  252
PhiOnMesh: nlist on node 0 =                 6720

siesta: Eharris(eV) =    -194.932994


siesta: Eharris(eV) =    -194.932994

SCF_NOT_CONV: SCF did not converge in maximum number of steps.
Geom step, scf iteration, dmax:   4  1    1.787187

Using DM_out to compute the final energy and forces

siesta: Atomic forces (eV/Ang):
----------------------------------------
   Tot    0.000000    0.010143    0.000000
----------------------------------------
   Max    0.782343
   Res    0.448767    sqrt( Sum f_i^2 / 3N )
----------------------------------------
   Max    0.782343    constrained

Stress-tensor-Voigt (kbar):     -479.81     -479.67     -479.81       -0.00       -0.00      -22.98
(Free)E + p*V (eV/cell)     -182.7041
Target enthalpy (eV/cell)     -194.6894

                     ====================================
                        Begin FC step =      5
                         displace atom 1
                         in direction 3 by -0.021167 Ang
                     ====================================

outcell: Unit cell vectors (Ang):
        0.000000    2.715000    2.715000
        2.715000    0.000000    2.715000
        2.715000    2.715000    0.000000

outcell: Cell vector modules (Ang)   :    3.839590    3.839590    3.839590
outcell: Cell angles (23,13,12) (deg):     60.0000     60.0000     60.0000
outcell: Cell volume (Ang**3)        :     40.0258
 Folding of H and S is implicitly performed
New_DM. Step:     6
Initializing Density Matrix...
Note: For starting DM, Qtot, Tr[D*S] =          8.00000000          6.85278698
New grid distribution:   1
           1       1:   12    1:    6    1:    3
           2       1:   12    1:    6    4:    6
           3       1:   12    1:    6    7:    9
           4       1:   12    1:    6   10:   12
           5       1:   12    7:   12    1:    3
           6       1:   12    7:   12    4:    6
           7       1:   12    7:   12    7:    9
           8       1:   12    7:   12   10:   12

InitMesh: MESH =    24 x    24 x    24 =       13824
InitMesh: (bp) =    12 x    12 x    12 =        1728
InitMesh: Mesh cutoff (required, used) =   130.000   161.974 Ry
ExtMesh (bp) on 0 =    64 x    58 x    55 =      204160
New grid distribution:   2
           1       1:    7    1:    6    1:    6
           2       7:   12    7:   12    1:    6
           3       1:    6    1:    6    7:   12
           4       8:   12    1:    6    1:    6
           5       7:   12    1:    6    7:   12
           6       1:    6    7:   12    1:    6
           7       1:    7    7:   12    7:   12
           8       8:   12    7:   12    7:   12
New grid distribution:   3
           1       1:    6    7:   12    7:   12
           2       7:   12    1:    6    1:    6
           3       7:   12    1:    6    7:   12
           4       7:   12    7:   12    1:    6
           5       1:    6    1:    6    7:   12
           6       1:    6    1:    6    1:    6
           7       7:   12    7:   12    7:   12
           8       1:    6    7:   12    1:    6
Setting up quadratic distribution...
ExtMesh (bp) on 0 =    59 x    58 x    58 =      198476
PhiOnMesh: Number of (b)points on node 0 =                  252
PhiOnMesh: nlist on node 0 =                 6713

siesta: Eharris(eV) =    -194.932994


siesta: Eharris(eV) =    -194.932994

SCF_NOT_CONV: SCF did not converge in maximum number of steps.
Geom step, scf iteration, dmax:   5  1    1.787187

Using DM_out to compute the final energy and forces

siesta: Atomic forces (eV/Ang):
----------------------------------------
   Tot    0.000000    0.000000   -0.010143
----------------------------------------
   Max    0.782343
   Res    0.448767    sqrt( Sum f_i^2 / 3N )
----------------------------------------
   Max    0.782343    constrained

Stress-tensor-Voigt (kbar):     -479.81     -479.81     -479.67       22.98       -0.00       -0.00
(Free)E + p*V (eV/cell)     -182.7041
Target enthalpy (eV/cell)     -194.6894

                     ====================================
                        Begin FC step =      6
                         displace atom 1
                         in direction 3 by  0.021167 Ang
                     ====================================

outcell: Unit cell vectors (Ang):
        0.000000    2.715000    2.715000
        2.715000    0.000000    2.715000
        2.715000    2.715000    0.000000

outcell: Cell vector modules (Ang)   :    3.839590    3.839590    3.839590
outcell: Cell angles (23,13,12) (deg):     60.0000     60.0000     60.0000
outcell: Cell volume (Ang**3)        :     40.0258
 Folding of H and S is implicitly performed
New_DM. Step:     7
Initializing Density Matrix...
Note: For starting DM, Qtot, Tr[D*S] =          8.00000000          6.85278698
New grid distribution:   1
           1       1:   12    1:    6    1:    3
           2       1:   12    1:    6    4:    6
           3       1:   12    1:    6    7:    9
           4       1:   12    1:    6   10:   12
           5       1:   12    7:   12    1:    3
           6       1:   12    7:   12    4:    6
           7       1:   12    7:   12    7:    9
           8       1:   12    7:   12   10:   12

InitMesh: MESH =    24 x    24 x    24 =       13824
InitMesh: (bp) =    12 x    12 x    12 =        1728
InitMesh: Mesh cutoff (required, used) =   130.000   161.974 Ry
ExtMesh (bp) on 0 =    64 x    58 x    55 =      204160
New grid distribution:   2
           1       1:    7    1:    6    1:    6
           2       7:   12    7:   12    1:    6
           3       1:    6    1:    6    7:   12
           4       8:   12    1:    6    1:    6
           5       7:   12    1:    6    7:   12
           6       1:    6    7:   12    1:    6
           7       1:    7    7:   12    7:   12
           8       8:   12    7:   12    7:   12
New grid distribution:   3
           1       1:    6    7:   12    7:   12
           2       7:   12    1:    6    1:    6
           3       7:   12    1:    6    7:   12
           4       7:   12    7:   12    1:    6
           5       1:    6    1:    6    7:   12
           6       1:    6    1:    6    1:    6
           7       7:   12    7:   12    7:   12
           8       1:    6    7:   12    1:    6
Setting up quadratic distribution...
ExtMesh (bp) on 0 =    59 x    58 x    58 =      198476
PhiOnMesh: Number of (b)points on node 0 =                  252
PhiOnMesh: nlist on node 0 =                 6720

siesta: Eharris(eV) =    -194.932994


siesta: Eharris(eV) =    -194.932994

SCF_NOT_CONV: SCF did not converge in maximum number of steps.
Geom step, scf iteration, dmax:   6  1    1.787187

Using DM_out to compute the final energy and forces

siesta: Atomic forces (eV/Ang):
----------------------------------------
   Tot    0.000000    0.000000    0.010143
----------------------------------------
   Max    0.782343
   Res    0.448767    sqrt( Sum f_i^2 / 3N )
----------------------------------------
   Max    0.782343    constrained

Stress-tensor-Voigt (kbar):     -479.81     -479.81     -479.67      -22.98       -0.00       -0.00
(Free)E + p*V (eV/cell)     -182.7041
Target enthalpy (eV/cell)     -194.6894

                     ====================================
                        Begin FC step =      7
                         displace atom 2
                         in direction 1 by -0.021167 Ang
                     ====================================

outcell: Unit cell vectors (Ang):
        0.000000    2.715000    2.715000
        2.715000    0.000000    2.715000
        2.715000    2.715000    0.000000

outcell: Cell vector modules (Ang)   :    3.839590    3.839590    3.839590
outcell: Cell angles (23,13,12) (deg):     60.0000     60.0000     60.0000
outcell: Cell volume (Ang**3)        :     40.0258
 Folding of H and S is implicitly performed
New_DM. Step:     8
Initializing Density Matrix...
Note: For starting DM, Qtot, Tr[D*S] =          8.00000000          6.85278698
New grid distribution:   1
           1       1:   12    1:    6    1:    3
           2       1:   12    1:    6    4:    6
           3       1:   12    1:    6    7:    9
           4       1:   12    1:    6   10:   12
           5       1:   12    7:   12    1:    3
           6       1:   12    7:   12    4:    6
           7       1:   12    7:   12    7:    9
           8       1:   12    7:   12   10:   12

InitMesh: MESH =    24 x    24 x    24 =       13824
InitMesh: (bp) =    12 x    12 x    12 =        1728
InitMesh: Mesh cutoff (required, used) =   130.000   161.974 Ry
ExtMesh (bp) on 0 =    64 x    58 x    55 =      204160
New grid distribution:   2
           1       1:    7    1:    6    1:    6
           2       7:   12    7:   12    1:    6
           3       1:    6    1:    6    7:   12
           4       8:   12    1:    6    1:    6
           5       7:   12    1:    6    7:   12
           6       1:    6    7:   12    1:    6
           7       1:    7    7:   12    7:   12
           8       8:   12    7:   12    7:   12
New grid distribution:   3
           1       1:    6    7:   12    7:   12
           2       7:   12    1:    6    1:    6
           3       7:   12    1:    6    7:   12
           4       7:   12    7:   12    1:    6
           5       1:    6    1:    6    7:   12
           6       1:    6    1:    6    1:    6
           7       7:   12    7:   12    7:   12
           8       1:    6    7:   12    1:    6
Setting up quadratic distribution...
ExtMesh (bp) on 0 =    59 x    58 x    58 =      198476
PhiOnMesh: Number of (b)points on node 0 =                  252
PhiOnMesh: nlist on node 0 =                 6721

siesta: Eharris(eV) =    -194.932994


siesta: Eharris(eV) =    -194.932994

SCF_NOT_CONV: SCF did not converge in maximum number of steps.
Geom step, scf iteration, dmax:   7  1    1.787187

Using DM_out to compute the final energy and forces

siesta: Atomic forces (eV/Ang):
----------------------------------------
   Tot   -0.010143   -0.000000   -0.000000
----------------------------------------
   Max    0.782343
   Res    0.448767    sqrt( Sum f_i^2 / 3N )
----------------------------------------
   Max    0.782343    constrained

Stress-tensor-Voigt (kbar):     -479.67     -479.81     -479.81       -0.00      -22.98       -0.00
(Free)E + p*V (eV/cell)     -182.7041
Target enthalpy (eV/cell)     -194.6894

                     ====================================
                        Begin FC step =      8
                         displace atom 2
                         in direction 1 by  0.021167 Ang
                     ====================================

outcell: Unit cell vectors (Ang):
        0.000000    2.715000    2.715000
        2.715000    0.000000    2.715000
        2.715000    2.715000    0.000000

outcell: Cell vector modules (Ang)   :    3.839590    3.839590    3.839590
outcell: Cell angles (23,13,12) (deg):     60.0000     60.0000     60.0000
outcell: Cell volume (Ang**3)        :     40.0258
 Folding of H and S is implicitly performed
New_DM. Step:     9
Initializing Density Matrix...
Note: For starting DM, Qtot, Tr[D*S] =          8.00000000          6.85278698
New grid distribution:   1
           1       1:   12    1:    6    1:    3
           2       1:   12    1:    6    4:    6
           3       1:   12    1:    6    7:    9
           4       1:   12    1:    6   10:   12
           5       1:   12    7:   12    1:    3
           6       1:   12    7:   12    4:    6
           7       1:   12    7:   12    7:    9
           8       1:   12    7:   12   10:   12

InitMesh: MESH =    24 x    24 x    24 =       13824
InitMesh: (bp) =    12 x    12 x    12 =        1728
InitMesh: Mesh cutoff (required, used) =   130.000   161.974 Ry
ExtMesh (bp) on 0 =    64 x    58 x    55 =      204160
New grid distribution:   2
           1       1:    7    1:    6    1:    6
           2       7:   12    7:   12    1:    6
           3       1:    6    1:    6    7:   12
           4       8:   12    1:    6    1:    6
           5       7:   12    1:    6    7:   12
           6       1:    6    7:   12    1:    6
           7       1:    7    7:   12    7:   12
           8       8:   12    7:   12    7:   12
New grid distribution:   3
           1       1:    6    7:   12    7:   12
           2       7:   12    1:    6    1:    6
           3       7:   12    1:    6    7:   12
           4       7:   12    7:   12    1:    6
           5       1:    6    1:    6    7:   12
           6       1:    6    1:    6    1:    6
           7       7:   12    7:   12    7:   12
           8       1:    6    7:   12    1:    6
Setting up quadratic distribution...
ExtMesh (bp) on 0 =    59 x    58 x    58 =      198476
PhiOnMesh: Number of (b)points on node 0 =                  252
PhiOnMesh: nlist on node 0 =                 6724

siesta: Eharris(eV) =    -194.932994


siesta: Eharris(eV) =    -194.932994

SCF_NOT_CONV: SCF did not converge in maximum number of steps.
Geom step, scf iteration, dmax:   8  1    1.787187

Using DM_out to compute the final energy and forces

siesta: Atomic forces (eV/Ang):
----------------------------------------
   Tot    0.010143   -0.000000   -0.000000
----------------------------------------
   Max    0.782343
   Res    0.448767    sqrt( Sum f_i^2 / 3N )
----------------------------------------
   Max    0.782343    constrained

Stress-tensor-Voigt (kbar):     -479.67     -479.81     -479.81       -0.00       22.98       -0.00
(Free)E + p*V (eV/cell)     -182.7041
Target enthalpy (eV/cell)     -194.6894

                     ====================================
                        Begin FC step =      9
                         displace atom 2
                         in direction 2 by -0.021167 Ang
                     ====================================

outcell: Unit cell vectors (Ang):
        0.000000    2.715000    2.715000
        2.715000    0.000000    2.715000
        2.715000    2.715000    0.000000

outcell: Cell vector modules (Ang)   :    3.839590    3.839590    3.839590
outcell: Cell angles (23,13,12) (deg):     60.0000     60.0000     60.0000
outcell: Cell volume (Ang**3)        :     40.0258
 Folding of H and S is implicitly performed
New_DM. Step:    10
Initializing Density Matrix...
Note: For starting DM, Qtot, Tr[D*S] =          8.00000000          6.85278698
New grid distribution:   1
           1       1:   12    1:    6    1:    3
           2       1:   12    1:    6    4:    6
           3       1:   12    1:    6    7:    9
           4       1:   12    1:    6   10:   12
           5       1:   12    7:   12    1:    3
           6       1:   12    7:   12    4:    6
           7       1:   12    7:   12    7:    9
           8       1:   12    7:   12   10:   12

InitMesh: MESH =    24 x    24 x    24 =       13824
InitMesh: (bp) =    12 x    12 x    12 =        1728
InitMesh: Mesh cutoff (required, used) =   130.000   161.974 Ry
ExtMesh (bp) on 0 =    64 x    58 x    55 =      204160
New grid distribution:   2
           1       1:    7    1:    6    1:    6
           2       7:   12    7:   12    1:    6
           3       1:    6    1:    6    7:   12
           4       8:   12    1:    6    1:    6
           5       7:   12    1:    6    7:   12
           6       1:    6    7:   12    1:    6
           7       1:    7    7:   12    7:   12
           8       8:   12    7:   12    7:   12
New grid distribution:   3
           1       1:    6    7:   12    7:   12
           2       7:   12    1:    6    1:    6
           3       7:   12    1:    6    7:   12
           4       7:   12    7:   12    1:    6
           5       1:    6    1:    6    7:   12
           6       1:    6    1:    6    1:    6
           7       7:   12    7:   12    7:   12
           8       1:    6    7:   12    1:    6
Setting up quadratic distribution...
ExtMesh (bp) on 0 =    59 x    58 x    58 =      198476
PhiOnMesh: Number of (b)points on node 0 =                  252
PhiOnMesh: nlist on node 0 =                 6717

siesta: Eharris(eV) =    -194.932994


siesta: Eharris(eV) =    -194.932994

SCF_NOT_CONV: SCF did not converge in maximum number of steps.
Geom step, scf iteration, dmax:   9  1    1.787187

Using DM_out to compute the final energy and forces

siesta: Atomic forces (eV/Ang):
----------------------------------------
   Tot   -0.000000   -0.010143   -0.000000
----------------------------------------
   Max    0.782343
   Res    0.448767    sqrt( Sum f_i^2 / 3N )
----------------------------------------
   Max    0.782343    constrained

Stress-tensor-Voigt (kbar):     -479.81     -479.67     -479.81       -0.00       -0.00      -22.98
(Free)E + p*V (eV/cell)     -182.7041
Target enthalpy (eV/cell)     -194.6894

                     ====================================
                        Begin FC step =     10
                         displace atom 2
                         in direction 2 by  0.021167 Ang
                     ====================================

outcell: Unit cell vectors (Ang):
        0.000000    2.715000    2.715000
        2.715000    0.000000    2.715000
        2.715000    2.715000    0.000000

outcell: Cell vector modules (Ang)   :    3.839590    3.839590    3.839590
outcell: Cell angles (23,13,12) (deg):     60.0000     60.0000     60.0000
outcell: Cell volume (Ang**3)        :     40.0258
 Folding of H and S is implicitly performed
New_DM. Step:    11
Initializing Density Matrix...
Note: For starting DM, Qtot, Tr[D*S] =          8.00000000          6.85278698
New grid distribution:   1
           1       1:   12    1:    6    1:    3
           2       1:   12    1:    6    4:    6
           3       1:   12    1:    6    7:    9
           4       1:   12    1:    6   10:   12
           5       1:   12    7:   12    1:    3
           6       1:   12    7:   12    4:    6
           7       1:   12    7:   12    7:    9
           8       1:   12    7:   12   10:   12

InitMesh: MESH =    24 x    24 x    24 =       13824
InitMesh: (bp) =    12 x    12 x    12 =        1728
InitMesh: Mesh cutoff (required, used) =   130.000   161.974 Ry
ExtMesh (bp) on 0 =    64 x    58 x    55 =      204160
New grid distribution:   2
           1       1:    7    1:    6    1:    6
           2       7:   12    7:   12    1:    6
           3       1:    6    1:    6    7:   12
           4       8:   12    1:    6    1:    6
           5       7:   12    1:    6    7:   12
           6       1:    6    7:   12    1:    6
           7       1:    7    7:   12    7:   12
           8       8:   12    7:   12    7:   12
New grid distribution:   3
           1       1:    6    7:   12    7:   12
           2       7:   12    1:    6    1:    6
           3       7:   12    1:    6    7:   12
           4       7:   12    7:   12    1:    6
           5       1:    6    1:    6    7:   12
           6       1:    6    1:    6    1:    6
           7       7:   12    7:   12    7:   12
           8       1:    6    7:   12    1:    6
Setting up quadratic distribution...
ExtMesh (bp) on 0 =    59 x    58 x    58 =      198476
PhiOnMesh: Number of (b)points on node 0 =                  252
PhiOnMesh: nlist on node 0 =                 6716

siesta: Eharris(eV) =    -194.932994


siesta: Eharris(eV) =    -194.932994

SCF_NOT_CONV: SCF did not converge in maximum number of steps.
Geom step, scf iteration, dmax:  10  1    1.787187

Using DM_out to compute the final energy and forces

siesta: Atomic forces (eV/Ang):
----------------------------------------
   Tot   -0.000000    0.010143   -0.000000
----------------------------------------
   Max    0.782343
   Res    0.448767    sqrt( Sum f_i^2 / 3N )
----------------------------------------
   Max    0.782343    constrained

Stress-tensor-Voigt (kbar):     -479.81     -479.67     -479.81       -0.00       -0.00       22.98
(Free)E + p*V (eV/cell)     -182.7041
Target enthalpy (eV/cell)     -194.6894

                     ====================================
                        Begin FC step =     11
                         displace atom 2
                         in direction 3 by -0.021167 Ang
                     ====================================

outcell: Unit cell vectors (Ang):
        0.000000    2.715000    2.715000
        2.715000    0.000000    2.715000
        2.715000    2.715000    0.000000

outcell: Cell vector modules (Ang)   :    3.839590    3.839590    3.839590
outcell: Cell angles (23,13,12) (deg):     60.0000     60.0000     60.0000
outcell: Cell volume (Ang**3)        :     40.0258
 Folding of H and S is implicitly performed
New_DM. Step:    12
Initializing Density Matrix...
Note: For starting DM, Qtot, Tr[D*S] =          8.00000000          6.85278698
New grid distribution:   1
           1       1:   12    1:    6    1:    3
           2       1:   12    1:    6    4:    6
           3       1:   12    1:    6    7:    9
           4       1:   12    1:    6   10:   12
           5       1:   12    7:   12    1:    3
           6       1:   12    7:   12    4:    6
           7       1:   12    7:   12    7:    9
           8       1:   12    7:   12   10:   12

InitMesh: MESH =    24 x    24 x    24 =       13824
InitMesh: (bp) =    12 x    12 x    12 =        1728
InitMesh: Mesh cutoff (required, used) =   130.000   161.974 Ry
ExtMesh (bp) on 0 =    64 x    58 x    55 =      204160
New grid distribution:   2
           1       1:    7    1:    6    1:    6
           2       7:   12    7:   12    1:    6
           3       1:    6    1:    6    7:   12
           4       8:   12    1:    6    1:    6
           5       7:   12    1:    6    7:   12
           6       1:    6    7:   12    1:    6
           7       1:    7    7:   12    7:   12
           8       8:   12    7:   12    7:   12
New grid distribution:   3
           1       1:    6    7:   12    7:   12
           2       7:   12    1:    6    1:    6
           3       7:   12    1:    6    7:   12
           4       7:   12    7:   12    1:    6
           5       1:    6    1:    6    7:   12
           6       1:    6    1:    6    1:    6
           7       7:   12    7:   12    7:   12
           8       1:    6    7:   12    1:    6
Setting up quadratic distribution...
ExtMesh (bp) on 0 =    59 x    58 x    58 =      198476
PhiOnMesh: Number of (b)points on node 0 =                  252
PhiOnMesh: nlist on node 0 =                 6717

siesta: Eharris(eV) =    -194.932994


siesta: Eharris(eV) =    -194.932994

SCF_NOT_CONV: SCF did not converge in maximum number of steps.
Geom step, scf iteration, dmax:  11  1    1.787187

Using DM_out to compute the final energy and forces

siesta: Atomic forces (eV/Ang):
----------------------------------------
   Tot   -0.000000   -0.000000   -0.010143
----------------------------------------
   Max    0.782343
   Res    0.448767    sqrt( Sum f_i^2 / 3N )
----------------------------------------
   Max    0.782343    constrained

Stress-tensor-Voigt (kbar):     -479.81     -479.81     -479.67      -22.98       -0.00       -0.00
(Free)E + p*V (eV/cell)     -182.7041
Target enthalpy (eV/cell)     -194.6894

                     ====================================
                        Begin FC step =     12
                         displace atom 2
                         in direction 3 by  0.021167 Ang
                     ====================================

outcell: Unit cell vectors (Ang):
        0.000000    2.715000    2.715000
        2.715000    0.000000    2.715000
        2.715000    2.715000    0.000000

outcell: Cell vector modules (Ang)   :    3.839590    3.839590    3.839590
outcell: Cell angles (23,13,12) (deg):     60.0000     60.0000     60.0000
outcell: Cell volume (Ang**3)        :     40.0258
 Folding of H and S is implicitly performed
New_DM. Step:    13
Initializing Density Matrix...
Note: For starting DM, Qtot, Tr[D*S] =          8.00000000          6.85278698
New grid distribution:   1
           1       1:   12    1:    6    1:    3
           2       1:   12    1:    6    4:    6
           3       1:   12    1:    6    7:    9
           4       1:   12    1:    6   10:   12
           5       1:   12    7:   12    1:    3
           6       1:   12    7:   12    4:    6
           7       1:   12    7:   12    7:    9
           8       1:   12    7:   12   10:   12

InitMesh: MESH =    24 x    24 x    24 =       13824
InitMesh: (bp) =    12 x    12 x    12 =        1728
InitMesh: Mesh cutoff (required, used) =   130.000   161.974 Ry
ExtMesh (bp) on 0 =    64 x    58 x    55 =      204160
New grid distribution:   2
           1       1:    7    1:    6    1:    6
           2       7:   12    7:   12    1:    6
           3       1:    6    1:    6    7:   12
           4       8:   12    1:    6    1:    6
           5       7:   12    1:    6    7:   12
           6       1:    6    7:   12    1:    6
           7       1:    7    7:   12    7:   12
           8       8:   12    7:   12    7:   12
New grid distribution:   3
           1       1:    6    7:   12    7:   12
           2       7:   12    1:    6    1:    6
           3       7:   12    1:    6    7:   12
           4       7:   12    7:   12    1:    6
           5       1:    6    1:    6    7:   12
           6       1:    6    1:    6    1:    6
           7       7:   12    7:   12    7:   12
           8       1:    6    7:   12    1:    6
Setting up quadratic distribution...
ExtMesh (bp) on 0 =    59 x    58 x    58 =      198476
PhiOnMesh: Number of (b)points on node 0 =                  252
PhiOnMesh: nlist on node 0 =                 6716

siesta: Eharris(eV) =    -194.932994


siesta: Eharris(eV) =    -194.932994

SCF_NOT_CONV: SCF did not converge in maximum number of steps.
Geom step, scf iteration, dmax:  12  1    1.787187

Using DM_out to compute the final energy and forces

siesta: Atomic forces (eV/Ang):
----------------------------------------
   Tot   -0.000000   -0.000000    0.010143
----------------------------------------
   Max    0.782343
   Res    0.448767    sqrt( Sum f_i^2 / 3N )
----------------------------------------
   Max    0.782343    constrained

Stress-tensor-Voigt (kbar):     -479.81     -479.81     -479.67       22.98       -0.00       -0.00
(Free)E + p*V (eV/cell)     -182.7041
Target enthalpy (eV/cell)     -194.6894

siesta: Program's energy decomposition (eV):
siesta: Ebs     =       -51.806757
siesta: Eions   =       380.802124
siesta: Ena     =       115.501483
siesta: Ekin    =       115.577902
siesta: Enl     =        29.935837
siesta: DEna    =        -8.120548
siesta: DUscf   =         1.765896
siesta: DUext   =         0.000000
siesta: Exc     =       -68.547879
siesta: eta*DQ  =         0.000000
siesta: Emadel  =         0.000000
siesta: Emeta   =         0.000000
siesta: Emolmec =         0.000000
siesta: Ekinion =         0.000000
siesta: Eharris =      -194.932994
siesta: Etot    =      -194.689432
siesta: FreeEng =      -194.689432

siesta: Final energy (eV):
siesta:  Band Struct. =     -51.806757
siesta:       Kinetic =     115.577902
siesta:       Hartree =      23.678155
siesta:    Ext. field =       0.000000
siesta:   Exch.-corr. =     -68.547879
siesta:  Ion-electron =    -120.258615
siesta:       Ion-ion =    -145.138996
siesta:       Ekinion =       0.000000
siesta:         Total =    -194.689432

siesta: Atomic forces (eV/Ang):
siesta:      1   -0.000000   -0.000000    0.782343
siesta:      2    0.000000    0.000000   -0.772200
siesta: ----------------------------------------
siesta:    Tot   -0.000000   -0.000000    0.010143

siesta: Stress tensor (static) (eV/Ang**3):
siesta:    -0.299468    0.014341   -0.000000
siesta:     0.014341   -0.299468   -0.000000
siesta:    -0.000000   -0.000000   -0.299383

siesta: Cell volume =         40.025752 Ang**3

siesta: Pressure (static):
siesta:                Solid            Molecule  Units
siesta:           0.00326128          0.00335847  Ry/Bohr**3
siesta:           0.29943950          0.30836374  eV/Ang**3
siesta:         479.76015890        494.05852160  kBar
(Free)E+ p_basis*V_orbitals  =        -194.112732
(Free)Eharris+ p_basis*V_orbitals  =        -194.356294
>> End of run:   2-JUL-2017  11:47:37
Job completed
