Siesta Version  : siesta-psml-778-608
Architecture    : gfortran-gridxc-0.8.5
Compiler version: GNU Fortran (Homebrew GCC 7.2.0) 7.2.0
Compiler flags  : mpif90 -O2 -fbacktrace
PP flags        : -DCDF  -DMPI -DMPI_TIMING  -DF2003
Libraries       :  -L/usr/local/Cellar/netcdf/4.4.1.1_6/lib -lnetcdff -L/opt/scalapack/openmpi--2.1.2--gfortran-7.2.0/lib -lscalapack -lveclibfort
Directory       : /Users/ag/code/GITLAB/Siesta/garalb/_psml/Tests/ge-soc-bands-psml/fixed
PARALLEL version
NetCDF support

* Running on 2 nodes in parallel
>> Start of run:  26-OCT-2019  22:24:39

                           ***********************       
                           *  WELCOME TO SIESTA  *       
                           ***********************       

reinit: Reading from ../ge-soc-bands-psml.fdf

reinit: -----------------------------------------------------------------------
reinit: System Name: bulk Ge with full spin-orbit. PSML pseudo. Test bands
reinit: -----------------------------------------------------------------------
reinit: System Label: ge-soc-bands-psml
reinit: -----------------------------------------------------------------------

initatom: Reading input for the pseudopotentials and atomic orbitals ----------
Species number:   1 Atomic number:   32 Label: 32_Ge_r

Ground state valence configuration:   4s02  4p02

Reading pseudopotential from: 32_Ge_r.psml

PSML file version: 1.1
Using libxc ids:    1   9
LDA--CA XC_LDA_X--XC_LDA_C_PZ ca
 Using ATOM defaults for log grid...
PSML uuid: dfe37d80-4c76-11e8-6e88-12d1fffba5fe
Dumping pseudopotential information in formatted form in 32_Ge_r.psdump
Semicore shell(s) with 10 electrons included in the valence for
32_Ge_r

Pseudopotential generated from a relativistic atomic calculation
There are spin-orbit semi-local pseudopotentials available

Valence configuration for pseudopotential generation:
4s( 2.00) rc: 2.60
4p( 2.00) rc: 2.60
3d(10.00) rc: 2.00
  -- Semicore analysis
For l=2, gen_n, nval_gs: 3 4
* There are  1  semicore shells
For 32_Ge_r, standard SIESTA heuristics set lmxkb to 3
 (one more than the basis l, including polarization orbitals).
Use PS.lmax or PS.KBprojectors blocks to override.
32_Ge_r pseudopotential only contains V_ls up to l=2 -- lmxkb reset.

<basis_specs>
===============================================================================
32_Ge_r              Z=  32    Mass=  72.610        Charge= 0.17977+309
Lmxo=2 Lmxkb= 2    BasisType=split      Semic=T
L=0  Nsemic=0  Cnfigmx=4
          i=1  nzeta=2  polorb=0  (4s)
            splnorm:   0.15000    
               vcte:    0.0000    
               rinn:    0.0000    
               qcoe:    0.0000    
               qyuk:    0.0000    
               qwid:   0.10000E-01
                rcs:    0.0000      0.0000    
            lambdas:    1.0000      1.0000    
L=1  Nsemic=0  Cnfigmx=4
          i=1  nzeta=2  polorb=1  (4p)  (to be polarized perturbatively)
            splnorm:   0.15000    
               vcte:    0.0000    
               rinn:    0.0000    
               qcoe:    0.0000    
               qyuk:    0.0000    
               qwid:   0.10000E-01
                rcs:    0.0000      0.0000    
            lambdas:    1.0000      1.0000    
L=2  Nsemic=1  Cnfigmx=4
          i=1  nzeta=1  polorb=0  (3d)
            splnorm:   0.15000    
               vcte:    0.0000    
               rinn:    0.0000    
               qcoe:    0.0000    
               qyuk:    0.0000    
               qwid:   0.10000E-01
                rcs:    0.0000    
            lambdas:    1.0000    
          i=2  nzeta=0  polorb=0  (4d)  (perturbative polarization orbital)
-------------------------------------------------------------------------------
L=0  Nkbl=1  erefs: 0.17977+309
L=1  Nkbl=1  erefs: 0.17977+309
L=2  Nkbl=2  erefs: 0.17977+309 0.17977+309
===============================================================================
</basis_specs>

atom: Called for 32_Ge_r               (Z =  32)

read_vps: Pseudopotential generation method:
read_vps: ONCVPSP-3.Hamann's oncvpsp                        
Total valence charge:   14.00000

xc_check: Exchange-correlation functional:
xc_check: Ceperley-Alder
Got Vlocal (oncv-fit) from psml data
Choosing vlocal chloc cutoff:  3.309313
qtot up to nchloc:   14.00022150
atom: Maximum radius forchloc:    3.30931
atom: Maximum radius for r*vlocal+2*Zval:    3.30931
Reading KB projs from 32_Ge_r psml data
Using lj projectors in PSML file

PSML: Kleinman-Bylander projectors: 
   l= 0   rc=  2.642525   Ekb=  0.678733
   l= 0   rc=  2.642525   Ekb=  7.087481
j- l= 1   rc=  2.642525   Ekb=  0.494720
j+ l= 1   rc=  2.642525   Ekb=  0.498446
j- l= 1   rc=  2.642525   Ekb=  3.819518
j+ l= 1   rc=  2.642525   Ekb=  3.936674
j- l= 2   rc=  2.032418   Ekb=-17.851759
j+ l= 2   rc=  2.032418   Ekb=-17.789304
j- l= 2   rc=  2.032418   Ekb= -6.634943
j+ l= 2   rc=  2.032418   Ekb= -6.588543

PSML: Total number of  Kleinman-Bylander projectors:  34
atom: -------------------------------------------------------------------------

atom: SANKEY-TYPE ORBITALS:
atom: Selected multiple-zeta basis: split     

SPLIT: Orbitals with angular momentum L= 0

SPLIT: Basis orbitals for state 4s

SPLIT: PAO cut-off radius determined from an
SPLIT: energy shift=  0.022049 Ry

   izeta = 1
                 lambda =    1.000000
                     rc =    4.755243
                 energy =   -0.855096
                kinetic =    0.608402
    potential(screened) =   -1.463498
       potential(ionic) =  -14.804257

   izeta = 2
                 rmatch =    4.249264
              splitnorm =    0.150000
                 energy =   -0.750906
                kinetic =    0.910765
    potential(screened) =   -1.661671
       potential(ionic) =  -15.939786

SPLIT: Orbitals with angular momentum L= 1

SPLIT: Basis orbitals for state 4p

SPLIT: PAO cut-off radius determined from an
SPLIT: energy shift=  0.022049 Ry

   izeta = 1
                 lambda =    1.000000
                     rc =    6.260448
                 energy =   -0.277466
                kinetic =    0.835709
    potential(screened) =   -1.113176
       potential(ionic) =  -11.955294

   izeta = 2
                 rmatch =    5.061935
              splitnorm =    0.150000
                 energy =   -0.194715
                kinetic =    1.175021
    potential(screened) =   -1.369736
       potential(ionic) =  -13.620058

SPLIT: Orbitals with angular momentum L= 2

SPLIT: Basis orbitals for state 3d

SPLIT: PAO cut-off radius determined from an
SPLIT: energy shift=  0.022049 Ry

   izeta = 1
                 lambda =    1.000000
                     rc =    2.545262
                 energy =   -2.150007
                kinetic =   12.518663
    potential(screened) =  -14.668669
       potential(ionic) =  -35.183539

POLgen: Perturbative polarization orbital with L=  2

POLgen: Polarization orbital for state 4p

   izeta = 1
                     rc =    6.260448
                 energy =    0.412951
                kinetic =    1.268001
    potential(screened) =   -0.855051
       potential(ionic) =  -10.223538
atom: Total number of Sankey-type orbitals: 18

atm_pop: Valence configuration (for local Pseudopot. screening):
 4s( 2.00)                                                            
 4p( 2.00)                                                            
 3d(10.00) 4d( 0.00)                                                  
Vna: chval, zval:   14.00000  14.00000

Vna:  Cut-off radius for the neutral-atom potential:   6.260448

atom: _________________________________________________________________________

prinput: Basis input 
* WARNING: This information might be incomplete!!!
----------------------------------------------------------

PAO.BasisType split     

%block ChemicalSpeciesLabel
    1   32 32_Ge_r                 # Species index, atomic number, species label
%endblock ChemicalSpeciesLabel

%block PAO.Basis                 # Define Basis set
# WARNING: This information might be incomplete!!!
32_Ge_r               3                    # Species label, number of l-shells
 n=4   0   2                         # n, l, Nzeta 
   4.755      4.249   
   1.000      1.000   
 n=4   1   2 P   1                   # n, l, Nzeta, Polarization, NzetaPol
   6.260      5.062   
   1.000      1.000   
 n=3   2   1                         # n, l, Nzeta 
   2.545   
   1.000   
%endblock PAO.Basis

prinput: ----------------------------------------------------------------------

 CH_OVERLAP: Z1=   13.994060981437782       ZVAL1=   14.000000000000000     
 CH_OVERLAP: Z2=   13.994060981437782       ZVAL2=   14.000000000000000     
Dumping basis to NetCDF file 32_Ge_r.ion.nc
coor:   Atomic-coordinates input format  =     Fractional

siesta: Atomic coordinates (Bohr) and species
siesta:      0.00000   0.00000   0.00000  1        1
siesta:      2.67396   2.67396   2.67396  1        2

siesta: System type = bulk      

initatomlists: Number of atoms, orbitals, and projectors:      2    36    68

siesta: ******************** Simulation parameters ****************************
siesta:
siesta: The following are some of the parameters of the simulation.
siesta: A complete list of the parameters used, including default values,
siesta: can be found in file out.fdf
siesta:
redata: Spin configuration                          = spin-orbit+offsite
redata: Number of spin components                   = 8
redata: Time-Reversal Symmetry                      = F
redata: Spin-spiral                                 = F
############################################################
#              Spin-orbit coupling is in beta              #
#           Several options may not be compatible          #
############################################################
redata: Long output                                 =   F
redata: Number of Atomic Species                    =        1
redata: Charge density info will appear in .RHO file
redata: Write Mulliken Pop.                         = NO
redata: Matel table size (NRTAB)                    =     1024
redata: Mesh Cutoff                                 =   200.0000 Ry
redata: Net charge of the system                    =     0.0000 |e|
redata: Min. number of SCF Iter                     =        0
redata: Max. number of SCF Iter                     =       50
redata: SCF convergence failure will abort job
redata: SCF mix quantity                            = Hamiltonian
redata: Mix DM or H after convergence               =   F
redata: Recompute H after scf cycle                 =   F
redata: Mix DM in first SCF step                    =   T
redata: Write Pulay info on disk                    =   F
redata: New DM Occupancy tolerance                  = 0.000000000001
redata: No kicks to SCF
redata: DM Mixing Weight for Kicks                  =     0.5000
redata: Require Harris convergence for SCF          =   F
redata: Harris energy tolerance for SCF             =     0.000100 eV
redata: Require DM convergence for SCF              =   T
redata: DM tolerance for SCF                        =     0.000100
redata: Require EDM convergence for SCF             =   F
redata: EDM tolerance for SCF                       =     0.001000 eV
redata: Require H convergence for SCF               =   T
redata: Hamiltonian tolerance for SCF               =     0.001000 eV
redata: Require (free) Energy convergence for SCF   =   F
redata: (free) Energy tolerance for SCF             =     0.000100 eV
redata: Using Saved Data (generic)                  =   F
redata: Use continuation files for DM               =   F
redata: Neglect nonoverlap interactions             =   F
redata: Method of Calculation                       = Diagonalization
redata: Electronic Temperature                      =   290.1109 K
redata: Fix the spin of the system                  =   F
redata: Split SR and SO contributions               =   F
redata: Max. number of TDED Iter                    =        1
redata: Number of TDED substeps                     =        3
redata: Dynamics option                             = Single-point calculation
mix.SCF: Pulay mixing                            = Pulay
mix.SCF:    Variant                              = stable
mix.SCF:    History steps                        = 3
mix.SCF:    Linear mixing weight                 =     0.300000
mix.SCF:    Mixing weight                        =     0.300000
mix.SCF:    SVD condition                        = 0.1000E-07
mix.SCF: Spin-component mixing                   all
redata: ***********************************************************************

%block SCF.Mixers
  Pulay
%endblock SCF.Mixers

%block SCF.Mixer.Pulay
  # Mixing method
  method pulay
  variant stable

  # Mixing options
  weight 0.3000
  weight.linear 0.3000
  history 3
%endblock SCF.Mixer.Pulay

DM_history_depth set to one: no extrapolation allowed by default for geometry relaxation
Size of DM history Fstack: 1
Total number of electrons:    28.000000
Total ionic charge:    28.000000

* ProcessorY, Blocksize:    1  19


* Orbital distribution balance (max,min):    19    17


Time-reversal symmetry not used.

siesta: k-grid: Number of k-points =        64
siesta: k-points from cutoff
siesta: k-cutoff (effective) =     8.004 Ang
siesta: k-point supercell and displacements
siesta: k-grid:    0   4   0      0.500
siesta: k-grid:    0   0   4      0.500
siesta: k-grid:    4   0   0      0.500

diag: Algorithm                                     = D&C
diag: Parallel over k                               =   F
diag: Use parallel 2D distribution                  =   F
diag: Parallel block-size                           = 19
diag: Parallel distribution                         =     1 x     2
diag: Used triangular part                          = Lower
diag: Absolute tolerance                            =  0.100E-15
diag: Orthogonalization factor                      =  0.100E-05
diag: Memory factor                                 =  1.0000
Using LatticeConstant from fdf file for BandLinesScale:   10.695854 Bohr
Beware any cell changes by the end of the run
Using LatticeConstant from fdf file for BandLinesScale:   10.695854 Bohr
Beware any cell changes by the end of the run

superc: Internal auxiliary supercell:     5 x     5 x     5  =     125
superc: Number of atoms, orbitals, and projectors:    250   4500   8500


ts: **************************************************************
ts: Save H and S matrices                           =    F
ts: Save DM and EDM matrices                        =    F
ts: Fix Hartree potential                           =    F
ts: Only save the overlap matrix S                  =    F
ts: **************************************************************

************************ Begin: TS CHECKS AND WARNINGS ************************
************************ End: TS CHECKS AND WARNINGS **************************


                     ====================================
                        Single-point calculation
                     ====================================

superc: Internal auxiliary supercell:     5 x     5 x     5  =     125
superc: Number of atoms, orbitals, and projectors:    250   4500   8500

outcell: Unit cell vectors (Ang):
        2.830000    2.830000    0.000000
        0.000000    2.830000    2.830000
        2.830000    0.000000    2.830000

outcell: Cell vector modules (Ang)   :    4.002224    4.002224    4.002224
outcell: Cell angles (23,13,12) (deg):     60.0000     60.0000     60.0000
outcell: Cell volume (Ang**3)        :     45.3304
<dSpData1D:S at geom step 0
  <sparsity:sparsity for geom step 0
    nrows_g=36 nrows=19 sparsity=20.0586 nnzs=25996, refcount: 8>
  <dData1D:(new from dSpData1D) n=25996, refcount: 1>
refcount: 1>
new_DM -- step:     1
Initializing Density Matrix...
DM filled with atomic data:
<dSpData2D:DM initialized from atoms
  <sparsity:sparsity for geom step 0
    nrows_g=36 nrows=19 sparsity=20.0586 nnzs=25996, refcount: 9>
  <dData2D:DM n=25996 m=8, refcount: 1>
refcount: 1>
     spin moment: S , {S} =    4.00000   0.00000   0.00000   4.00000
New grid distribution:   1
           1       1:   15    1:   15    1:    8
           2       1:   15    1:   15    9:   15

InitMesh: MESH =    30 x    30 x    30 =       27000
InitMesh: (bp) =    15 x    15 x    15 =        3375
InitMesh: Mesh cutoff (required, used) =   200.000   232.934 Ry
ExtMesh (bp) on 0 =    79 x    79 x    72 =      449352
New grid distribution:   2
           1       1:   15    1:   15    1:    8
           2       1:   15    1:   15    9:   15
New grid distribution:   3
           1       1:   15    1:   15    1:    8
           2       1:   15    1:   15    9:   15
Setting up quadratic distribution...
ExtMesh (bp) on 0 =    79 x    79 x    72 =      449352
PhiOnMesh: Number of (b)points on node 0 =                 1800
PhiOnMesh: nlist on node 0 =               138314

stepf: Fermi-Dirac step function

siesta: Program's energy decomposition (eV):
siesta: Ebs     =      -665.425504
siesta: Eions   =      4622.437283
siesta: Ena     =        74.730997
siesta: Ekin    =      3358.684804
siesta: Enl(+so)     -2559.378565
siesta: Eso(nil)         0.000000
siesta: Eldau   =         0.000000
siesta: DEna    =        15.876233
siesta: DUscf   =         1.449604
siesta: DUext   =         0.000000
siesta: Exc     =      -512.272242
siesta: eta*DQ  =         0.000000
siesta: Emadel  =         0.000000
siesta: Emeta   =         0.000000
siesta: Emolmec =         0.000000
siesta: Ekinion =         0.000000
siesta: Eharris =     -4245.612889
siesta: Etot    =     -4243.346452
siesta: FreeEng =     -4243.349369

        iscf     Eharris(eV)        E_KS(eV)     FreeEng(eV)     dDmax    Ef(eV) dHmax(eV)
   scf:    1    -4245.612889    -4243.346452    -4243.349369  0.814434 -3.080212  3.843105
     spin moment: S , {S} =    0.20289  -0.00024  -0.00024   0.20289
timer: Routine,Calls,Time,% = IterSCF        1       1.301  25.93
   scf:    2    -4243.864985    -4243.613157    -4243.614908  0.024718 -3.013103  2.238290
     spin moment: S , {S} =    0.11422   0.00004   0.00004   0.11422
   scf:    3    -4243.871312    -4243.752571    -4243.753125  0.033434 -3.494704  0.213448
     spin moment: S , {S} =    0.00706   0.00075   0.00075   0.00698
   scf:    4    -4243.758524    -4243.755245    -4243.755256  0.003046 -3.490310  0.126148
     spin moment: S , {S} =    0.00003   0.00000   0.00000   0.00003
   scf:    5    -4243.755835    -4243.755562    -4243.755573  0.001572 -3.471704  0.011561
     spin moment: S , {S} =    0.00001   0.00000   0.00000   0.00001
   scf:    6    -4243.755573    -4243.755568    -4243.755579  0.000079 -3.471744  0.004979
     spin moment: S , {S} =    0.00000   0.00000   0.00000   0.00000
   scf:    7    -4243.755572    -4243.755572    -4243.755583  0.000086 -3.473261  0.001865
     spin moment: S , {S} =    0.00000  -0.00000  -0.00000  -0.00000
   scf:    8    -4243.755572    -4243.755573    -4243.755583  0.000014 -3.473565  0.001373
     spin moment: S , {S} =    0.00000  -0.00000  -0.00000  -0.00000
   scf:    9    -4243.755572    -4243.755573    -4243.755583  0.000017 -3.473835  0.000552
     spin moment: S , {S} =    0.00000  -0.00000  -0.00000  -0.00000

SCF Convergence by DM+H criterion
max |DM_out - DM_in|         :     0.0000170391
max |H_out - H_in|      (eV) :     0.0005520138
SCF cycle converged after 9 iterations

Using DM_out to compute the final energy and forces

siesta: E_KS(eV) =            -4243.7556

siesta: E_KS - E_eggbox =     -4243.7556
     spin moment: S , {S} =    0.00000  -0.00000  -0.00000  -0.00000

siesta: Atomic forces (eV/Ang):
----------------------------------------
   Tot    0.000610    0.000610    0.000610
----------------------------------------
   Max    0.020391
   Res    0.020088    sqrt( Sum f_i^2 / 3N )
----------------------------------------
   Max    0.020391    constrained

Stress-tensor-Voigt (kbar):       16.24       16.24       16.24       10.46       10.46       10.46
(Free)E + p*V (eV/cell)    -4244.2151
Target enthalpy (eV/cell)    -4243.7556
Computing bands...

siesta: Program's energy decomposition (eV):
siesta: Ebs     =      -644.537712
siesta: Eions   =      4622.437283
siesta: Ena     =        74.730997
siesta: Ekin    =      3388.432232
siesta: Enl(+so)     -2581.907142
siesta: Eso(nil)         0.000000
siesta: Eldau   =         0.000000
siesta: DEna    =        11.832708
siesta: DUscf   =         0.916274
siesta: DUext   =         0.000000
siesta: Exc     =      -515.323359
siesta: eta*DQ  =         0.000000
siesta: Emadel  =         0.000000
siesta: Emeta   =         0.000000
siesta: Emolmec =         0.000000
siesta: Ekinion =         0.000000
siesta: Eharris =     -4243.755572
siesta: Etot    =     -4243.755573
siesta: FreeEng =     -4243.755583

siesta: Final energy (eV):
siesta:  Band Struct. =    -644.537712
siesta:       Kinetic =    3388.432232
siesta:       Hartree =    1435.499188
siesta:       Eldau   =       0.000000
siesta:      Eso(nil) =       0.000000
siesta:    Ext. field =       0.000000
siesta:   Exch.-corr. =    -515.323359
siesta:  Ion-electron =   -6227.269841
siesta:       Ion-ion =   -2325.093793
siesta:       Ekinion =       0.000000
siesta:         Total =   -4243.755573
siesta:         Fermi =      -3.473835

siesta: Stress tensor (static) (eV/Ang**3):
siesta:     0.010137    0.006526    0.006526
siesta:     0.006526    0.010137    0.006526
siesta:     0.006526    0.006526    0.010137

siesta: Cell volume =         45.330374 Ang**3

siesta: Pressure (static):
siesta:                Solid            Molecule  Units
siesta:          -0.00011040         -0.00011723  Ry/Bohr**3
siesta:          -0.01013679         -0.01076377  eV/Ang**3
siesta:         -16.24110296        -17.24564969  kBar
(Free)E+ p_basis*V_orbitals  =       -4242.483035
(Free)Eharris+ p_basis*V_orbitals  =       -4242.483034
     spin moment: S , {S} =    0.00000  -0.00000  -0.00000  -0.00000

>> End of run:  26-OCT-2019  22:24:54
Job completed
