Siesta Version  : siesta-4.1-1033
Architecture    : x86_64-linux-n-62-18-18
Compiler version: GNU Fortran (GCC) 7.3.0
Compiler flags  : mpifort -m64 -fPIC -O3 -march=native -ftree-vectorize -fexpensive-optimizatioons -funroll-loops -fprefetch-loop-arrays -fno-second-underscore  -flto
PP flags        : -I/zdata/groups/common/nicpa/2018-feb/generic/build-tools/1.0/include -I/zdatta/groups/common/nicpa/2018-feb/generic/gcc/7.3.0/include -I/zdata/groups/common/nicpa/2018-feb/generic/gcc/7.3.0/include -I/zdata/groups/common/nicpa/2018-feb/XeonE5-2665/zlib/1.2.11/gnu-7.3.0/include -I/zdata/groups/common/nicpa/2018-feb/generic/numactl/2.0.11/include -I/zdata/groups/common/nicpa/2018-feb/XeonE5-2665/libxml2/2.9.7/gnu-7.3.0/include -I/zdata/groups/common/nicpa/2018-feb/XeonE5-2665/hwloc/1.11.9/gnu-7.3.0/include -I/zdata/groups/common/nicpa/2018-feb/XeonE5-2665/openmpi/3.0.0/gnu-7.3.0/include -I/zdata/groups/common/nicpa/2018-feb/XeonE5-2665/szip/2.1.1/gnu-7.3.0/include -I/zdata/groups/common/nicpa/2018-feb/XeonE5-2665/hdf5/1.8.18/gnu-7.3.0/include -I/zdata/groups/common/nicpa/2018-feb/XeonE5-2665/pnetcdf/1.8.1/gnu-7.3.0/include -I/zdata/groups/common/nicpa/2018-feb/XeonE5-2665/netcdf/4.6.0/gnu-7.3.0/include -I/zdata/groups/common/nicpa/2018-feb/XeonE5-2665/flook/0.7.0/gnu-7.3.0/include -I/zdata/groups/common/nicpa/2018-feb/XeonE5-2665/parmetis/4.0.3/gnu-7.3.0/include -I/zdata/groups/common/nicpa/2018-feb/XeonE5-2665/scalapack/204/gnu-7.3.0/include -I/zdata/groups/common/nicpa/2018-feb/XeonE5-2665/openblas/0.2.20/gnu-7.3.0/include -I/zdata/groups/common/nicpa/2018-feb/XeonE5-2665/scotch/6.0.4/gnu-7.3.0/include -I/zdata/groups/common/nicpa/2018-feb/XeonE5-2665/mumps/5.1.2/gnu-7.3.0/include -I/zdata/groups/common/nicpa/2018-feb/XeonE5-2665/fftw/3.3.7/gnu-7.3.0/include -I/zdata/groups/common/nicpa/2018-feb/XeonE5-2665/elpa/2017.05.003/gnu-7.3.0/include/elpa -DSIESTA__ELPA -DMPI -D1 -DFC_HAVE_ABORT -DCDF -DCDF4 -DSIESTA__FLOOK  -DNCDF -DNCDF_4 -DNCDF_PARALLEL -DSIESTA__METIS -DSIESTA__MUMPS -DTS_NOCHECKS -DSIESTA__MRRR
Libraries       : libncdf.a libfdict.a -lnetcdff -lnetcdf -lpnetcdf -lhdf5_hl -lhdf5 -lz  -lzmuumps -lmumps_common -lesmumps -lscotch -lscotcherr -lpord -lparmetis -lmetis -lelpa -lscalapack -lopenblas  -L/zdata/groups/common/nicpa/2018-feb/XeonE5-2665/flook/0.7.0/gnu-7.3.0/lib -Wl,-rpath=/zdata/groups/common/nicpa/2018-feb/XeonE5-2665/flook/0.7.0/gnu-7.3.0/lib -lflookall -ldl  -flto -fuse-linker-plugin  -lmetis
PARALLEL version
NetCDF support
NetCDF-4 support
NetCDF-4 MPI-IO support
METIS ordering support

* Running on 8 nodes in parallel
>> Start of run:   5-NOV-2018   9:57:44

                           ***********************       
                           *  WELCOME TO SIESTA  *       
                           ***********************       

reinit: Reading from ../ge_fatbands_so.fdf

reinit: -----------------------------------------------------------------------
reinit: System Name: bulk Ge with SOC with various types of WFS output
reinit: -----------------------------------------------------------------------
reinit: System Label: ge_fatbands_so
reinit: -----------------------------------------------------------------------

initatom: Reading input for the pseudopotentials and atomic orbitals ----------
Species number:   1 Atomic number:   32 Label: Ge

Ground state valence configuration:   4s02  4p02
Reading pseudopotential information in formatted form from Ge.psf

Pseudopotential generated from a relativistic atomic calculation

Valence configuration for pseudopotential generation:
4s( 2.00) rc: 2.25
4p( 2.00) rc: 2.99
4d( 0.00) rc: 2.48
4f( 0.00) rc: 2.48
For Ge, standard SIESTA heuristics set lmxkb to 3
 (one more than the basis l, including polarization orbitals).
Use PS.lmax or PS.KBprojectors blocks to override.

<basis_specs>
===============================================================================
Ge                   Z=  32    Mass=  72.610        Charge= 0.17977+309
Lmxo=1 Lmxkb= 3    BasisType=split      Semic=F
L=0  Nsemic=0  Cnfigmx=4
          n=1  nzeta=2  polorb=0
            splnorm:   0.15000    
               vcte:    0.0000    
               rinn:    0.0000    
               qcoe:    0.0000    
               qyuk:    0.0000    
               qwid:   0.10000E-01
                rcs:    0.0000      0.0000    
            lambdas:    1.0000      1.0000    
L=1  Nsemic=0  Cnfigmx=4
          n=1  nzeta=2  polorb=1
            splnorm:   0.15000    
               vcte:    0.0000    
               rinn:    0.0000    
               qcoe:    0.0000    
               qyuk:    0.0000    
               qwid:   0.10000E-01
                rcs:    0.0000      0.0000    
            lambdas:    1.0000      1.0000    
-------------------------------------------------------------------------------
L=0  Nkbl=1  erefs: 0.17977+309
L=1  Nkbl=1  erefs: 0.17977+309
L=2  Nkbl=1  erefs: 0.17977+309
L=3  Nkbl=1  erefs: 0.17977+309
===============================================================================
</basis_specs>

atom: Called for Ge                    (Z =  32)

read_vps: Pseudopotential generation method:
read_vps: ATM3      Troullier-Martins                       
Total valence charge:    4.00000

read_vps: Pseudopotential includes a core correction:
read_vps: Pseudo-core for xc-correction

xc_check: Exchange-correlation functional:
xc_check: Ceperley-Alder
V l=0 = -2*Zval/r beyond r=  3.2682
V l=1 = -2*Zval/r beyond r=  3.2682
V l=2 = -2*Zval/r beyond r=  3.2682
V l=3 = -2*Zval/r beyond r=  3.2682
All V_l potentials equal beyond r=  2.9204
This should be close to max(r_c) in ps generation
All pots = -2*Zval/r beyond r=  3.2682

VLOCAL1: 99.0% of the norm of Vloc inside      5.089 Ry
VLOCAL1: 99.9% of the norm of Vloc inside     11.599 Ry
atom: Maximum radius for 4*pi*r*r*local-pseudopot. charge    3.47899
atom: Maximum radius for r*vlocal+2*Zval:    3.03205
GHOST: No ghost state for L =  0
GHOST: No ghost state for L =  1
GHOST: No ghost state for L =  2
GHOST: No ghost state for L =  3

KBgen: Kleinman-Bylander projectors: 
   l= 0   rc=  3.435772   el= -0.876405   Ekb=  4.825460   kbcos=  0.226549
   l= 1   rc=  3.611931   el= -0.297940   Ekb=  1.221699   kbcos=  0.220212
   l= 2   rc=  3.749954   el=  0.002321   Ekb=  2.241269   kbcos=  0.038930
   l= 3   rc=  3.893250   el=  0.003413   Ekb= -0.808310   kbcos= -0.016117

KBgen: Total number of  Kleinman-Bylander projectors:   16
atom: -------------------------------------------------------------------------

atom: SANKEY-TYPE ORBITALS:
atom: Selected multiple-zeta basis: split     

SPLIT: Orbitals with angular momentum L= 0

SPLIT: Basis orbitals for state 4s

SPLIT: PAO cut-off radius determined from an
SPLIT: energy shift=  0.022049 Ry

   izeta = 1
                 lambda =    1.000000
                     rc =    4.755243
                 energy =   -0.853473
                kinetic =    0.593896
    potential(screened) =   -1.447369
       potential(ionic) =   -3.799061

   izeta = 2
                 rmatch =    4.249264
              splitnorm =    0.150000
                 energy =   -0.753565
                kinetic =    0.878690
    potential(screened) =   -1.632256
       potential(ionic) =   -4.051629

SPLIT: Orbitals with angular momentum L= 1

SPLIT: Basis orbitals for state 4p

SPLIT: PAO cut-off radius determined from an
SPLIT: energy shift=  0.022049 Ry

   izeta = 1
                 lambda =    1.000000
                     rc =    6.260448
                 energy =   -0.277657
                kinetic =    0.837304
    potential(screened) =   -1.114960
       potential(ionic) =   -3.275139

   izeta = 2
                 rmatch =    5.061935
              splitnorm =    0.150000
                 energy =   -0.195141
                kinetic =    1.177536
    potential(screened) =   -1.372677
       potential(ionic) =   -3.676680

POLgen: Perturbative polarization orbital with L=  2

POLgen: Polarization orbital for state 4p

   izeta = 1
                     rc =    6.260448
                 energy =    0.414818
                kinetic =    1.262038
    potential(screened) =   -0.847220
       potential(ionic) =   -2.864715
atom: Total number of Sankey-type orbitals: 13

atm_pop: Valence configuration (for local Pseudopot. screening):
 4s( 2.00)                                                            
 4p( 2.00)                                                            
Vna: chval, zval:    4.00000   4.00000

Vna:  Cut-off radius for the neutral-atom potential:   6.260448
comcore: Pseudo-core radius Rcore=  4.467133

atom: _________________________________________________________________________

prinput: Basis input ----------------------------------------------------------

PAO.BasisType split     

%block ChemicalSpeciesLabel
    1   32 Ge                      # Species index, atomic number, species label
%endblock ChemicalSpeciesLabel

%block PAO.Basis                 # Define Basis set
Ge                    2                    # Species label, number of l-shells
 n=4   0   2                         # n, l, Nzeta 
   4.755      4.249   
   1.000      1.000   
 n=4   1   2 P   1                   # n, l, Nzeta, Polarization, NzetaPol
   6.260      5.062   
   1.000      1.000   
%endblock PAO.Basis

prinput: ----------------------------------------------------------------------

Dumping basis to NetCDF file Ge.ion.nc
coor:   Atomic-coordinates input format  =     Fractional

siesta: Atomic coordinates (Bohr) and species
siesta:      0.00000   0.00000   0.00000  1        1
siesta:      2.66924   2.66924   2.66924  1        2

siesta: System type = bulk      

initatomlists: Number of atoms, orbitals, and projectors:      2    26    32

siesta: ******************** Simulation parameters ****************************
siesta:
siesta: The following are some of the parameters of the simulation.
siesta: A complete list of the parameters used, including default values,
siesta: can be found in file out.fdf
siesta:
redata: Spin configuration                          = spin-orbit
redata: Number of spin components                   = 8
redata: Time-Reversal Symmetry                      = F
redata: Spin-spiral                                 = F
############################################################
#              Spin-orbit coupling is in beta              #
#           Several options may not be compatible          #
############################################################
redata: Long output                                 =   F
redata: Number of Atomic Species                    =        1
redata: Charge density info will appear in .RHO file
redata: Write Mulliken Pop.                         = NO
redata: Matel table size (NRTAB)                    =     1024
redata: Mesh Cutoff                                 =    90.0000 Ry
redata: Net charge of the system                    =     0.0000 |e|
redata: Min. number of SCF Iter                     =        0
redata: Max. number of SCF Iter                     =     1000
redata: SCF convergence failure will abort job
redata: SCF mix quantity                            = Hamiltonian
redata: Mix DM or H after convergence               =   F
redata: Recompute H after scf cycle                 =   F
redata: Mix DM in first SCF step                    =   T
redata: Write Pulay info on disk                    =   F
redata: New DM Mixing Weight                        =     0.3000
redata: New DM Occupancy tolerance                  = 0.000000000001
redata: No kicks to SCF
redata: DM Mixing Weight for Kicks                  =     0.5000
redata: Require Harris convergence for SCF          =   F
redata: Harris energy tolerance for SCF             =     0.000100 eV
redata: Require DM convergence for SCF              =   T
redata: DM tolerance for SCF                        =     0.000100
redata: Require EDM convergence for SCF             =   F
redata: EDM tolerance for SCF                       =     0.001000 eV
redata: Require H convergence for SCF               =   T
redata: Hamiltonian tolerance for SCF               =     0.001000 eV
redata: Require (free) Energy convergence for SCF   =   F
redata: (free) Energy tolerance for SCF             =     0.000100 eV
redata: Using Saved Data (generic)                  =   F
redata: Use continuation files for DM               =   F
redata: Neglect nonoverlap interactions             =   F
redata: Method of Calculation                       = Diagonalization
redata: Electronic Temperature                      =   290.1109 K
redata: Fix the spin of the system                  =   F
redata: Dynamics option                             = Single-point calculation
mix.SCF: Pulay mixing                            = Pulay
mix.SCF:    Variant                              = stable
mix.SCF:    History steps                        = 3
mix.SCF:    Linear mixing weight                 =     0.300000
mix.SCF:    Mixing weight                        =     0.300000
mix.SCF:    SVD condition                        = 0.1000E-07
mix.SCF: Spin-component mixing                   all
redata: Save all siesta data in one NC              =   F
redata: ***********************************************************************

%block SCF.Mixers
  Pulay
%endblock SCF.Mixers

%block SCF.Mixer.Pulay
  # Mixing method
  method pulay
  variant stable

  # Mixing options
  weight 0.3000
  weight.linear 0.3000
  history 3
%endblock SCF.Mixer.Pulay

DM_history_depth set to one: no extrapolation allowed by default for geometry relaxation
Size of DM history Fstack: 1
Total number of electrons:     8.000000
Total ionic charge:     8.000000

* ProcessorY, Blocksize:    2   3


* Orbital distribution balance (max,min):     5     3


Time-reversal symmetry not used.

siesta: k-grid: Number of k-points =    64
siesta: k-grid: Cutoff (effective) =     7.990 Ang
siesta: k-grid: Supercell and displacements
siesta: k-grid:    0   4   0      0.500
siesta: k-grid:    0   0   4      0.500
siesta: k-grid:    4   0   0      0.500

diag: Algorithm                                     = D&C
diag: Parallel over k                               =   F
diag: Use parallel 2D distribution                  =   T
diag: Parallel block-size                           = 3
diag: Parallel distribution                         =     2 x     4
diag: Used triangular part                          = Lower
diag: Absolute tolerance                            =  0.100E-15
diag: Orthogonalization factor                      =  0.100E-05
diag: Memory factor                                 =  1.0000
Using LatticeConstant from fdf file for BandLinesScale:   10.676957 Bohr
Beware any cell changes by the end of the run
Using LatticeConstant from fdf file for BandLinesScale:   10.676957 Bohr
Beware any cell changes by the end of the run
Using LatticeConstant from fdf file for WaveFuncKPointsScale:   10.676957 Bohr
Beware any cell changes by the end of the run

superc: Internal auxiliary supercell:     5 x     5 x     5  =     125
superc: Number of atoms, orbitals, and projectors:    250   3250   4000


ts: **************************************************************
ts: Save H and S matrices                           =    F
ts: Save DM and EDM matrices                        =    F
ts: Fix Hartree potential                           =    F
ts: Only save the overlap matrix S                  =    F
ts: **************************************************************

************************ Begin: TS CHECKS AND WARNINGS ************************
************************ End: TS CHECKS AND WARNINGS **************************


                     ====================================
                        Single-point calculation
                     ====================================

superc: Internal auxiliary supercell:     5 x     5 x     5  =     125
superc: Number of atoms, orbitals, and projectors:    250   3250   4000

outcell: Unit cell vectors (Ang):
        2.825000    2.825000    0.000000
        0.000000    2.825000    2.825000
        2.825000    0.000000    2.825000

outcell: Cell vector modules (Ang)   :    3.995153    3.995153    3.995153
outcell: Cell angles (23,13,12) (deg):     60.0000     60.0000     60.0000
outcell: Cell volume (Ang**3)        :     45.0905
<dSpData1D:S at geom step 0
  <sparsity:sparsity for geom step 0
    nrows_g=26 nrows=5 sparsity=12.7618 nnzs=8627, refcount: 8>
  <dData1D:(new from dSpData1D) n=8627, refcount: 1>
refcount: 1>
new_DM -- step:     1
Initializing Density Matrix...
DM filled with atomic data:
<dSpData2D:DM initialized from atoms
  <sparsity:sparsity for geom step 0
    nrows_g=26 nrows=5 sparsity=12.7618 nnzs=8627, refcount: 9>
  <dData2D:DM n=8627 m=8, refcount: 1>
refcount: 1>
     spin moment: S , {S} =    4.00000   0.00000   0.00000   4.00000
No. of atoms with KB's overlaping orbs in proc 0. Max # of overlaps:      38     353

Initializing spin-orbit part of the Hamiltonian
  Adding spin-orbit effects for Ge


New grid distribution:   1
           1       1:   10    1:    5    1:    3
           2       1:   10    1:    5    4:    6
           3       1:   10    1:    5    7:    8
           4       1:   10    1:    5    9:   10
           5       1:   10    6:   10    1:    3
           6       1:   10    6:   10    4:    6
           7       1:   10    6:   10    7:    8
           8       1:   10    6:   10    9:   10

InitMesh: MESH =    20 x    20 x    20 =        8000
InitMesh: (bp) =    10 x    10 x    10 =        1000
InitMesh: Mesh cutoff (required, used) =    90.000   103.893 Ry
ExtMesh (bp) on 0 =    54 x    49 x    47 =      124362
New grid distribution:   2
           1       6:   10    1:    5    1:    5
           2       1:    5    6:   10    1:    5
           3       1:    5    1:    5    6:   10
           4       6:   10    1:    5    6:   10
           5       6:   10    6:   10    1:    5
           6       1:    5    1:    5    1:    5
           7       1:    6    6:   10    6:   10
           8       7:   10    6:   10    6:   10
New grid distribution:   3
           1       1:    5    6:   10    6:   10
           2       6:   10    1:    5    1:    5
           3       6:   10    1:    5    6:   10
           4       6:   10    6:   10    1:    5
           5       1:    5    1:    5    6:   10
           6       1:    5    1:    5    1:    5
           7       6:   10    6:   10    6:   10
           8       1:    5    6:   10    1:    5
Setting up quadratic distribution...
ExtMesh (bp) on 0 =    49 x    49 x    49 =      117649
PhiOnMesh: Number of (b)points on node 0 =                  125
PhiOnMesh: nlist on node 0 =                 9622

stepf: Fermi-Dirac step function

siesta: Program's energy decomposition (eV):
siesta: Ebs     =       -74.554686
siesta: Eions   =       266.528802
siesta: Ena     =        29.465510
siesta: Ekin    =        76.216618
siesta: Enl     =        15.889772
siesta: Eso     =        -0.031434
siesta: Eldau   =         0.000000
siesta: DEna    =         2.782739
siesta: DUscf   =         0.178914
siesta: DUext   =         0.000000
siesta: Enegf   =         0.000000
siesta: Exc     =      -155.411443
siesta: eta*DQ  =         0.000000
siesta: Emadel  =         0.000000
siesta: Emeta   =         0.000000
siesta: Emolmec =         0.000000
siesta: Ekinion =         0.000000
siesta: Eharris =      -298.509399
siesta: Etot    =      -297.438127
siesta: FreeEng =      -297.439904

        iscf     Eharris(eV)        E_KS(eV)     FreeEng(eV)     dDmax    Ef(eV) dHmax(eV)
   scf:    1     -298.509399     -297.438127     -297.439904  0.844116 -3.423513  1.068133
     spin moment: S , {S} =    0.12967  -0.00011  -0.00011   0.12967
timer: Routine,Calls,Time,% = IterSCF        1       1.357  51.71
   scf:    2     -297.489589     -297.463805     -297.465498  0.004245 -3.260906  0.752937
     spin moment: S , {S} =    0.09223   0.00071   0.00071   0.09223
   scf:    3     -297.537907     -297.500516     -297.500517  0.012745 -3.616583  0.024622
     spin moment: S , {S} =    0.00001   0.00000   0.00000   0.00001
   scf:    4     -297.500671     -297.500597     -297.500598  0.000396 -3.612764  0.010310
     spin moment: S , {S} =    0.00000   0.00000   0.00000   0.00000
   scf:    5     -297.500637     -297.500618     -297.500619  0.000278 -3.609061  0.001697
     spin moment: S , {S} =    0.00000   0.00000   0.00000   0.00000
   scf:    6     -297.500620     -297.500619     -297.500620  0.000016 -3.608479  0.001106
     spin moment: S , {S} =    0.00000   0.00000   0.00000   0.00000
   scf:    7     -297.500620     -297.500619     -297.500621  0.000021 -3.607949  0.000329
     spin moment: S , {S} =    0.00000   0.00000   0.00000   0.00000

SCF Convergence by DM+H criterion
max |DM_out - DM_in|         :     0.0000210200
max |H_out - H_in|      (eV) :     0.0003293293
SCF cycle converged after 7 iterations

Using DM_out to compute the final energy and forces
No. of atoms with KB's overlaping orbs in proc 0. Max # of overlaps:      38     353

siesta: E_KS(eV) =             -297.5006

siesta: E_KS - E_eggbox =      -297.5006
     spin moment: S , {S} =    0.00000   0.00000   0.00000   0.00000

siesta: Atomic forces (eV/Ang):
----------------------------------------
   Tot   -0.000000    0.000000    0.000000
----------------------------------------
   Max    0.015049
   Res    0.015048    sqrt( Sum f_i^2 / 3N )
----------------------------------------
   Max    0.015049    constrained

Stress-tensor-Voigt (kbar):       -7.71       -7.71       -7.71       10.65       10.65       10.65
(Free)E + p*V (eV/cell)     -297.2837
Target enthalpy (eV/cell)     -297.5006
Writing WFSX for selected k-points in ge_fatbands_so.selected.WFSX

writewave: WARNING: wavefunctions printed is only 


           implemented for nspin = 1 or 2

Writing WFSX for COOP/COHP in ge_fatbands_so.fullBZ.WFSX

writewave: WARNING: wavefunctions printed is only 


           implemented for nspin = 1 or 2

Computing bands...
Writing WFSX for bands in ge_fatbands_so.bands.WFSX
 No WFS for spin-orbit, yet...

siesta: Program's energy decomposition (eV):
siesta: Ebs     =       -74.448185
siesta: Eions   =       266.528802
siesta: Ena     =        29.465510
siesta: Ekin    =        76.369736
siesta: Enl     =        15.884664
siesta: Eso     =        -0.031042
siesta: Eldau   =         0.000000
siesta: DEna    =         2.652729
siesta: DUscf   =         0.185327
siesta: DUext   =         0.000000
siesta: Enegf   =         0.000000
siesta: Exc     =      -155.498741
siesta: eta*DQ  =         0.000000
siesta: Emadel  =         0.000000
siesta: Emeta   =         0.000000
siesta: Emolmec =         0.000000
siesta: Ekinion =         0.000000
siesta: Eharris =      -297.500620
siesta: Etot    =      -297.500619
siesta: FreeEng =      -297.500621

siesta: Final energy (eV):
siesta:  Band Struct. =     -74.448185
siesta:       Kinetic =      76.369736
siesta:       Hartree =      15.907495
siesta:       Eldau   =       0.000000
siesta:       Eso     =      -0.031042
siesta:    Ext. field =       0.000000
siesta:       Enegf   =       0.000000
siesta:   Exch.-corr. =    -155.498741
siesta:  Ion-electron =     -88.365511
siesta:       Ion-ion =    -145.882556
siesta:       Ekinion =       0.000000
siesta:         Total =    -297.500619
siesta:         Fermi =      -3.607949

siesta: Stress tensor (static) (eV/Ang**3):
siesta:    -0.004811    0.006645    0.006645
siesta:     0.006645   -0.004811    0.006645
siesta:     0.006645    0.006645   -0.004811

siesta: Cell volume =         45.090531 Ang**3

siesta: Pressure (static):
siesta:                Solid            Molecule  Units
siesta:           0.00005240          0.00004726  Ry/Bohr**3
siesta:           0.00481107          0.00433967  eV/Ang**3
siesta:           7.70826618          6.95298817  kBar
(Free)E+ p_basis*V_orbitals  =        -296.253625
(Free)Eharris+ p_basis*V_orbitals  =        -296.253626
     spin moment: S , {S} =    0.00000   0.00000   0.00000   0.00000
>> End of run:   5-NOV-2018   9:57:55
Job completed
