Siesta Version:  siesta@uam.es--2006/siesta-devel--reference--2.1--patch-58
Architecture  : intel9-cmkl8-mpi
Compiler flags: mpiifort -O1 -ftrapuv -CB
PARALLEL version

* Running on    2 nodes in parallel
>> Start of run:   4-JUN-2007  13:06:22

                           ***********************       
                           *  WELCOME TO SIESTA  *       
                           ***********************       

reinit: Reading from standard input
************************** Dump of input data file ****************************
SystemLabel graphite_c6_full
NumberOfAtoms        4
NumberOfSpecies      1
%block ChemicalSpeciesLabel
    1   6 C.pbe
%endblock ChemicalSpeciesLabel
%block PS.lmax
   C.pbe 2
%endblock PS.lmax
LatticeConstant 1.0 Ang
%block LatticeParameters
    2.4610    2.4610    6.7080   90.0000   90.0000  120.0000
%endblock LatticeParameters
AtomicCoordinatesFormat Fractional
%block AtomicCoordinatesAndAtomicSpecies
    0.000000000    0.000000000    0.000000000     1
    0.000000000    0.000000000    0.500000000     1
    0.333333333    0.666666667    0.000000000     1
    0.666666667    0.333333333    0.500000000     1
%endblock AtomicCoordinatesAndAtomicSpecies
MM.Cutoff 20.0 Ang
%block MM.Potentials
 1  1 C6 15.19 1.56
%endblock MM.Potentials
XC.functional GGA
XC.authors PBE
PAO.EnergyShift  0.0025 Ry
PAO.SplitNorm    0.30
PAO.SplitNormH   0.50
PAO.SoftDefault true
PAO.SoftPotential 50.0 Ry
PAO.SoftInnerRadius 0.80
kgrid_cutoff 16.0 Ang
PAO.BasisSize TZ2P
ElectronicTemperature 0 K
%block GridCellSampling
 0.5    0.5    0.5
%endblock GridCellSampling
DM.MixingWeight      0.30
DM.NumberPulay       5
MD.TypeofRun CG
MD.VariableCell true
MD.NumCGsteps 100
MD.MaxForceTol 0.01 eV/Ang
MD.MaxStressTol 200 bar
LongOutput true
UseSaveData true
************************** End of input data file *****************************

reinit: -----------------------------------------------------------------------
reinit: System Name:                                                            
reinit: -----------------------------------------------------------------------
reinit: System Label: graphite_c6_full                                            
reinit: -----------------------------------------------------------------------
Reading two-body potentials

initatom: Reading input for the pseudopotentials and atomic orbitals ----------
 Species number:            1  Label: C.pbe Atomic number:           6
Ground state valence configuration:   2s02  2p02
Reading pseudopotential information in formatted form from C.pbe.psf

Valence configuration for pseudopotential generation:
2s( 2.00) rc: 1.49
2p( 2.00) rc: 1.52
3d( 0.00) rc: 1.52
Dumping pseudopotential information in formatted form in C.psdump
relmxkb: Read Max KB Ang. Momentum=    2 for species C.pbe

<basis_specs>
===============================================================================
C.pbe                Z=   6    Mass=  12.010        Charge= 0.17977+309
Lmxo=1 Lmxkb=2     BasisType=split      Semic=F
L=0  Nsemic=0  Cnfigmx=2
          n=1  nzeta=3  polorb=0
            splnorm:   0.30000    
               vcte:    50.000    
               rinn:  -0.80000    
                rcs:    0.0000      0.0000      0.0000    
            lambdas:    1.0000      1.0000      1.0000    
L=1  Nsemic=0  Cnfigmx=2
          n=1  nzeta=3  polorb=2
            splnorm:   0.30000    
               vcte:    50.000    
               rinn:  -0.80000    
                rcs:    0.0000      0.0000      0.0000    
            lambdas:    1.0000      1.0000      1.0000    
-------------------------------------------------------------------------------
L=0  Nkbl=1  erefs: 0.17977+309
L=1  Nkbl=1  erefs: 0.17977+309
L=2  Nkbl=1  erefs: 0.17977+309
===============================================================================
</basis_specs>

atom: Called for C.pbe                 (Z =   6)

read_vps: Pseudopotential generation method:
read_vps: ATM 3.2.2 Troullier-Martins                       
Total valence charge:    4.00000

read_vps: Pseudopotential includes a core correction:
read_vps: Pseudo-core for xc-correction
comcore: Pseudo-core radius Rcore=  1.791422

xc_check: Exchange-correlation functional:
xc_check: GGA Perdew, Burke & Ernzerhof 1996
V l=0 = -2*Zval/r beyond r=  1.4666
V l=1 = -2*Zval/r beyond r=  1.5038
V l=2 = -2*Zval/r beyond r=  1.5038
All V_l potentials equal beyond r=  1.5038
This should be close to max(r_c) in ps generation
All pots = -2*Zval/r beyond r=  1.5038

VLOCAL1: 99.0% of the norm of Vloc inside     19.196 Ry
VLOCAL1: 99.9% of the norm of Vloc inside     43.748 Ry
atom: Maximum radius for 4*pi*r*r*local-pseudopot. charge    1.81396
atom: Maximum radius for r*vlocal+2*Zval:    1.56123
GHOST: No ghost state for L =  0
GHOST: No ghost state for L =  1
GHOST: No ghost state for L =  2

KBgen: Kleinman-Bylander projectors: 
   l= 0   rc=  1.682861   el= -1.009802   Ekb=  5.530688   kbcos=  0.309203
   l= 1   rc=  1.682861   el= -0.388707   Ekb= -3.901042   kbcos= -0.358653
   l= 2   rc=  1.769164   el=  0.001971   Ekb= -0.965319   kbcos= -0.008918

KBgen: Total number of  Kleinman-Bylander projectors:    9
atom: -------------------------------------------------------------------------

atom: SANKEY-TYPE ORBITALS:
atom: Selected multiple-zeta basis: split     

SPLIT: Orbitals with angular momentum L= 0

SPLIT: Basis orbitals for state 2s

SPLIT: PAO cut-off radius determined from an
SPLIT: energy shift=  0.002500 Ry

   izeta = 1
                 lambda =    1.000000
                     rc =    5.249652
                 energy =   -1.006063
                kinetic =    0.848579
    potential(screened) =   -1.854641
       potential(ionic) =   -5.411046

   izeta = 2
                 rmatch =    2.917126
              splitnorm =    0.300000
                 energy =   -0.692240
                kinetic =    1.629846
    potential(screened) =   -2.322086
       potential(ionic) =   -6.217211

   izeta = 3
                 rmatch =    3.475094
              splitnorm =    0.150000
                 energy =   -0.875985
                kinetic =    1.293480
    potential(screened) =   -2.169465
       potential(ionic) =   -5.963906

SPLIT: Orbitals with angular momentum L= 1

SPLIT: Basis orbitals for state 2p

SPLIT: PAO cut-off radius determined from an
SPLIT: energy shift=  0.002500 Ry

   izeta = 1
                 lambda =    1.000000
                     rc =    6.574363
                 energy =   -0.384946
                kinetic =    2.366548
    potential(screened) =   -2.751494
       potential(ionic) =   -6.161480

   izeta = 2
                 rmatch =    2.917126
              splitnorm =    0.300000
                 energy =   -0.050508
                kinetic =    4.454985
    potential(screened) =   -4.505493
       potential(ionic) =   -8.466771

   izeta = 3
                 rmatch =    3.699245
              splitnorm =    0.150000
                 energy =   -0.256687
                kinetic =    3.508828
    potential(screened) =   -3.765515
       potential(ionic) =   -7.552009

POLgen: Perturbative polarization orbital with L=  2

POLgen: Polarization orbital for state 2p

   izeta = 1
                     rc =    6.574363
                 energy =    1.044923
                kinetic =    2.180482
    potential(screened) =   -1.135559
       potential(ionic) =   -3.902866

POLgen: Polarization orbital for state 2p

   izeta = 2
                 rmatch =    3.937853
              splitnorm =    0.300000
                 energy =    1.980112
                kinetic =    3.916515
    potential(screened) =   -1.936403
       potential(ionic) =   -5.266232
atom: Total number of Sankey-type orbitals: 22

atm_pop: Valence configuration (for local Pseudopot. screening):
 2s( 2.00)                                                            
 2p( 2.00)                                                            
Vna: chval, zval:    4.00000   4.00000

Vna:  Cut-off radius for the neutral-atom potential:   6.574363

atom: _________________________________________________________________________

prinput: Basis input ----------------------------------------------------------

PAO.BasisType split     

%block ChemicalSpeciesLabel
    1    6 C.pbe                   # Species index, atomic number, species label
%endblock ChemicalSpeciesLabel

%block PAO.Basis                 # Define Basis set
C.pbe                 2                    # Species label, number of l-shells
 n=2   0   3                         # n, l, Nzeta 
   5.250      2.917      3.475   
   1.000      1.000      1.000   
 n=2   1   3 P   2                   # n, l, Nzeta, Polarization, NzetaPol
   6.574      2.917      3.699   
   1.000      1.000      1.000   
%endblock PAO.Basis

prinput: ----------------------------------------------------------------------


siesta: ******************** Simulation parameters ****************************
siesta:
siesta: The following are some of the parameters of the simulation.
siesta: A complete list of the parameters used, including default values,
siesta: can be found in file out.fdf
siesta:
coor:   Atomic-coordinates input format  =     Fractional
redata: Number of spin components        =     1
redata: Long output                      =     T
redata: Number of Atomic Species         =     1
redata: Charge density info will appear in .RHO file
redata: Write Mulliken Pop.              =     Atomic and Orbital charges
redata: Mesh Cutoff                      =   100.0000  Ry
redata: Net charge of the system         =     0.0000 |e|
redata: Max. number of SCF Iter          =    50
redata: Performing Pulay mixing using    =     5 iterations
redata: Mix DM in first SCF step ?       =     F
redata: Write Pulay info on disk?        =     F
redata: New DM Mixing Weight             =     0.3000
redata: New DM Occupancy tolerance       = 0.000000000001
redata: No kicks to SCF
redata: DM Mixing Weight for Kicks       =     0.5000
redata: DM Tolerance for SCF             =     0.000100
redata: Require Energy convergence for SCF =     F
redata: DM Energy tolerance for SCF      =     0.000100 eV
redata: Using Saved Data (generic)   =     T
redata: Use continuation files for DM    =     T
redata: Neglect nonoverlap interactions  =     F
redata: Method of Calculation            =     Diagonalization
redata: Divide and Conquer               =     T
redata: Electronic Temperature           =     0.0000  Ry
redata: Fix the spin of the system       =     F
redata: Dynamics option                  =     CG coord. optimization
redata: Variable cell                    =     T
redata: Use continuation files for CG    =     T
redata: Max atomic displ per move        =     0.2000  Bohr
redata: Maximum number of CG moves       =   100
redata: Force tolerance                  =     0.0004  Ry/Bohr
redata: Stress tolerance                 =     0.0200  GPa
redata: ***********************************************************************

siesta: WARNING: XV file not found

siesta: Atomic coordinates (Bohr) and species
siesta:      0.00000   0.00000   0.00000  1        1
siesta:      0.00000   0.00000   6.33814  1        2
siesta:      0.00000   2.68504   0.00000  1        3
siesta:      2.32531   1.34252   6.33814  1        4

initatomlists: Number of atoms, orbitals, and projectors:      4    88    36
Total number of electrons:    16.000000
Total ionic charge:    16.000000

siesta: System type = bulk      

* ProcessorY, Blocksize:    1  24

Kgrid cutoff input:   30.23563

siesta: k-point coordinates (Bohr**-1) and weights:
siesta:    1   -0.530767   -0.250722   -0.198266       0.002041
siesta:    2   -0.434264   -0.195006   -0.198266       0.002041
siesta:    3   -0.337761   -0.139290   -0.198266       0.002041
siesta:    4   -0.241258   -0.083574   -0.198266       0.002041
siesta:    5   -0.144755   -0.027858   -0.198266       0.002041
siesta:    6   -0.048252    0.027858   -0.198266       0.002041
siesta:    7    0.048252    0.083574   -0.198266       0.002041
siesta:    8    0.144755    0.139290   -0.198266       0.002041
siesta:    9    0.241258    0.195006   -0.198266       0.002041
siesta:   10    0.337761    0.250722   -0.198266       0.002041
siesta:   11    0.434264    0.306438   -0.198266       0.002041
siesta:   12    0.530767    0.362155   -0.198266       0.002041
siesta:   13    0.627270    0.417871   -0.198266       0.002041
siesta:   14   -0.627270   -0.306438   -0.198266       0.002041
siesta:   15   -0.530767   -0.139290   -0.198266       0.002041
siesta:   16   -0.434264   -0.083574   -0.198266       0.002041
siesta:   17   -0.337761   -0.027858   -0.198266       0.002041
siesta:   18   -0.241258    0.027858   -0.198266       0.002041
siesta:   19   -0.144755    0.083574   -0.198266       0.002041
siesta:   20   -0.048252    0.139290   -0.198266       0.002041
siesta:   21    0.048252    0.195006   -0.198266       0.002041
siesta:   22    0.144755    0.250722   -0.198266       0.002041
siesta:   23    0.241258    0.306438   -0.198266       0.002041
siesta:   24    0.337761    0.362155   -0.198266       0.002041
siesta:   25    0.434264    0.417871   -0.198266       0.002041
siesta:   26    0.530767    0.473587   -0.198266       0.002041
siesta:   27    0.627270    0.529303   -0.198266       0.002041
siesta:   28   -0.627270   -0.195006   -0.198266       0.002041
siesta:   29   -0.530767   -0.027858   -0.198266       0.002041
siesta:   30   -0.434264    0.027858   -0.198266       0.002041
siesta:   31   -0.337761    0.083574   -0.198266       0.002041
siesta:   32   -0.241258    0.139290   -0.198266       0.002041
siesta:   33   -0.144755    0.195006   -0.198266       0.002041
siesta:   34   -0.048252    0.250722   -0.198266       0.002041
siesta:   35    0.048252    0.306438   -0.198266       0.002041
siesta:   36    0.144755    0.362155   -0.198266       0.002041
siesta:   37    0.241258    0.417871   -0.198266       0.002041
siesta:   38    0.337761    0.473587   -0.198266       0.002041
siesta:   39    0.434264    0.529303   -0.198266       0.002041
siesta:   40    0.530767    0.585019   -0.198266       0.002041
siesta:   41    0.627270    0.640735   -0.198266       0.002041
siesta:   42   -0.627270   -0.083574   -0.198266       0.002041
siesta:   43   -0.530767    0.083574   -0.198266       0.002041
siesta:   44   -0.434264    0.139290   -0.198266       0.002041
siesta:   45   -0.337761    0.195006   -0.198266       0.002041
siesta:   46   -0.241258    0.250722   -0.198266       0.002041
siesta:   47   -0.144755    0.306438   -0.198266       0.002041
siesta:   48   -0.048252    0.362155   -0.198266       0.002041
siesta:   49    0.048252    0.417871   -0.198266       0.002041
siesta:   50    0.144755    0.473587   -0.198266       0.002041
siesta:   51    0.241258    0.529303   -0.198266       0.002041
siesta:   52    0.337761    0.585019   -0.198266       0.002041
siesta:   53    0.434264    0.640735   -0.198266       0.002041
siesta:   54    0.530767    0.696451   -0.198266       0.002041
siesta:   55    0.627270    0.752167   -0.198266       0.002041
siesta:   56   -0.627270    0.027858   -0.198266       0.002041
siesta:   57   -0.530767    0.195006   -0.198266       0.002041
siesta:   58   -0.434264    0.250722   -0.198266       0.002041
siesta:   59   -0.337761    0.306438   -0.198266       0.002041
siesta:   60   -0.241258    0.362155   -0.198266       0.002041
siesta:   61   -0.144755    0.417871   -0.198266       0.002041
siesta:   62   -0.048252    0.473587   -0.198266       0.002041
siesta:   63    0.048252    0.529303   -0.198266       0.002041
siesta:   64    0.144755    0.585019   -0.198266       0.002041
siesta:   65    0.241258    0.640735   -0.198266       0.002041
siesta:   66    0.337761    0.696451   -0.198266       0.002041
siesta:   67    0.434264    0.752167   -0.198266       0.002041
siesta:   68    0.530767    0.807883   -0.198266       0.002041
siesta:   69    0.627270    0.863599   -0.198266       0.002041
siesta:   70   -0.627270    0.139290   -0.198266       0.002041
siesta:   71   -0.530767    0.306438   -0.198266       0.002041
siesta:   72   -0.434264    0.362155   -0.198266       0.002041
siesta:   73   -0.337761    0.417871   -0.198266       0.002041
siesta:   74   -0.241258    0.473587   -0.198266       0.002041
siesta:   75   -0.144755    0.529303   -0.198266       0.002041
siesta:   76   -0.048252    0.585019   -0.198266       0.002041
siesta:   77    0.048252    0.640735   -0.198266       0.002041
siesta:   78    0.144755    0.696451   -0.198266       0.002041
siesta:   79    0.241258    0.752167   -0.198266       0.002041
siesta:   80    0.337761    0.807883   -0.198266       0.002041
siesta:   81    0.434264    0.863599   -0.198266       0.002041
siesta:   82    0.530767    0.919315   -0.198266       0.002041
siesta:   83    0.627270    0.975031   -0.198266       0.002041
siesta:   84   -0.627270    0.250722   -0.198266       0.002041
siesta:   85   -0.530767    0.417871   -0.198266       0.002041
siesta:   86   -0.434264    0.473587   -0.198266       0.002041
siesta:   87   -0.337761    0.529303   -0.198266       0.002041
siesta:   88   -0.241258    0.585019   -0.198266       0.002041
siesta:   89   -0.144755    0.640735   -0.198266       0.002041
siesta:   90   -0.048252    0.696451   -0.198266       0.002041
siesta:   91    0.048252    0.752167   -0.198266       0.002041
siesta:   92    0.144755    0.807883   -0.198266       0.002041
siesta:   93    0.241258    0.863599   -0.198266       0.002041
siesta:   94    0.337761    0.919315   -0.198266       0.002041
siesta:   95    0.434264    0.975031   -0.198266       0.002041
siesta:   96    0.530767    1.030747   -0.198266       0.002041
siesta:   97    0.627270    1.086464   -0.198266       0.002041
siesta:   98   -0.627270    0.362155   -0.198266       0.002041
siesta:   99   -0.530767   -0.250722   -0.099133       0.002041
siesta:  100   -0.434264   -0.195006   -0.099133       0.002041
siesta:  101   -0.337761   -0.139290   -0.099133       0.002041
siesta:  102   -0.241258   -0.083574   -0.099133       0.002041
siesta:  103   -0.144755   -0.027858   -0.099133       0.002041
siesta:  104   -0.048252    0.027858   -0.099133       0.002041
siesta:  105    0.048252    0.083574   -0.099133       0.002041
siesta:  106    0.144755    0.139290   -0.099133       0.002041
siesta:  107    0.241258    0.195006   -0.099133       0.002041
siesta:  108    0.337761    0.250722   -0.099133       0.002041
siesta:  109    0.434264    0.306438   -0.099133       0.002041
siesta:  110    0.530767    0.362155   -0.099133       0.002041
siesta:  111    0.627270    0.417871   -0.099133       0.002041
siesta:  112   -0.627270   -0.306438   -0.099133       0.002041
siesta:  113   -0.530767   -0.139290   -0.099133       0.002041
siesta:  114   -0.434264   -0.083574   -0.099133       0.002041
siesta:  115   -0.337761   -0.027858   -0.099133       0.002041
siesta:  116   -0.241258    0.027858   -0.099133       0.002041
siesta:  117   -0.144755    0.083574   -0.099133       0.002041
siesta:  118   -0.048252    0.139290   -0.099133       0.002041
siesta:  119    0.048252    0.195006   -0.099133       0.002041
siesta:  120    0.144755    0.250722   -0.099133       0.002041
siesta:  121    0.241258    0.306438   -0.099133       0.002041
siesta:  122    0.337761    0.362155   -0.099133       0.002041
siesta:  123    0.434264    0.417871   -0.099133       0.002041
siesta:  124    0.530767    0.473587   -0.099133       0.002041
siesta:  125    0.627270    0.529303   -0.099133       0.002041
siesta:  126   -0.627270   -0.195006   -0.099133       0.002041
siesta:  127   -0.530767   -0.027858   -0.099133       0.002041
siesta:  128   -0.434264    0.027858   -0.099133       0.002041
siesta:  129   -0.337761    0.083574   -0.099133       0.002041
siesta:  130   -0.241258    0.139290   -0.099133       0.002041
siesta:  131   -0.144755    0.195006   -0.099133       0.002041
siesta:  132   -0.048252    0.250722   -0.099133       0.002041
siesta:  133    0.048252    0.306438   -0.099133       0.002041
siesta:  134    0.144755    0.362155   -0.099133       0.002041
siesta:  135    0.241258    0.417871   -0.099133       0.002041
siesta:  136    0.337761    0.473587   -0.099133       0.002041
siesta:  137    0.434264    0.529303   -0.099133       0.002041
siesta:  138    0.530767    0.585019   -0.099133       0.002041
siesta:  139    0.627270    0.640735   -0.099133       0.002041
siesta:  140   -0.627270   -0.083574   -0.099133       0.002041
siesta:  141   -0.530767    0.083574   -0.099133       0.002041
siesta:  142   -0.434264    0.139290   -0.099133       0.002041
siesta:  143   -0.337761    0.195006   -0.099133       0.002041
siesta:  144   -0.241258    0.250722   -0.099133       0.002041
siesta:  145   -0.144755    0.306438   -0.099133       0.002041
siesta:  146   -0.048252    0.362155   -0.099133       0.002041
siesta:  147    0.048252    0.417871   -0.099133       0.002041
siesta:  148    0.144755    0.473587   -0.099133       0.002041
siesta:  149    0.241258    0.529303   -0.099133       0.002041
siesta:  150    0.337761    0.585019   -0.099133       0.002041
siesta:  151    0.434264    0.640735   -0.099133       0.002041
siesta:  152    0.530767    0.696451   -0.099133       0.002041
siesta:  153    0.627270    0.752167   -0.099133       0.002041
siesta:  154   -0.627270    0.027858   -0.099133       0.002041
siesta:  155   -0.530767    0.195006   -0.099133       0.002041
siesta:  156   -0.434264    0.250722   -0.099133       0.002041
siesta:  157   -0.337761    0.306438   -0.099133       0.002041
siesta:  158   -0.241258    0.362155   -0.099133       0.002041
siesta:  159   -0.144755    0.417871   -0.099133       0.002041
siesta:  160   -0.048252    0.473587   -0.099133       0.002041
siesta:  161    0.048252    0.529303   -0.099133       0.002041
siesta:  162    0.144755    0.585019   -0.099133       0.002041
siesta:  163    0.241258    0.640735   -0.099133       0.002041
siesta:  164    0.337761    0.696451   -0.099133       0.002041
siesta:  165    0.434264    0.752167   -0.099133       0.002041
siesta:  166    0.530767    0.807883   -0.099133       0.002041
siesta:  167    0.627270    0.863599   -0.099133       0.002041
siesta:  168   -0.627270    0.139290   -0.099133       0.002041
siesta:  169   -0.530767    0.306438   -0.099133       0.002041
siesta:  170   -0.434264    0.362155   -0.099133       0.002041
siesta:  171   -0.337761    0.417871   -0.099133       0.002041
siesta:  172   -0.241258    0.473587   -0.099133       0.002041
siesta:  173   -0.144755    0.529303   -0.099133       0.002041
siesta:  174   -0.048252    0.585019   -0.099133       0.002041
siesta:  175    0.048252    0.640735   -0.099133       0.002041
siesta:  176    0.144755    0.696451   -0.099133       0.002041
siesta:  177    0.241258    0.752167   -0.099133       0.002041
siesta:  178    0.337761    0.807883   -0.099133       0.002041
siesta:  179    0.434264    0.863599   -0.099133       0.002041
siesta:  180    0.530767    0.919315   -0.099133       0.002041
siesta:  181    0.627270    0.975031   -0.099133       0.002041
siesta:  182   -0.627270    0.250722   -0.099133       0.002041
siesta:  183   -0.530767    0.417871   -0.099133       0.002041
siesta:  184   -0.434264    0.473587   -0.099133       0.002041
siesta:  185   -0.337761    0.529303   -0.099133       0.002041
siesta:  186   -0.241258    0.585019   -0.099133       0.002041
siesta:  187   -0.144755    0.640735   -0.099133       0.002041
siesta:  188   -0.048252    0.696451   -0.099133       0.002041
siesta:  189    0.048252    0.752167   -0.099133       0.002041
siesta:  190    0.144755    0.807883   -0.099133       0.002041
siesta:  191    0.241258    0.863599   -0.099133       0.002041
siesta:  192    0.337761    0.919315   -0.099133       0.002041
siesta:  193    0.434264    0.975031   -0.099133       0.002041
siesta:  194    0.530767    1.030747   -0.099133       0.002041
siesta:  195    0.627270    1.086464   -0.099133       0.002041
siesta:  196   -0.627270    0.362155   -0.099133       0.002041
siesta:  197   -0.530767   -0.250722    0.000000       0.002041
siesta:  198   -0.434264   -0.195006    0.000000       0.002041
siesta:  199   -0.337761   -0.139290    0.000000       0.002041
siesta:  200   -0.241258   -0.083574    0.000000       0.002041
siesta:  201   -0.144755   -0.027858    0.000000       0.002041
siesta:  202   -0.048252    0.027858    0.000000       0.002041
siesta:  203    0.048252    0.083574    0.000000       0.002041
siesta:  204    0.144755    0.139290    0.000000       0.002041
siesta:  205    0.241258    0.195006    0.000000       0.002041
siesta:  206    0.337761    0.250722    0.000000       0.002041
siesta:  207    0.434264    0.306438    0.000000       0.002041
siesta:  208    0.530767    0.362155    0.000000       0.002041
siesta:  209    0.627270    0.417871    0.000000       0.002041
siesta:  210   -0.627270   -0.306438    0.000000       0.002041
siesta:  211   -0.530767   -0.139290    0.000000       0.002041
siesta:  212   -0.434264   -0.083574    0.000000       0.002041
siesta:  213   -0.337761   -0.027858    0.000000       0.002041
siesta:  214   -0.241258    0.027858    0.000000       0.002041
siesta:  215   -0.144755    0.083574    0.000000       0.002041
siesta:  216   -0.048252    0.139290    0.000000       0.002041
siesta:  217    0.048252    0.195006    0.000000       0.002041
siesta:  218    0.144755    0.250722    0.000000       0.002041
siesta:  219    0.241258    0.306438    0.000000       0.002041
siesta:  220    0.337761    0.362155    0.000000       0.002041
siesta:  221    0.434264    0.417871    0.000000       0.002041
siesta:  222    0.530767    0.473587    0.000000       0.002041
siesta:  223    0.627270    0.529303    0.000000       0.002041
siesta:  224   -0.627270   -0.195006    0.000000       0.002041
siesta:  225   -0.530767   -0.027858    0.000000       0.002041
siesta:  226   -0.434264    0.027858    0.000000       0.002041
siesta:  227   -0.337761    0.083574    0.000000       0.002041
siesta:  228   -0.241258    0.139290    0.000000       0.002041
siesta:  229   -0.144755    0.195006    0.000000       0.002041
siesta:  230   -0.048252    0.250722    0.000000       0.002041
siesta:  231    0.048252    0.306438    0.000000       0.002041
siesta:  232    0.144755    0.362155    0.000000       0.002041
siesta:  233    0.241258    0.417871    0.000000       0.002041
siesta:  234    0.337761    0.473587    0.000000       0.002041
siesta:  235    0.434264    0.529303    0.000000       0.002041
siesta:  236    0.530767    0.585019    0.000000       0.002041
siesta:  237    0.627270    0.640735    0.000000       0.002041
siesta:  238   -0.627270   -0.083574    0.000000       0.002041
siesta:  239   -0.530767    0.083574    0.000000       0.002041
siesta:  240   -0.434264    0.139290    0.000000       0.002041
siesta:  241   -0.337761    0.195006    0.000000       0.002041
siesta:  242   -0.241258    0.250722    0.000000       0.002041
siesta:  243   -0.144755    0.306438    0.000000       0.002041
siesta:  244   -0.048252    0.362155    0.000000       0.002041
siesta:  245    0.048252    0.417871    0.000000       0.002041
siesta:  246    0.144755    0.473587    0.000000       0.002041
siesta:  247    0.241258    0.529303    0.000000       0.002041
siesta:  248    0.337761    0.585019    0.000000       0.002041
siesta:  249    0.434264    0.640735    0.000000       0.002041
siesta:  250    0.530767    0.696451    0.000000       0.002041
siesta:  251    0.627270    0.752167    0.000000       0.002041
siesta:  252   -0.627270    0.027858    0.000000       0.002041
siesta:  253   -0.530767    0.195006    0.000000       0.002041
siesta:  254   -0.434264    0.250722    0.000000       0.002041
siesta:  255   -0.337761    0.306438    0.000000       0.002041
siesta:  256   -0.241258    0.362155    0.000000       0.002041
siesta:  257   -0.144755    0.417871    0.000000       0.002041
siesta:  258   -0.048252    0.473587    0.000000       0.002041
siesta:  259    0.048252    0.529303    0.000000       0.002041
siesta:  260    0.144755    0.585019    0.000000       0.002041
siesta:  261    0.241258    0.640735    0.000000       0.002041
siesta:  262    0.337761    0.696451    0.000000       0.002041
siesta:  263    0.434264    0.752167    0.000000       0.002041
siesta:  264    0.530767    0.807883    0.000000       0.002041
siesta:  265    0.627270    0.863599    0.000000       0.002041
siesta:  266   -0.627270    0.139290    0.000000       0.002041
siesta:  267   -0.530767    0.306438    0.000000       0.002041
siesta:  268   -0.434264    0.362155    0.000000       0.002041
siesta:  269   -0.337761    0.417871    0.000000       0.002041
siesta:  270   -0.241258    0.473587    0.000000       0.002041
siesta:  271   -0.144755    0.529303    0.000000       0.002041
siesta:  272   -0.048252    0.585019    0.000000       0.002041
siesta:  273    0.048252    0.640735    0.000000       0.002041
siesta:  274    0.144755    0.696451    0.000000       0.002041
siesta:  275    0.241258    0.752167    0.000000       0.002041
siesta:  276    0.337761    0.807883    0.000000       0.002041
siesta:  277    0.434264    0.863599    0.000000       0.002041
siesta:  278    0.530767    0.919315    0.000000       0.002041
siesta:  279    0.627270    0.975031    0.000000       0.002041
siesta:  280   -0.627270    0.250722    0.000000       0.002041
siesta:  281   -0.530767    0.417871    0.000000       0.002041
siesta:  282   -0.434264    0.473587    0.000000       0.002041
siesta:  283   -0.337761    0.529303    0.000000       0.002041
siesta:  284   -0.241258    0.585019    0.000000       0.002041
siesta:  285   -0.144755    0.640735    0.000000       0.002041
siesta:  286   -0.048252    0.696451    0.000000       0.002041
siesta:  287    0.048252    0.752167    0.000000       0.002041
siesta:  288    0.144755    0.807883    0.000000       0.002041
siesta:  289    0.241258    0.863599    0.000000       0.002041
siesta:  290    0.337761    0.919315    0.000000       0.002041
siesta:  291    0.434264    0.975031    0.000000       0.002041
siesta:  292    0.530767    1.030747    0.000000       0.002041
siesta:  293    0.627270    1.086464    0.000000       0.002041
siesta:  294   -0.627270    0.362155    0.000000       0.002041
siesta:  295   -0.530767   -0.250722    0.099133       0.002041
siesta:  296   -0.434264   -0.195006    0.099133       0.002041
siesta:  297   -0.337761   -0.139290    0.099133       0.002041
siesta:  298   -0.241258   -0.083574    0.099133       0.002041
siesta:  299   -0.144755   -0.027858    0.099133       0.002041
siesta:  300   -0.048252    0.027858    0.099133       0.002041
siesta:  301    0.048252    0.083574    0.099133       0.002041
siesta:  302    0.144755    0.139290    0.099133       0.002041
siesta:  303    0.241258    0.195006    0.099133       0.002041
siesta:  304    0.337761    0.250722    0.099133       0.002041
siesta:  305    0.434264    0.306438    0.099133       0.002041
siesta:  306    0.530767    0.362155    0.099133       0.002041
siesta:  307    0.627270    0.417871    0.099133       0.002041
siesta:  308   -0.627270   -0.306438    0.099133       0.002041
siesta:  309   -0.530767   -0.139290    0.099133       0.002041
siesta:  310   -0.434264   -0.083574    0.099133       0.002041
siesta:  311   -0.337761   -0.027858    0.099133       0.002041
siesta:  312   -0.241258    0.027858    0.099133       0.002041
siesta:  313   -0.144755    0.083574    0.099133       0.002041
siesta:  314   -0.048252    0.139290    0.099133       0.002041
siesta:  315    0.048252    0.195006    0.099133       0.002041
siesta:  316    0.144755    0.250722    0.099133       0.002041
siesta:  317    0.241258    0.306438    0.099133       0.002041
siesta:  318    0.337761    0.362155    0.099133       0.002041
siesta:  319    0.434264    0.417871    0.099133       0.002041
siesta:  320    0.530767    0.473587    0.099133       0.002041
siesta:  321    0.627270    0.529303    0.099133       0.002041
siesta:  322   -0.627270   -0.195006    0.099133       0.002041
siesta:  323   -0.530767   -0.027858    0.099133       0.002041
siesta:  324   -0.434264    0.027858    0.099133       0.002041
siesta:  325   -0.337761    0.083574    0.099133       0.002041
siesta:  326   -0.241258    0.139290    0.099133       0.002041
siesta:  327   -0.144755    0.195006    0.099133       0.002041
siesta:  328   -0.048252    0.250722    0.099133       0.002041
siesta:  329    0.048252    0.306438    0.099133       0.002041
siesta:  330    0.144755    0.362155    0.099133       0.002041
siesta:  331    0.241258    0.417871    0.099133       0.002041
siesta:  332    0.337761    0.473587    0.099133       0.002041
siesta:  333    0.434264    0.529303    0.099133       0.002041
siesta:  334    0.530767    0.585019    0.099133       0.002041
siesta:  335    0.627270    0.640735    0.099133       0.002041
siesta:  336   -0.627270   -0.083574    0.099133       0.002041
siesta:  337   -0.530767    0.083574    0.099133       0.002041
siesta:  338   -0.434264    0.139290    0.099133       0.002041
siesta:  339   -0.337761    0.195006    0.099133       0.002041
siesta:  340   -0.241258    0.250722    0.099133       0.002041
siesta:  341   -0.144755    0.306438    0.099133       0.002041
siesta:  342   -0.048252    0.362155    0.099133       0.002041
siesta:  343    0.048252    0.417871    0.099133       0.002041
siesta:  344    0.144755    0.473587    0.099133       0.002041
siesta:  345    0.241258    0.529303    0.099133       0.002041
siesta:  346    0.337761    0.585019    0.099133       0.002041
siesta:  347    0.434264    0.640735    0.099133       0.002041
siesta:  348    0.530767    0.696451    0.099133       0.002041
siesta:  349    0.627270    0.752167    0.099133       0.002041
siesta:  350   -0.627270    0.027858    0.099133       0.002041
siesta:  351   -0.530767    0.195006    0.099133       0.002041
siesta:  352   -0.434264    0.250722    0.099133       0.002041
siesta:  353   -0.337761    0.306438    0.099133       0.002041
siesta:  354   -0.241258    0.362155    0.099133       0.002041
siesta:  355   -0.144755    0.417871    0.099133       0.002041
siesta:  356   -0.048252    0.473587    0.099133       0.002041
siesta:  357    0.048252    0.529303    0.099133       0.002041
siesta:  358    0.144755    0.585019    0.099133       0.002041
siesta:  359    0.241258    0.640735    0.099133       0.002041
siesta:  360    0.337761    0.696451    0.099133       0.002041
siesta:  361    0.434264    0.752167    0.099133       0.002041
siesta:  362    0.530767    0.807883    0.099133       0.002041
siesta:  363    0.627270    0.863599    0.099133       0.002041
siesta:  364   -0.627270    0.139290    0.099133       0.002041
siesta:  365   -0.530767    0.306438    0.099133       0.002041
siesta:  366   -0.434264    0.362155    0.099133       0.002041
siesta:  367   -0.337761    0.417871    0.099133       0.002041
siesta:  368   -0.241258    0.473587    0.099133       0.002041
siesta:  369   -0.144755    0.529303    0.099133       0.002041
siesta:  370   -0.048252    0.585019    0.099133       0.002041
siesta:  371    0.048252    0.640735    0.099133       0.002041
siesta:  372    0.144755    0.696451    0.099133       0.002041
siesta:  373    0.241258    0.752167    0.099133       0.002041
siesta:  374    0.337761    0.807883    0.099133       0.002041
siesta:  375    0.434264    0.863599    0.099133       0.002041
siesta:  376    0.530767    0.919315    0.099133       0.002041
siesta:  377    0.627270    0.975031    0.099133       0.002041
siesta:  378   -0.627270    0.250722    0.099133       0.002041
siesta:  379   -0.530767    0.417871    0.099133       0.002041
siesta:  380   -0.434264    0.473587    0.099133       0.002041
siesta:  381   -0.337761    0.529303    0.099133       0.002041
siesta:  382   -0.241258    0.585019    0.099133       0.002041
siesta:  383   -0.144755    0.640735    0.099133       0.002041
siesta:  384   -0.048252    0.696451    0.099133       0.002041
siesta:  385    0.048252    0.752167    0.099133       0.002041
siesta:  386    0.144755    0.807883    0.099133       0.002041
siesta:  387    0.241258    0.863599    0.099133       0.002041
siesta:  388    0.337761    0.919315    0.099133       0.002041
siesta:  389    0.434264    0.975031    0.099133       0.002041
siesta:  390    0.530767    1.030747    0.099133       0.002041
siesta:  391    0.627270    1.086464    0.099133       0.002041
siesta:  392   -0.627270    0.362155    0.099133       0.002041
siesta:  393   -0.530767   -0.250722    0.198266       0.002041
siesta:  394   -0.434264   -0.195006    0.198266       0.002041
siesta:  395   -0.337761   -0.139290    0.198266       0.002041
siesta:  396   -0.241258   -0.083574    0.198266       0.002041
siesta:  397   -0.144755   -0.027858    0.198266       0.002041
siesta:  398   -0.048252    0.027858    0.198266       0.002041
siesta:  399    0.048252    0.083574    0.198266       0.002041
siesta:  400    0.144755    0.139290    0.198266       0.002041
siesta:  401    0.241258    0.195006    0.198266       0.002041
siesta:  402    0.337761    0.250722    0.198266       0.002041
siesta:  403    0.434264    0.306438    0.198266       0.002041
siesta:  404    0.530767    0.362155    0.198266       0.002041
siesta:  405    0.627270    0.417871    0.198266       0.002041
siesta:  406   -0.627270   -0.306438    0.198266       0.002041
siesta:  407   -0.530767   -0.139290    0.198266       0.002041
siesta:  408   -0.434264   -0.083574    0.198266       0.002041
siesta:  409   -0.337761   -0.027858    0.198266       0.002041
siesta:  410   -0.241258    0.027858    0.198266       0.002041
siesta:  411   -0.144755    0.083574    0.198266       0.002041
siesta:  412   -0.048252    0.139290    0.198266       0.002041
siesta:  413    0.048252    0.195006    0.198266       0.002041
siesta:  414    0.144755    0.250722    0.198266       0.002041
siesta:  415    0.241258    0.306438    0.198266       0.002041
siesta:  416    0.337761    0.362155    0.198266       0.002041
siesta:  417    0.434264    0.417871    0.198266       0.002041
siesta:  418    0.530767    0.473587    0.198266       0.002041
siesta:  419    0.627270    0.529303    0.198266       0.002041
siesta:  420   -0.627270   -0.195006    0.198266       0.002041
siesta:  421   -0.530767   -0.027858    0.198266       0.002041
siesta:  422   -0.434264    0.027858    0.198266       0.002041
siesta:  423   -0.337761    0.083574    0.198266       0.002041
siesta:  424   -0.241258    0.139290    0.198266       0.002041
siesta:  425   -0.144755    0.195006    0.198266       0.002041
siesta:  426   -0.048252    0.250722    0.198266       0.002041
siesta:  427    0.048252    0.306438    0.198266       0.002041
siesta:  428    0.144755    0.362155    0.198266       0.002041
siesta:  429    0.241258    0.417871    0.198266       0.002041
siesta:  430    0.337761    0.473587    0.198266       0.002041
siesta:  431    0.434264    0.529303    0.198266       0.002041
siesta:  432    0.530767    0.585019    0.198266       0.002041
siesta:  433    0.627270    0.640735    0.198266       0.002041
siesta:  434   -0.627270   -0.083574    0.198266       0.002041
siesta:  435   -0.530767    0.083574    0.198266       0.002041
siesta:  436   -0.434264    0.139290    0.198266       0.002041
siesta:  437   -0.337761    0.195006    0.198266       0.002041
siesta:  438   -0.241258    0.250722    0.198266       0.002041
siesta:  439   -0.144755    0.306438    0.198266       0.002041
siesta:  440   -0.048252    0.362155    0.198266       0.002041
siesta:  441    0.048252    0.417871    0.198266       0.002041
siesta:  442    0.144755    0.473587    0.198266       0.002041
siesta:  443    0.241258    0.529303    0.198266       0.002041
siesta:  444    0.337761    0.585019    0.198266       0.002041
siesta:  445    0.434264    0.640735    0.198266       0.002041
siesta:  446    0.530767    0.696451    0.198266       0.002041
siesta:  447    0.627270    0.752167    0.198266       0.002041
siesta:  448   -0.627270    0.027858    0.198266       0.002041
siesta:  449   -0.530767    0.195006    0.198266       0.002041
siesta:  450   -0.434264    0.250722    0.198266       0.002041
siesta:  451   -0.337761    0.306438    0.198266       0.002041
siesta:  452   -0.241258    0.362155    0.198266       0.002041
siesta:  453   -0.144755    0.417871    0.198266       0.002041
siesta:  454   -0.048252    0.473587    0.198266       0.002041
siesta:  455    0.048252    0.529303    0.198266       0.002041
siesta:  456    0.144755    0.585019    0.198266       0.002041
siesta:  457    0.241258    0.640735    0.198266       0.002041
siesta:  458    0.337761    0.696451    0.198266       0.002041
siesta:  459    0.434264    0.752167    0.198266       0.002041
siesta:  460    0.530767    0.807883    0.198266       0.002041
siesta:  461    0.627270    0.863599    0.198266       0.002041
siesta:  462   -0.627270    0.139290    0.198266       0.002041
siesta:  463   -0.530767    0.306438    0.198266       0.002041
siesta:  464   -0.434264    0.362155    0.198266       0.002041
siesta:  465   -0.337761    0.417871    0.198266       0.002041
siesta:  466   -0.241258    0.473587    0.198266       0.002041
siesta:  467   -0.144755    0.529303    0.198266       0.002041
siesta:  468   -0.048252    0.585019    0.198266       0.002041
siesta:  469    0.048252    0.640735    0.198266       0.002041
siesta:  470    0.144755    0.696451    0.198266       0.002041
siesta:  471    0.241258    0.752167    0.198266       0.002041
siesta:  472    0.337761    0.807883    0.198266       0.002041
siesta:  473    0.434264    0.863599    0.198266       0.002041
siesta:  474    0.530767    0.919315    0.198266       0.002041
siesta:  475    0.627270    0.975031    0.198266       0.002041
siesta:  476   -0.627270    0.250722    0.198266       0.002041
siesta:  477   -0.530767    0.417871    0.198266       0.002041
siesta:  478   -0.434264    0.473587    0.198266       0.002041
siesta:  479   -0.337761    0.529303    0.198266       0.002041
siesta:  480   -0.241258    0.585019    0.198266       0.002041
siesta:  481   -0.144755    0.640735    0.198266       0.002041
siesta:  482   -0.048252    0.696451    0.198266       0.002041
siesta:  483    0.048252    0.752167    0.198266       0.002041
siesta:  484    0.144755    0.807883    0.198266       0.002041
siesta:  485    0.241258    0.863599    0.198266       0.002041
siesta:  486    0.337761    0.919315    0.198266       0.002041
siesta:  487    0.434264    0.975031    0.198266       0.002041
siesta:  488    0.530767    1.030747    0.198266       0.002041
siesta:  489    0.627270    1.086464    0.198266       0.002041
siesta:  490   -0.627270    0.362155    0.198266       0.002041

siesta: k-grid: Number of k-points =   490
siesta: k-grid: Cutoff (effective) =    16.770 Ang
siesta: k-grid: Supercell and displacements
siesta: k-grid:    0  14   0      0.500
siesta: k-grid:   14   0   0      0.500
siesta: k-grid:    0   0   5      0.000
Naive supercell factors:     8    8    3

superc: Internal auxiliary supercell:     8 x     8 x     3  =     192
superc: Number of atoms, orbitals, and projectors:    768 16896  6912

* Maximum dynamic memory allocated =     2 MB

siesta:                 ==============================
                            Begin CG move =      0
                        ==============================

outcoor: Atomic coordinates (fractional):                   
    0.00000000    0.00000000    0.00000000   1       1  C.pbe
    0.00000000    0.00000000    0.50000000   1       2  C.pbe
    0.33333333    0.66666667    0.00000000   1       3  C.pbe
    0.66666667    0.33333333    0.50000000   1       4  C.pbe

superc: Internal auxiliary supercell:     8 x     8 x     3  =     192
superc: Number of atoms, orbitals, and projectors:    768 16896  6912

outcell: Unit cell vectors (Ang):
        2.461000    0.000000    0.000000
       -1.230500    2.131289    0.000000
        0.000000    0.000000    6.708000

outcell: Cell vector modules (Ang)   :    2.461000    2.461000    6.708000
outcell: Cell angles (23,13,12) (deg):     90.0000     90.0000    120.0000
outcell: Cell volume (Ang**3)        :     35.1841

InitMesh: MESH =    16 x    16 x    48 =       12288
InitMesh: Mesh cutoff (required, used) =   100.000   141.514 Ry

* Maximum dynamic memory allocated =    44 MB

stepf: Fermi-Dirac step function

siesta: Program's energy decomposition (eV):
siesta: Eions   =      1035.253114
siesta: Ena     =       233.311624
siesta: Ekin    =       349.963378
siesta: Enl     =        13.010906
siesta: DEna    =         0.000001
siesta: DUscf   =         0.000000
siesta: DUext   =         0.000000
siesta: Exc     =      -197.798024
siesta: eta*DQ  =         0.000000
siesta: Emadel  =         0.000000
siesta: Emeta   =         0.000000
siesta: Emolmec =        -0.425284
siesta: Ekinion =         0.000000
siesta: Eharris =      -632.579544
siesta: Etot    =      -637.190514
siesta: FreeEng =      -637.190514

siesta: iscf   Eharris(eV)      E_KS(eV)   FreeEng(eV)   dDmax  Ef(eV)
siesta:    1     -632.5795     -637.1905     -637.1905  1.5068 -6.9366
timer: Routine,Calls,Time,% = IterSCF        1     209.694  87.83
elaps: Routine,Calls,Wall,% = IterSCF        1     118.595  88.09
siesta:    2     -631.3831     -630.5491     -630.5491  0.2897 -5.2176
siesta:    3     -631.1485     -631.6754     -631.6754  0.0790 -5.6363
siesta:    4     -631.1336     -631.0973     -631.0973  0.0083 -5.6846
siesta:    5     -631.1334     -631.1031     -631.1031  0.0081 -5.7029
siesta:    6     -631.1335     -631.1324     -631.1324  0.0002 -5.7008
siesta:    7     -631.1335     -631.1333     -631.1333  0.0002 -5.7009
siesta:    8     -631.1335     -631.1334     -631.1334  0.0000 -5.7009
grdsam: Reading %block GridCellSampling
grdsam: Grid-cell sampling, point   0
grdsam: Generating displacements for grid-cell sampling
grdsam: Grid-cell sampling, point   1

MM-Stress (kbar):       21.25       21.25       18.07        0.00        0.00        0.00

siesta: E_KS(eV) =             -631.1324

siesta: E_KS - E_eggbox =      -631.1324

siesta: Atomic forces (eV/Ang):
     1    0.043901   -0.025384   -0.000008
     2   -0.043918    0.025341   -0.002604
     3   -0.035342    0.020442   -0.000013
     4    0.035362   -0.020410   -0.000004
----------------------------------------
   Tot    0.000004   -0.000011   -0.002629
----------------------------------------
   Max    0.043918
   Res    0.026588    sqrt( Sum f_i^2 / 3N )
----------------------------------------
   Max    0.043918    constrained

Stress-tensor-Voigt (kbar):      -13.63      -17.05       -9.30       -2.96        0.00        0.00
Enthalpy (eV/cell)     -630.8397
Target enthalpy (eV/cell)     -631.1324

siesta: Stress tensor (static) (eV/Ang**3):
        -0.008509   -0.001847    0.000000
        -0.001847   -0.010643    0.000000
         0.000000    0.000000   -0.005803

siesta: Pressure (static):         13.32742895  kBar

siesta: Stress tensor (total) (eV/Ang**3):
        -0.008509   -0.001847    0.000000
        -0.001847   -0.010643    0.000000
         0.000000    0.000000   -0.005803

siesta: Pressure (total):         13.32742895  kBar
 
mulliken: Atomic and Orbital Populations:

Species: C.pbe               
Atom  Qatom  Qorb
               2s      2s      2s      2py     2pz     2px     2py     2pz     
               2px     2py     2pz     2px     2Pdxy   2Pdyz   2Pdz2   2Pdxz   
               2Pdx2-y22Pdxy   2Pdyz   2Pdz2   2Pdxz   2Pdx2-y2
   1  3.999   1.014   0.155   0.014   0.751   0.708   0.751   0.258   0.066
              0.258  -0.097   0.144  -0.097   0.027   0.038  -0.051   0.039

              0.027  -0.013   0.002   0.014   0.002  -0.013
   2  3.999   1.014   0.155   0.014   0.751   0.708   0.751   0.258   0.066
              0.258  -0.097   0.144  -0.097   0.027   0.038  -0.051   0.039

              0.027  -0.013   0.002   0.014   0.002  -0.013
   3  4.001   1.020   0.148   0.020   0.734   0.703   0.734   0.263   0.065
              0.263  -0.084   0.152  -0.084   0.029   0.043  -0.070   0.043

              0.029  -0.013   0.001   0.018   0.001  -0.013
   4  4.001   1.020   0.148   0.020   0.734   0.703   0.734   0.263   0.065
              0.263  -0.084   0.152  -0.084   0.029   0.043  -0.070   0.043

              0.029  -0.013   0.001   0.018   0.001  -0.013

mulliken: Qtot =       16.000

cgvc: No target stress found, assuming hydrostatic MD.TargetPressure.

cgvc: Target stress (kBar)
cgvc:         0.000       0.000       0.000
cgvc:         0.000       0.000       0.000
cgvc:         0.000       0.000       0.000

cgvc: WARNING: CG file not found

* Maximum dynamic memory allocated =    45 MB

siesta:                 ==============================
                            Begin CG move =      1
                        ==============================

outcoor: Atomic coordinates (fractional):                   
    0.01225028   -0.01225928   -0.00000079   1       1  C.pbe
   -0.01225484    0.01225117    0.49973347   1       2  C.pbe
    0.32347143    0.67653763   -0.00000135   1       3  C.pbe
    0.67653419    0.32346738    0.49999957   1       4  C.pbe
Kgrid cutoff input:   30.23563

siesta: k-point coordinates (Bohr**-1) and weights:
siesta:    1   -0.617843   -0.355254   -0.197160       0.001183
siesta:    2   -0.514869   -0.296045   -0.197160       0.001183
siesta:    3   -0.411895   -0.236836   -0.197160       0.001183
siesta:    4   -0.308921   -0.177627   -0.197160       0.001183
siesta:    5   -0.205948   -0.118418   -0.197160       0.001183
siesta:    6   -0.102974   -0.059209   -0.197160       0.001183
siesta:    7    0.000000    0.000000   -0.197160       0.001183
siesta:    8    0.102974    0.059209   -0.197160       0.001183
siesta:    9    0.205948    0.118418   -0.197160       0.001183
siesta:   10    0.308921    0.177627   -0.197160       0.001183
siesta:   11    0.411895    0.236836   -0.197160       0.001183
siesta:   12    0.514869    0.296045   -0.197160       0.001183
siesta:   13    0.617843    0.355254   -0.197160       0.001183
siesta:   14   -0.618053   -0.236472   -0.197160       0.002367
siesta:   15   -0.515079   -0.177263   -0.197160       0.002367
siesta:   16   -0.412106   -0.118054   -0.197160       0.002367
siesta:   17   -0.309132   -0.058845   -0.197160       0.002367
siesta:   18   -0.206158    0.000364   -0.197160       0.002367
siesta:   19   -0.103184    0.059573   -0.197160       0.002367
siesta:   20   -0.000210    0.118782   -0.197160       0.002367
siesta:   21    0.102763    0.177992   -0.197160       0.002367
siesta:   22    0.205737    0.237201   -0.197160       0.002367
siesta:   23    0.308711    0.296410   -0.197160       0.002367
siesta:   24    0.411685    0.355619   -0.197160       0.002367
siesta:   25    0.514659    0.414828   -0.197160       0.002367
siesta:   26    0.617633    0.474037   -0.197160       0.002367
siesta:   27   -0.618264   -0.117689   -0.197160       0.002367
siesta:   28   -0.515290   -0.058480   -0.197160       0.002367
siesta:   29   -0.412316    0.000729   -0.197160       0.002367
siesta:   30   -0.309342    0.059938   -0.197160       0.002367
siesta:   31   -0.206368    0.119147   -0.197160       0.002367
siesta:   32   -0.103395    0.178356   -0.197160       0.002367
siesta:   33   -0.000421    0.237565   -0.197160       0.002367
siesta:   34    0.102553    0.296774   -0.197160       0.002367
siesta:   35    0.205527    0.355983   -0.197160       0.002367
siesta:   36    0.308501    0.415192   -0.197160       0.002367
siesta:   37    0.411475    0.474401   -0.197160       0.002367
siesta:   38    0.514448    0.533610   -0.197160       0.002367
siesta:   39    0.617422    0.592819   -0.197160       0.002367
siesta:   40   -0.618474    0.001093   -0.197160       0.002367
siesta:   41   -0.515500    0.060302   -0.197160       0.002367
siesta:   42   -0.412526    0.119511   -0.197160       0.002367
siesta:   43   -0.309553    0.178720   -0.197160       0.002367
siesta:   44   -0.206579    0.237929   -0.197160       0.002367
siesta:   45   -0.103605    0.297138   -0.197160       0.002367
siesta:   46   -0.000631    0.356347   -0.197160       0.002367
siesta:   47    0.102343    0.415556   -0.197160       0.002367
siesta:   48    0.205317    0.474765   -0.197160       0.002367
siesta:   49    0.308290    0.533975   -0.197160       0.002367
siesta:   50    0.411264    0.593184   -0.197160       0.002367
siesta:   51    0.514238    0.652393   -0.197160       0.002367
siesta:   52    0.617212    0.711602   -0.197160       0.002367
siesta:   53   -0.618684    0.119875   -0.197160       0.002367
siesta:   54   -0.515710    0.179085   -0.197160       0.002367
siesta:   55   -0.412737    0.238294   -0.197160       0.002367
siesta:   56   -0.309763    0.297503   -0.197160       0.002367
siesta:   57   -0.206789    0.356712   -0.197160       0.002367
siesta:   58   -0.103815    0.415921   -0.197160       0.002367
siesta:   59   -0.000841    0.475130   -0.197160       0.002367
siesta:   60    0.102132    0.534339   -0.197160       0.002367
siesta:   61    0.205106    0.593548   -0.197160       0.002367
siesta:   62    0.308080    0.652757   -0.197160       0.002367
siesta:   63    0.411054    0.711966   -0.197160       0.002367
siesta:   64    0.514028    0.771175   -0.197160       0.002367
siesta:   65    0.617001    0.830384   -0.197160       0.002367
siesta:   66   -0.618895    0.238658   -0.197160       0.002367
siesta:   67   -0.515921    0.297867   -0.197160       0.002367
siesta:   68   -0.412947    0.357076   -0.197160       0.002367
siesta:   69   -0.309973    0.416285   -0.197160       0.002367
siesta:   70   -0.206999    0.475494   -0.197160       0.002367
siesta:   71   -0.104026    0.534703   -0.197160       0.002367
siesta:   72   -0.001052    0.593912   -0.197160       0.002367
siesta:   73    0.101922    0.653121   -0.197160       0.002367
siesta:   74    0.204896    0.712330   -0.197160       0.002367
siesta:   75    0.307870    0.771539   -0.197160       0.002367
siesta:   76    0.410844    0.830749   -0.197160       0.002367
siesta:   77    0.513817    0.889958   -0.197160       0.002367
siesta:   78    0.616791    0.949167   -0.197160       0.002367
siesta:   79   -0.619105    0.357440   -0.197160       0.002367
siesta:   80   -0.516131    0.416649   -0.197160       0.002367
siesta:   81   -0.413157    0.475859   -0.197160       0.002367
siesta:   82   -0.310184    0.535068   -0.197160       0.002367
siesta:   83   -0.207210    0.594277   -0.197160       0.002367
siesta:   84   -0.104236    0.653486   -0.197160       0.002367
siesta:   85   -0.001262    0.712695   -0.197160       0.002367
siesta:   86    0.101712    0.771904   -0.197160       0.002367
siesta:   87    0.204686    0.831113   -0.197160       0.002367
siesta:   88    0.307659    0.890322   -0.197160       0.002367
siesta:   89    0.410633    0.949531   -0.197160       0.002367
siesta:   90    0.513607    1.008740   -0.197160       0.002367
siesta:   91    0.616581    1.067949   -0.197160       0.002367
siesta:   92   -0.617843   -0.355254   -0.098580       0.001183
siesta:   93   -0.514869   -0.296045   -0.098580       0.001183
siesta:   94   -0.411895   -0.236836   -0.098580       0.001183
siesta:   95   -0.308921   -0.177627   -0.098580       0.001183
siesta:   96   -0.205948   -0.118418   -0.098580       0.001183
siesta:   97   -0.102974   -0.059209   -0.098580       0.001183
siesta:   98    0.000000    0.000000   -0.098580       0.001183
siesta:   99    0.102974    0.059209   -0.098580       0.001183
siesta:  100    0.205948    0.118418   -0.098580       0.001183
siesta:  101    0.308921    0.177627   -0.098580       0.001183
siesta:  102    0.411895    0.236836   -0.098580       0.001183
siesta:  103    0.514869    0.296045   -0.098580       0.001183
siesta:  104    0.617843    0.355254   -0.098580       0.001183
siesta:  105   -0.618053   -0.236472   -0.098580       0.002367
siesta:  106   -0.515079   -0.177263   -0.098580       0.002367
siesta:  107   -0.412106   -0.118054   -0.098580       0.002367
siesta:  108   -0.309132   -0.058845   -0.098580       0.002367
siesta:  109   -0.206158    0.000364   -0.098580       0.002367
siesta:  110   -0.103184    0.059573   -0.098580       0.002367
siesta:  111   -0.000210    0.118782   -0.098580       0.002367
siesta:  112    0.102763    0.177992   -0.098580       0.002367
siesta:  113    0.205737    0.237201   -0.098580       0.002367
siesta:  114    0.308711    0.296410   -0.098580       0.002367
siesta:  115    0.411685    0.355619   -0.098580       0.002367
siesta:  116    0.514659    0.414828   -0.098580       0.002367
siesta:  117    0.617633    0.474037   -0.098580       0.002367
siesta:  118   -0.618264   -0.117689   -0.098580       0.002367
siesta:  119   -0.515290   -0.058480   -0.098580       0.002367
siesta:  120   -0.412316    0.000729   -0.098580       0.002367
siesta:  121   -0.309342    0.059938   -0.098580       0.002367
siesta:  122   -0.206368    0.119147   -0.098580       0.002367
siesta:  123   -0.103395    0.178356   -0.098580       0.002367
siesta:  124   -0.000421    0.237565   -0.098580       0.002367
siesta:  125    0.102553    0.296774   -0.098580       0.002367
siesta:  126    0.205527    0.355983   -0.098580       0.002367
siesta:  127    0.308501    0.415192   -0.098580       0.002367
siesta:  128    0.411475    0.474401   -0.098580       0.002367
siesta:  129    0.514448    0.533610   -0.098580       0.002367
siesta:  130    0.617422    0.592819   -0.098580       0.002367
siesta:  131   -0.618474    0.001093   -0.098580       0.002367
siesta:  132   -0.515500    0.060302   -0.098580       0.002367
siesta:  133   -0.412526    0.119511   -0.098580       0.002367
siesta:  134   -0.309552    0.178720   -0.098580       0.002367
siesta:  135   -0.206579    0.237929   -0.098580       0.002367
siesta:  136   -0.103605    0.297138   -0.098580       0.002367
siesta:  137   -0.000631    0.356347   -0.098580       0.002367
siesta:  138    0.102343    0.415556   -0.098580       0.002367
siesta:  139    0.205317    0.474765   -0.098580       0.002367
siesta:  140    0.308290    0.533975   -0.098580       0.002367
siesta:  141    0.411264    0.593184   -0.098580       0.002367
siesta:  142    0.514238    0.652393   -0.098580       0.002367
siesta:  143    0.617212    0.711602   -0.098580       0.002367
siesta:  144   -0.618684    0.119875   -0.098580       0.002367
siesta:  145   -0.515710    0.179085   -0.098580       0.002367
siesta:  146   -0.412737    0.238294   -0.098580       0.002367
siesta:  147   -0.309763    0.297503   -0.098580       0.002367
siesta:  148   -0.206789    0.356712   -0.098580       0.002367
siesta:  149   -0.103815    0.415921   -0.098580       0.002367
siesta:  150   -0.000841    0.475130   -0.098580       0.002367
siesta:  151    0.102132    0.534339   -0.098580       0.002367
siesta:  152    0.205106    0.593548   -0.098580       0.002367
siesta:  153    0.308080    0.652757   -0.098580       0.002367
siesta:  154    0.411054    0.711966   -0.098580       0.002367
siesta:  155    0.514028    0.771175   -0.098580       0.002367
siesta:  156    0.617001    0.830384   -0.098580       0.002367
siesta:  157   -0.618895    0.238658   -0.098580       0.002367
siesta:  158   -0.515921    0.297867   -0.098580       0.002367
siesta:  159   -0.412947    0.357076   -0.098580       0.002367
siesta:  160   -0.309973    0.416285   -0.098580       0.002367
siesta:  161   -0.206999    0.475494   -0.098580       0.002367
siesta:  162   -0.104026    0.534703   -0.098580       0.002367
siesta:  163   -0.001052    0.593912   -0.098580       0.002367
siesta:  164    0.101922    0.653121   -0.098580       0.002367
siesta:  165    0.204896    0.712330   -0.098580       0.002367
siesta:  166    0.307870    0.771539   -0.098580       0.002367
siesta:  167    0.410844    0.830749   -0.098580       0.002367
siesta:  168    0.513817    0.889958   -0.098580       0.002367
siesta:  169    0.616791    0.949167   -0.098580       0.002367
siesta:  170   -0.619105    0.357440   -0.098580       0.002367
siesta:  171   -0.516131    0.416649   -0.098580       0.002367
siesta:  172   -0.413157    0.475859   -0.098580       0.002367
siesta:  173   -0.310184    0.535068   -0.098580       0.002367
siesta:  174   -0.207210    0.594277   -0.098580       0.002367
siesta:  175   -0.104236    0.653486   -0.098580       0.002367
siesta:  176   -0.001262    0.712695   -0.098580       0.002367
siesta:  177    0.101712    0.771904   -0.098580       0.002367
siesta:  178    0.204686    0.831113   -0.098580       0.002367
siesta:  179    0.307659    0.890322   -0.098580       0.002367
siesta:  180    0.410633    0.949531   -0.098580       0.002367
siesta:  181    0.513607    1.008740   -0.098580       0.002367
siesta:  182    0.616581    1.067949   -0.098580       0.002367
siesta:  183   -0.617843   -0.355254    0.000000       0.001183
siesta:  184   -0.514869   -0.296045    0.000000       0.001183
siesta:  185   -0.411895   -0.236836    0.000000       0.001183
siesta:  186   -0.308921   -0.177627    0.000000       0.001183
siesta:  187   -0.205948   -0.118418    0.000000       0.001183
siesta:  188   -0.102974   -0.059209    0.000000       0.001183
siesta:  189    0.000000    0.000000    0.000000       0.001183
siesta:  190    0.102974    0.059209    0.000000       0.001183
siesta:  191    0.205948    0.118418    0.000000       0.001183
siesta:  192    0.308921    0.177627    0.000000       0.001183
siesta:  193    0.411895    0.236836    0.000000       0.001183
siesta:  194    0.514869    0.296045    0.000000       0.001183
siesta:  195    0.617843    0.355254    0.000000       0.001183
siesta:  196   -0.618053   -0.236472    0.000000       0.002367
siesta:  197   -0.515079   -0.177263    0.000000       0.002367
siesta:  198   -0.412106   -0.118054    0.000000       0.002367
siesta:  199   -0.309132   -0.058845    0.000000       0.002367
siesta:  200   -0.206158    0.000364    0.000000       0.002367
siesta:  201   -0.103184    0.059573    0.000000       0.002367
siesta:  202   -0.000210    0.118782    0.000000       0.002367
siesta:  203    0.102763    0.177992    0.000000       0.002367
siesta:  204    0.205737    0.237201    0.000000       0.002367
siesta:  205    0.308711    0.296410    0.000000       0.002367
siesta:  206    0.411685    0.355619    0.000000       0.002367
siesta:  207    0.514659    0.414828    0.000000       0.002367
siesta:  208    0.617633    0.474037    0.000000       0.002367
siesta:  209   -0.618264   -0.117689    0.000000       0.002367
siesta:  210   -0.515290   -0.058480    0.000000       0.002367
siesta:  211   -0.412316    0.000729    0.000000       0.002367
siesta:  212   -0.309342    0.059938    0.000000       0.002367
siesta:  213   -0.206368    0.119147    0.000000       0.002367
siesta:  214   -0.103395    0.178356    0.000000       0.002367
siesta:  215   -0.000421    0.237565    0.000000       0.002367
siesta:  216    0.102553    0.296774    0.000000       0.002367
siesta:  217    0.205527    0.355983    0.000000       0.002367
siesta:  218    0.308501    0.415192    0.000000       0.002367
siesta:  219    0.411475    0.474401    0.000000       0.002367
siesta:  220    0.514448    0.533610    0.000000       0.002367
siesta:  221    0.617422    0.592819    0.000000       0.002367
siesta:  222   -0.618474    0.001093    0.000000       0.002367
siesta:  223   -0.515500    0.060302    0.000000       0.002367
siesta:  224   -0.412526    0.119511    0.000000       0.002367
siesta:  225   -0.309552    0.178720    0.000000       0.002367
siesta:  226   -0.206579    0.237929    0.000000       0.002367
siesta:  227   -0.103605    0.297138    0.000000       0.002367
siesta:  228   -0.000631    0.356347    0.000000       0.002367
siesta:  229    0.102343    0.415556    0.000000       0.002367
siesta:  230    0.205317    0.474765    0.000000       0.002367
siesta:  231    0.308290    0.533975    0.000000       0.002367
siesta:  232    0.411264    0.593184    0.000000       0.002367
siesta:  233    0.514238    0.652393    0.000000       0.002367
siesta:  234    0.617212    0.711602    0.000000       0.002367
siesta:  235   -0.618684    0.119875    0.000000       0.002367
siesta:  236   -0.515710    0.179085    0.000000       0.002367
siesta:  237   -0.412737    0.238294    0.000000       0.002367
siesta:  238   -0.309763    0.297503    0.000000       0.002367
siesta:  239   -0.206789    0.356712    0.000000       0.002367
siesta:  240   -0.103815    0.415921    0.000000       0.002367
siesta:  241   -0.000841    0.475130    0.000000       0.002367
siesta:  242    0.102132    0.534339    0.000000       0.002367
siesta:  243    0.205106    0.593548    0.000000       0.002367
siesta:  244    0.308080    0.652757    0.000000       0.002367
siesta:  245    0.411054    0.711966    0.000000       0.002367
siesta:  246    0.514028    0.771175    0.000000       0.002367
siesta:  247    0.617001    0.830384    0.000000       0.002367
siesta:  248   -0.618895    0.238658    0.000000       0.002367
siesta:  249   -0.515921    0.297867    0.000000       0.002367
siesta:  250   -0.412947    0.357076    0.000000       0.002367
siesta:  251   -0.309973    0.416285    0.000000       0.002367
siesta:  252   -0.206999    0.475494    0.000000       0.002367
siesta:  253   -0.104026    0.534703    0.000000       0.002367
siesta:  254   -0.001052    0.593912    0.000000       0.002367
siesta:  255    0.101922    0.653121    0.000000       0.002367
siesta:  256    0.204896    0.712330    0.000000       0.002367
siesta:  257    0.307870    0.771539    0.000000       0.002367
siesta:  258    0.410844    0.830749    0.000000       0.002367
siesta:  259    0.513817    0.889958    0.000000       0.002367
siesta:  260    0.616791    0.949167    0.000000       0.002367
siesta:  261   -0.619105    0.357440    0.000000       0.002367
siesta:  262   -0.516131    0.416649    0.000000       0.002367
siesta:  263   -0.413157    0.475859    0.000000       0.002367
siesta:  264   -0.310184    0.535068    0.000000       0.002367
siesta:  265   -0.207210    0.594277    0.000000       0.002367
siesta:  266   -0.104236    0.653486    0.000000       0.002367
siesta:  267   -0.001262    0.712695    0.000000       0.002367
siesta:  268    0.101712    0.771904    0.000000       0.002367
siesta:  269    0.204686    0.831113    0.000000       0.002367
siesta:  270    0.307659    0.890322    0.000000       0.002367
siesta:  271    0.410633    0.949531    0.000000       0.002367
siesta:  272    0.513607    1.008740    0.000000       0.002367
siesta:  273    0.616581    1.067949    0.000000       0.002367
siesta:  274   -0.617843   -0.355254    0.098580       0.001183
siesta:  275   -0.514869   -0.296045    0.098580       0.001183
siesta:  276   -0.411895   -0.236836    0.098580       0.001183
siesta:  277   -0.308921   -0.177627    0.098580       0.001183
siesta:  278   -0.205948   -0.118418    0.098580       0.001183
siesta:  279   -0.102974   -0.059209    0.098580       0.001183
siesta:  280    0.000000    0.000000    0.098580       0.001183
siesta:  281    0.102974    0.059209    0.098580       0.001183
siesta:  282    0.205948    0.118418    0.098580       0.001183
siesta:  283    0.308921    0.177627    0.098580       0.001183
siesta:  284    0.411895    0.236836    0.098580       0.001183
siesta:  285    0.514869    0.296045    0.098580       0.001183
siesta:  286    0.617843    0.355254    0.098580       0.001183
siesta:  287   -0.618053   -0.236472    0.098580       0.002367
siesta:  288   -0.515079   -0.177263    0.098580       0.002367
siesta:  289   -0.412106   -0.118054    0.098580       0.002367
siesta:  290   -0.309132   -0.058845    0.098580       0.002367
siesta:  291   -0.206158    0.000364    0.098580       0.002367
siesta:  292   -0.103184    0.059573    0.098580       0.002367
siesta:  293   -0.000210    0.118782    0.098580       0.002367
siesta:  294    0.102763    0.177992    0.098580       0.002367
siesta:  295    0.205737    0.237201    0.098580       0.002367
siesta:  296    0.308711    0.296410    0.098580       0.002367
siesta:  297    0.411685    0.355619    0.098580       0.002367
siesta:  298    0.514659    0.414828    0.098580       0.002367
siesta:  299    0.617633    0.474037    0.098580       0.002367
siesta:  300   -0.618264   -0.117689    0.098580       0.002367
siesta:  301   -0.515290   -0.058480    0.098580       0.002367
siesta:  302   -0.412316    0.000729    0.098580       0.002367
siesta:  303   -0.309342    0.059938    0.098580       0.002367
siesta:  304   -0.206368    0.119147    0.098580       0.002367
siesta:  305   -0.103395    0.178356    0.098580       0.002367
siesta:  306   -0.000421    0.237565    0.098580       0.002367
siesta:  307    0.102553    0.296774    0.098580       0.002367
siesta:  308    0.205527    0.355983    0.098580       0.002367
siesta:  309    0.308501    0.415192    0.098580       0.002367
siesta:  310    0.411475    0.474401    0.098580       0.002367
siesta:  311    0.514448    0.533610    0.098580       0.002367
siesta:  312    0.617422    0.592819    0.098580       0.002367
siesta:  313   -0.618474    0.001093    0.098580       0.002367
siesta:  314   -0.515500    0.060302    0.098580       0.002367
siesta:  315   -0.412526    0.119511    0.098580       0.002367
siesta:  316   -0.309552    0.178720    0.098580       0.002367
siesta:  317   -0.206579    0.237929    0.098580       0.002367
siesta:  318   -0.103605    0.297138    0.098580       0.002367
siesta:  319   -0.000631    0.356347    0.098580       0.002367
siesta:  320    0.102343    0.415556    0.098580       0.002367
siesta:  321    0.205317    0.474765    0.098580       0.002367
siesta:  322    0.308290    0.533975    0.098580       0.002367
siesta:  323    0.411264    0.593184    0.098580       0.002367
siesta:  324    0.514238    0.652393    0.098580       0.002367
siesta:  325    0.617212    0.711602    0.098580       0.002367
siesta:  326   -0.618684    0.119875    0.098580       0.002367
siesta:  327   -0.515710    0.179085    0.098580       0.002367
siesta:  328   -0.412737    0.238294    0.098580       0.002367
siesta:  329   -0.309763    0.297503    0.098580       0.002367
siesta:  330   -0.206789    0.356712    0.098580       0.002367
siesta:  331   -0.103815    0.415921    0.098580       0.002367
siesta:  332   -0.000841    0.475130    0.098580       0.002367
siesta:  333    0.102132    0.534339    0.098580       0.002367
siesta:  334    0.205106    0.593548    0.098580       0.002367
siesta:  335    0.308080    0.652757    0.098580       0.002367
siesta:  336    0.411054    0.711966    0.098580       0.002367
siesta:  337    0.514028    0.771175    0.098580       0.002367
siesta:  338    0.617001    0.830384    0.098580       0.002367
siesta:  339   -0.618895    0.238658    0.098580       0.002367
siesta:  340   -0.515921    0.297867    0.098580       0.002367
siesta:  341   -0.412947    0.357076    0.098580       0.002367
siesta:  342   -0.309973    0.416285    0.098580       0.002367
siesta:  343   -0.206999    0.475494    0.098580       0.002367
siesta:  344   -0.104026    0.534703    0.098580       0.002367
siesta:  345   -0.001052    0.593912    0.098580       0.002367
siesta:  346    0.101922    0.653121    0.098580       0.002367
siesta:  347    0.204896    0.712330    0.098580       0.002367
siesta:  348    0.307870    0.771539    0.098580       0.002367
siesta:  349    0.410844    0.830749    0.098580       0.002367
siesta:  350    0.513817    0.889958    0.098580       0.002367
siesta:  351    0.616791    0.949167    0.098580       0.002367
siesta:  352   -0.619105    0.357440    0.098580       0.002367
siesta:  353   -0.516131    0.416649    0.098580       0.002367
siesta:  354   -0.413157    0.475858    0.098580       0.002367
siesta:  355   -0.310184    0.535068    0.098580       0.002367
siesta:  356   -0.207210    0.594277    0.098580       0.002367
siesta:  357   -0.104236    0.653486    0.098580       0.002367
siesta:  358   -0.001262    0.712695    0.098580       0.002367
siesta:  359    0.101712    0.771904    0.098580       0.002367
siesta:  360    0.204686    0.831113    0.098580       0.002367
siesta:  361    0.307659    0.890322    0.098580       0.002367
siesta:  362    0.410633    0.949531    0.098580       0.002367
siesta:  363    0.513607    1.008740    0.098580       0.002367
siesta:  364    0.616581    1.067949    0.098580       0.002367
siesta:  365   -0.617843   -0.355254    0.197160       0.001183
siesta:  366   -0.514869   -0.296045    0.197160       0.001183
siesta:  367   -0.411895   -0.236836    0.197160       0.001183
siesta:  368   -0.308921   -0.177627    0.197160       0.001183
siesta:  369   -0.205948   -0.118418    0.197160       0.001183
siesta:  370   -0.102974   -0.059209    0.197160       0.001183
siesta:  371    0.000000    0.000000    0.197160       0.001183
siesta:  372    0.102974    0.059209    0.197160       0.001183
siesta:  373    0.205948    0.118418    0.197160       0.001183
siesta:  374    0.308921    0.177627    0.197160       0.001183
siesta:  375    0.411895    0.236836    0.197160       0.001183
siesta:  376    0.514869    0.296045    0.197160       0.001183
siesta:  377    0.617843    0.355254    0.197160       0.001183
siesta:  378   -0.618053   -0.236472    0.197160       0.002367
siesta:  379   -0.515079   -0.177263    0.197160       0.002367
siesta:  380   -0.412106   -0.118054    0.197160       0.002367
siesta:  381   -0.309132   -0.058845    0.197160       0.002367
siesta:  382   -0.206158    0.000364    0.197160       0.002367
siesta:  383   -0.103184    0.059573    0.197160       0.002367
siesta:  384   -0.000210    0.118782    0.197160       0.002367
siesta:  385    0.102763    0.177992    0.197160       0.002367
siesta:  386    0.205737    0.237201    0.197160       0.002367
siesta:  387    0.308711    0.296410    0.197160       0.002367
siesta:  388    0.411685    0.355619    0.197160       0.002367
siesta:  389    0.514659    0.414828    0.197160       0.002367
siesta:  390    0.617633    0.474037    0.197160       0.002367
siesta:  391   -0.618264   -0.117689    0.197160       0.002367
siesta:  392   -0.515290   -0.058480    0.197160       0.002367
siesta:  393   -0.412316    0.000729    0.197160       0.002367
siesta:  394   -0.309342    0.059938    0.197160       0.002367
siesta:  395   -0.206368    0.119147    0.197160       0.002367
siesta:  396   -0.103395    0.178356    0.197160       0.002367
siesta:  397   -0.000421    0.237565    0.197160       0.002367
siesta:  398    0.102553    0.296774    0.197160       0.002367
siesta:  399    0.205527    0.355983    0.197160       0.002367
siesta:  400    0.308501    0.415192    0.197160       0.002367
siesta:  401    0.411475    0.474401    0.197160       0.002367
siesta:  402    0.514448    0.533610    0.197160       0.002367
siesta:  403    0.617422    0.592819    0.197160       0.002367
siesta:  404   -0.618474    0.001093    0.197160       0.002367
siesta:  405   -0.515500    0.060302    0.197160       0.002367
siesta:  406   -0.412526    0.119511    0.197160       0.002367
siesta:  407   -0.309552    0.178720    0.197160       0.002367
siesta:  408   -0.206579    0.237929    0.197160       0.002367
siesta:  409   -0.103605    0.297138    0.197160       0.002367
siesta:  410   -0.000631    0.356347    0.197160       0.002367
siesta:  411    0.102343    0.415556    0.197160       0.002367
siesta:  412    0.205317    0.474765    0.197160       0.002367
siesta:  413    0.308290    0.533975    0.197160       0.002367
siesta:  414    0.411264    0.593184    0.197160       0.002367
siesta:  415    0.514238    0.652393    0.197160       0.002367
siesta:  416    0.617212    0.711602    0.197160       0.002367
siesta:  417   -0.618684    0.119875    0.197160       0.002367
siesta:  418   -0.515710    0.179085    0.197160       0.002367
siesta:  419   -0.412737    0.238294    0.197160       0.002367
siesta:  420   -0.309763    0.297503    0.197160       0.002367
siesta:  421   -0.206789    0.356712    0.197160       0.002367
siesta:  422   -0.103815    0.415921    0.197160       0.002367
siesta:  423   -0.000841    0.475130    0.197160       0.002367
siesta:  424    0.102132    0.534339    0.197160       0.002367
siesta:  425    0.205106    0.593548    0.197160       0.002367
siesta:  426    0.308080    0.652757    0.197160       0.002367
siesta:  427    0.411054    0.711966    0.197160       0.002367
siesta:  428    0.514028    0.771175    0.197160       0.002367
siesta:  429    0.617001    0.830384    0.197160       0.002367
siesta:  430   -0.618895    0.238658    0.197160       0.002367
siesta:  431   -0.515921    0.297867    0.197160       0.002367
siesta:  432   -0.412947    0.357076    0.197160       0.002367
siesta:  433   -0.309973    0.416285    0.197160       0.002367
siesta:  434   -0.206999    0.475494    0.197160       0.002367
siesta:  435   -0.104026    0.534703    0.197160       0.002367
siesta:  436   -0.001052    0.593912    0.197160       0.002367
siesta:  437    0.101922    0.653121    0.197160       0.002367
siesta:  438    0.204896    0.712330    0.197160       0.002367
siesta:  439    0.307870    0.771539    0.197160       0.002367
siesta:  440    0.410844    0.830749    0.197160       0.002367
siesta:  441    0.513817    0.889958    0.197160       0.002367
siesta:  442    0.616791    0.949167    0.197160       0.002367
siesta:  443   -0.619105    0.357440    0.197160       0.002367
siesta:  444   -0.516131    0.416649    0.197160       0.002367
siesta:  445   -0.413157    0.475858    0.197160       0.002367
siesta:  446   -0.310184    0.535068    0.197160       0.002367
siesta:  447   -0.207210    0.594277    0.197160       0.002367
siesta:  448   -0.104236    0.653486    0.197160       0.002367
siesta:  449   -0.001262    0.712695    0.197160       0.002367
siesta:  450    0.101712    0.771904    0.197160       0.002367
siesta:  451    0.204686    0.831113    0.197160       0.002367
siesta:  452    0.307659    0.890322    0.197160       0.002367
siesta:  453    0.410633    0.949531    0.197160       0.002367
siesta:  454    0.513607    1.008740    0.197160       0.002367
siesta:  455    0.616581    1.067949    0.197160       0.002367

siesta: k-grid: Number of k-points =   455
siesta: k-grid: Cutoff (effective) =    16.128 Ang
siesta: k-grid: Supercell and displacements
siesta: k-grid:   13   0   0      0.000
siesta: k-grid:    0  13   0      0.000
siesta: k-grid:    0   0   5      0.000
Naive supercell factors:     8    8    3

superc: Internal auxiliary supercell:     8 x     8 x     3  =     192
superc: Number of atoms, orbitals, and projectors:    768 16896  6912

outcell: Unit cell vectors (Ang):
        2.481239    0.004394    0.000000
       -1.236814    2.151014    0.000000
        0.000000    0.000000    6.745618

outcell: Cell vector modules (Ang)   :    2.481243    2.481244    6.745618
outcell: Cell angles (23,13,12) (deg):     90.0000     90.0000    119.7971
outcell: Cell volume (Ang**3)        :     36.0392

InitMesh: MESH =    16 x    16 x    48 =       12288
InitMesh: Mesh cutoff (required, used) =   100.000   139.940 Ry

siesta: iscf   Eharris(eV)      E_KS(eV)   FreeEng(eV)   dDmax  Ef(eV)
siesta:    1     -630.6088     -630.2929     -630.2929  0.1430 -5.9374
siesta:    2     -630.5965     -630.5868     -630.5868  0.0071 -6.0143
siesta:    3     -630.5947     -630.5918     -630.5918  0.0036 -6.0020
siesta:    4     -630.5936     -630.5927     -630.5927  0.0007 -5.9853
siesta:    5     -630.5935     -630.5934     -630.5934  0.0001 -5.9861
[...]
siesta:  165    0.207666    0.719502   -0.099091       0.002367
siesta:  166    0.311525    0.779454   -0.099091       0.002367
siesta:  167    0.415384    0.839405   -0.099091       0.002367
siesta:  168    0.519243    0.899356   -0.099091       0.002367
siesta:  169    0.623102    0.959307   -0.099091       0.002367
siesta:  170   -0.623217    0.359814   -0.099091       0.002367
siesta:  171   -0.519357    0.419765   -0.099091       0.002367
siesta:  172   -0.415498    0.479716   -0.099091       0.002367
siesta:  173   -0.311639    0.539667   -0.099091       0.002367
siesta:  174   -0.207780    0.599618   -0.099091       0.002367
siesta:  175   -0.103921    0.659569   -0.099091       0.002367
siesta:  176   -0.000062    0.719520   -0.099091       0.002367
siesta:  177    0.103797    0.779472   -0.099091       0.002367
siesta:  178    0.207656    0.839423   -0.099091       0.002367
siesta:  179    0.311515    0.899374   -0.099091       0.002367
siesta:  180    0.415374    0.959325   -0.099091       0.002367
siesta:  181    0.519233    1.019276   -0.099091       0.002367
siesta:  182    0.623092    1.079227   -0.099091       0.002367
siesta:  183   -0.623154   -0.359706    0.000000       0.001183
siesta:  184   -0.519295   -0.299755    0.000000       0.001183
siesta:  185   -0.415436   -0.239804    0.000000       0.001183
siesta:  186   -0.311577   -0.179853    0.000000       0.001183
siesta:  187   -0.207718   -0.119902    0.000000       0.001183
siesta:  188   -0.103859   -0.059951    0.000000       0.001183
siesta:  189    0.000000    0.000000    0.000000       0.001183
siesta:  190    0.103859    0.059951    0.000000       0.001183
siesta:  191    0.207718    0.119902    0.000000       0.001183
siesta:  192    0.311577    0.179853    0.000000       0.001183
siesta:  193    0.415436    0.239804    0.000000       0.001183
siesta:  194    0.519295    0.299755    0.000000       0.001183
siesta:  195    0.623154    0.359706    0.000000       0.001183
siesta:  196   -0.623165   -0.239786    0.000000       0.002367
siesta:  197   -0.519306   -0.179835    0.000000       0.002367
siesta:  198   -0.415447   -0.119884    0.000000       0.002367
siesta:  199   -0.311587   -0.059933    0.000000       0.002367
siesta:  200   -0.207728    0.000018    0.000000       0.002367
siesta:  201   -0.103869    0.059969    0.000000       0.002367
siesta:  202   -0.000010    0.119920    0.000000       0.002367
siesta:  203    0.103849    0.179871    0.000000       0.002367
siesta:  204    0.207708    0.239822    0.000000       0.002367
siesta:  205    0.311567    0.299773    0.000000       0.002367
siesta:  206    0.415426    0.359724    0.000000       0.002367
siesta:  207    0.519285    0.419675    0.000000       0.002367
siesta:  208    0.623144    0.479626    0.000000       0.002367
siesta:  209   -0.623175   -0.119866    0.000000       0.002367
siesta:  210   -0.519316   -0.059915    0.000000       0.002367
siesta:  211   -0.415457    0.000036    0.000000       0.002367
siesta:  212   -0.311598    0.059987    0.000000       0.002367
siesta:  213   -0.207739    0.119938    0.000000       0.002367
siesta:  214   -0.103880    0.179889    0.000000       0.002367
siesta:  215   -0.000021    0.239840    0.000000       0.002367
siesta:  216    0.103838    0.299791    0.000000       0.002367
siesta:  217    0.207697    0.359742    0.000000       0.002367
siesta:  218    0.311556    0.419693    0.000000       0.002367
siesta:  219    0.415415    0.479644    0.000000       0.002367
siesta:  220    0.519274    0.539595    0.000000       0.002367
siesta:  221    0.623133    0.599546    0.000000       0.002367
siesta:  222   -0.623185    0.000054    0.000000       0.002367
siesta:  223   -0.519326    0.060005    0.000000       0.002367
siesta:  224   -0.415467    0.119956    0.000000       0.002367
siesta:  225   -0.311608    0.179907    0.000000       0.002367
siesta:  226   -0.207749    0.239858    0.000000       0.002367
siesta:  227   -0.103890    0.299809    0.000000       0.002367
siesta:  228   -0.000031    0.359760    0.000000       0.002367
siesta:  229    0.103828    0.419711    0.000000       0.002367
siesta:  230    0.207687    0.479662    0.000000       0.002367
siesta:  231    0.311546    0.539613    0.000000       0.002367
siesta:  232    0.415405    0.599564    0.000000       0.002367
siesta:  233    0.519264    0.659515    0.000000       0.002367
siesta:  234    0.623123    0.719466    0.000000       0.002367
siesta:  235   -0.623196    0.119974    0.000000       0.002367
siesta:  236   -0.519337    0.179925    0.000000       0.002367
siesta:  237   -0.415478    0.239876    0.000000       0.002367
siesta:  238   -0.311619    0.299827    0.000000       0.002367
siesta:  239   -0.207760    0.359778    0.000000       0.002367
siesta:  240   -0.103901    0.419729    0.000000       0.002367
siesta:  241   -0.000042    0.479680    0.000000       0.002367
siesta:  242    0.103817    0.539631    0.000000       0.002367
siesta:  243    0.207677    0.599582    0.000000       0.002367
siesta:  244    0.311536    0.659533    0.000000       0.002367
siesta:  245    0.415395    0.719484    0.000000       0.002367
siesta:  246    0.519254    0.779436    0.000000       0.002367
siesta:  247    0.623113    0.839387    0.000000       0.002367
siesta:  248   -0.623206    0.239894    0.000000       0.002367
siesta:  249   -0.519347    0.299845    0.000000       0.002367
siesta:  250   -0.415488    0.359796    0.000000       0.002367
siesta:  251   -0.311629    0.419747    0.000000       0.002367
siesta:  252   -0.207770    0.479698    0.000000       0.002367
siesta:  253   -0.103911    0.539649    0.000000       0.002367
siesta:  254   -0.000052    0.599600    0.000000       0.002367
siesta:  255    0.103807    0.659551    0.000000       0.002367
siesta:  256    0.207666    0.719502    0.000000       0.002367
siesta:  257    0.311525    0.779454    0.000000       0.002367
siesta:  258    0.415384    0.839405    0.000000       0.002367
siesta:  259    0.519243    0.899356    0.000000       0.002367
siesta:  260    0.623102    0.959307    0.000000       0.002367
siesta:  261   -0.623217    0.359814    0.000000       0.002367
siesta:  262   -0.519357    0.419765    0.000000       0.002367
siesta:  263   -0.415498    0.479716    0.000000       0.002367
siesta:  264   -0.311639    0.539667    0.000000       0.002367
siesta:  265   -0.207780    0.599618    0.000000       0.002367
siesta:  266   -0.103921    0.659569    0.000000       0.002367
siesta:  267   -0.000062    0.719520    0.000000       0.002367
siesta:  268    0.103797    0.779472    0.000000       0.002367
siesta:  269    0.207656    0.839423    0.000000       0.002367
siesta:  270    0.311515    0.899374    0.000000       0.002367
siesta:  271    0.415374    0.959325    0.000000       0.002367
siesta:  272    0.519233    1.019276    0.000000       0.002367
siesta:  273    0.623092    1.079227    0.000000       0.002367
siesta:  274   -0.623154   -0.359706    0.099091       0.001183
siesta:  275   -0.519295   -0.299755    0.099091       0.001183
siesta:  276   -0.415436   -0.239804    0.099091       0.001183
siesta:  277   -0.311577   -0.179853    0.099091       0.001183
siesta:  278   -0.207718   -0.119902    0.099091       0.001183
siesta:  279   -0.103859   -0.059951    0.099091       0.001183
siesta:  280    0.000000    0.000000    0.099091       0.001183
siesta:  281    0.103859    0.059951    0.099091       0.001183
siesta:  282    0.207718    0.119902    0.099091       0.001183
siesta:  283    0.311577    0.179853    0.099091       0.001183
siesta:  284    0.415436    0.239804    0.099091       0.001183
siesta:  285    0.519295    0.299755    0.099091       0.001183
siesta:  286    0.623154    0.359706    0.099091       0.001183
siesta:  287   -0.623165   -0.239786    0.099091       0.002367
siesta:  288   -0.519306   -0.179835    0.099091       0.002367
siesta:  289   -0.415447   -0.119884    0.099091       0.002367
siesta:  290   -0.311587   -0.059933    0.099091       0.002367
siesta:  291   -0.207728    0.000018    0.099091       0.002367
siesta:  292   -0.103869    0.059969    0.099091       0.002367
siesta:  293   -0.000010    0.119920    0.099091       0.002367
siesta:  294    0.103849    0.179871    0.099091       0.002367
siesta:  295    0.207708    0.239822    0.099091       0.002367
siesta:  296    0.311567    0.299773    0.099091       0.002367
siesta:  297    0.415426    0.359724    0.099091       0.002367
siesta:  298    0.519285    0.419675    0.099091       0.002367
siesta:  299    0.623144    0.479626    0.099091       0.002367
siesta:  300   -0.623175   -0.119866    0.099091       0.002367
siesta:  301   -0.519316   -0.059915    0.099091       0.002367
siesta:  302   -0.415457    0.000036    0.099091       0.002367
siesta:  303   -0.311598    0.059987    0.099091       0.002367
siesta:  304   -0.207739    0.119938    0.099091       0.002367
siesta:  305   -0.103880    0.179889    0.099091       0.002367
siesta:  306   -0.000021    0.239840    0.099091       0.002367
siesta:  307    0.103838    0.299791    0.099091       0.002367
siesta:  308    0.207697    0.359742    0.099091       0.002367
siesta:  309    0.311556    0.419693    0.099091       0.002367
siesta:  310    0.415415    0.479644    0.099091       0.002367
siesta:  311    0.519274    0.539595    0.099091       0.002367
siesta:  312    0.623133    0.599546    0.099091       0.002367
siesta:  313   -0.623185    0.000054    0.099091       0.002367
siesta:  314   -0.519326    0.060005    0.099091       0.002367
siesta:  315   -0.415467    0.119956    0.099091       0.002367
siesta:  316   -0.311608    0.179907    0.099091       0.002367
siesta:  317   -0.207749    0.239858    0.099091       0.002367
siesta:  318   -0.103890    0.299809    0.099091       0.002367
siesta:  319   -0.000031    0.359760    0.099091       0.002367
siesta:  320    0.103828    0.419711    0.099091       0.002367
siesta:  321    0.207687    0.479662    0.099091       0.002367
siesta:  322    0.311546    0.539613    0.099091       0.002367
siesta:  323    0.415405    0.599564    0.099091       0.002367
siesta:  324    0.519264    0.659515    0.099091       0.002367
siesta:  325    0.623123    0.719466    0.099091       0.002367
siesta:  326   -0.623196    0.119974    0.099091       0.002367
siesta:  327   -0.519337    0.179925    0.099091       0.002367
siesta:  328   -0.415478    0.239876    0.099091       0.002367
siesta:  329   -0.311619    0.299827    0.099091       0.002367
siesta:  330   -0.207760    0.359778    0.099091       0.002367
siesta:  331   -0.103901    0.419729    0.099091       0.002367
siesta:  332   -0.000042    0.479680    0.099091       0.002367
siesta:  333    0.103817    0.539631    0.099091       0.002367
siesta:  334    0.207677    0.599582    0.099091       0.002367
siesta:  335    0.311536    0.659533    0.099091       0.002367
siesta:  336    0.415395    0.719484    0.099091       0.002367
siesta:  337    0.519254    0.779436    0.099091       0.002367
siesta:  338    0.623113    0.839387    0.099091       0.002367
siesta:  339   -0.623206    0.239894    0.099091       0.002367
siesta:  340   -0.519347    0.299845    0.099091       0.002367
siesta:  341   -0.415488    0.359796    0.099091       0.002367
siesta:  342   -0.311629    0.419747    0.099091       0.002367
siesta:  343   -0.207770    0.479698    0.099091       0.002367
siesta:  344   -0.103911    0.539649    0.099091       0.002367
siesta:  345   -0.000052    0.599600    0.099091       0.002367
siesta:  346    0.103807    0.659551    0.099091       0.002367
siesta:  347    0.207666    0.719502    0.099091       0.002367
siesta:  348    0.311525    0.779454    0.099091       0.002367
siesta:  349    0.415384    0.839405    0.099091       0.002367
siesta:  350    0.519243    0.899356    0.099091       0.002367
siesta:  351    0.623102    0.959307    0.099091       0.002367
siesta:  352   -0.623217    0.359814    0.099091       0.002367
siesta:  353   -0.519357    0.419765    0.099091       0.002367
siesta:  354   -0.415498    0.479716    0.099091       0.002367
siesta:  355   -0.311639    0.539667    0.099091       0.002367
siesta:  356   -0.207780    0.599618    0.099091       0.002367
siesta:  357   -0.103921    0.659569    0.099091       0.002367
siesta:  358   -0.000062    0.719520    0.099091       0.002367
siesta:  359    0.103797    0.779472    0.099091       0.002367
siesta:  360    0.207656    0.839423    0.099091       0.002367
siesta:  361    0.311515    0.899374    0.099091       0.002367
siesta:  362    0.415374    0.959325    0.099091       0.002367
siesta:  363    0.519233    1.019276    0.099091       0.002367
siesta:  364    0.623092    1.079227    0.099091       0.002367
siesta:  365   -0.623154   -0.359706    0.198182       0.001183
siesta:  366   -0.519295   -0.299755    0.198182       0.001183
siesta:  367   -0.415436   -0.239804    0.198182       0.001183
siesta:  368   -0.311577   -0.179853    0.198182       0.001183
siesta:  369   -0.207718   -0.119902    0.198182       0.001183
siesta:  370   -0.103859   -0.059951    0.198182       0.001183
siesta:  371    0.000000    0.000000    0.198182       0.001183
siesta:  372    0.103859    0.059951    0.198182       0.001183
siesta:  373    0.207718    0.119902    0.198182       0.001183
siesta:  374    0.311577    0.179853    0.198182       0.001183
siesta:  375    0.415436    0.239804    0.198182       0.001183
siesta:  376    0.519295    0.299755    0.198182       0.001183
siesta:  377    0.623154    0.359706    0.198182       0.001183
siesta:  378   -0.623165   -0.239786    0.198182       0.002367
siesta:  379   -0.519306   -0.179835    0.198182       0.002367
siesta:  380   -0.415447   -0.119884    0.198182       0.002367
siesta:  381   -0.311587   -0.059933    0.198182       0.002367
siesta:  382   -0.207728    0.000018    0.198182       0.002367
siesta:  383   -0.103869    0.059969    0.198182       0.002367
siesta:  384   -0.000010    0.119920    0.198182       0.002367
siesta:  385    0.103849    0.179871    0.198182       0.002367
siesta:  386    0.207708    0.239822    0.198182       0.002367
siesta:  387    0.311567    0.299773    0.198182       0.002367
siesta:  388    0.415426    0.359724    0.198182       0.002367
siesta:  389    0.519285    0.419675    0.198182       0.002367
siesta:  390    0.623144    0.479626    0.198182       0.002367
siesta:  391   -0.623175   -0.119866    0.198182       0.002367
siesta:  392   -0.519316   -0.059915    0.198182       0.002367
siesta:  393   -0.415457    0.000036    0.198182       0.002367
siesta:  394   -0.311598    0.059987    0.198182       0.002367
siesta:  395   -0.207739    0.119938    0.198182       0.002367
siesta:  396   -0.103880    0.179889    0.198182       0.002367
siesta:  397   -0.000021    0.239840    0.198182       0.002367
siesta:  398    0.103838    0.299791    0.198182       0.002367
siesta:  399    0.207697    0.359742    0.198182       0.002367
siesta:  400    0.311556    0.419693    0.198182       0.002367
siesta:  401    0.415415    0.479644    0.198182       0.002367
siesta:  402    0.519274    0.539595    0.198182       0.002367
siesta:  403    0.623133    0.599546    0.198182       0.002367
siesta:  404   -0.623185    0.000054    0.198182       0.002367
siesta:  405   -0.519326    0.060005    0.198182       0.002367
siesta:  406   -0.415467    0.119956    0.198182       0.002367
siesta:  407   -0.311608    0.179907    0.198182       0.002367
siesta:  408   -0.207749    0.239858    0.198182       0.002367
siesta:  409   -0.103890    0.299809    0.198182       0.002367
siesta:  410   -0.000031    0.359760    0.198182       0.002367
siesta:  411    0.103828    0.419711    0.198182       0.002367
siesta:  412    0.207687    0.479662    0.198182       0.002367
siesta:  413    0.311546    0.539613    0.198182       0.002367
siesta:  414    0.415405    0.599564    0.198182       0.002367
siesta:  415    0.519264    0.659515    0.198182       0.002367
siesta:  416    0.623123    0.719466    0.198182       0.002367
siesta:  417   -0.623196    0.119974    0.198182       0.002367
siesta:  418   -0.519337    0.179925    0.198182       0.002367
siesta:  419   -0.415478    0.239876    0.198182       0.002367
siesta:  420   -0.311619    0.299827    0.198182       0.002367
siesta:  421   -0.207760    0.359778    0.198182       0.002367
siesta:  422   -0.103901    0.419729    0.198182       0.002367
siesta:  423   -0.000042    0.479680    0.198182       0.002367
siesta:  424    0.103817    0.539631    0.198182       0.002367
siesta:  425    0.207677    0.599582    0.198182       0.002367
siesta:  426    0.311536    0.659533    0.198182       0.002367
siesta:  427    0.415395    0.719484    0.198182       0.002367
siesta:  428    0.519254    0.779436    0.198182       0.002367
siesta:  429    0.623113    0.839387    0.198182       0.002367
siesta:  430   -0.623206    0.239894    0.198182       0.002367
siesta:  431   -0.519347    0.299845    0.198182       0.002367
siesta:  432   -0.415488    0.359796    0.198182       0.002367
siesta:  433   -0.311629    0.419747    0.198182       0.002367
siesta:  434   -0.207770    0.479698    0.198182       0.002367
siesta:  435   -0.103911    0.539649    0.198182       0.002367
siesta:  436   -0.000052    0.599600    0.198182       0.002367
siesta:  437    0.103807    0.659551    0.198182       0.002367
siesta:  438    0.207666    0.719502    0.198182       0.002367
siesta:  439    0.311525    0.779454    0.198182       0.002367
siesta:  440    0.415384    0.839405    0.198182       0.002367
siesta:  441    0.519243    0.899356    0.198182       0.002367
siesta:  442    0.623102    0.959307    0.198182       0.002367
siesta:  443   -0.623217    0.359814    0.198182       0.002367
siesta:  444   -0.519357    0.419765    0.198182       0.002367
siesta:  445   -0.415498    0.479716    0.198182       0.002367
siesta:  446   -0.311639    0.539667    0.198182       0.002367
siesta:  447   -0.207780    0.599618    0.198182       0.002367
siesta:  448   -0.103921    0.659569    0.198182       0.002367
siesta:  449   -0.000062    0.719520    0.198182       0.002367
siesta:  450    0.103797    0.779472    0.198182       0.002367
siesta:  451    0.207656    0.839423    0.198182       0.002367
siesta:  452    0.311515    0.899374    0.198182       0.002367
siesta:  453    0.415374    0.959325    0.198182       0.002367
siesta:  454    0.519233    1.019276    0.198182       0.002367
siesta:  455    0.623092    1.079227    0.198182       0.002367

siesta: k-grid: Number of k-points =   455
siesta: k-grid: Cutoff (effective) =    16.006 Ang
siesta: k-grid: Supercell and displacements
siesta: k-grid:   13   0   0      0.000
siesta: k-grid:    0  13   0      0.000
siesta: k-grid:    0   0   5      0.000
Naive supercell factors:     8    8    3

superc: Internal auxiliary supercell:     8 x     8 x     3  =     192
superc: Number of atoms, orbitals, and projectors:    768 16896  6912

outcell: Unit cell vectors (Ang):
        2.462473    0.000213    0.000000
       -1.231052    2.132671    0.000000
        0.000000    0.000000    6.710834

outcell: Cell vector modules (Ang)   :    2.462473    2.462473    6.710834
outcell: Cell angles (23,13,12) (deg):     90.0000     90.0000    119.9901
outcell: Cell volume (Ang**3)        :     35.2447

InitMesh: MESH =    16 x    16 x    48 =       12288
InitMesh: Mesh cutoff (required, used) =   100.000   141.394 Ry

siesta: iscf   Eharris(eV)      E_KS(eV)   FreeEng(eV)   dDmax  Ef(eV)
siesta:    1     -631.1362     -631.1239     -631.1239  0.0030 -5.8248
siesta:    2     -631.1363     -631.1363     -631.1363  0.0004 -5.8275
siesta:    3     -631.1363     -631.1364     -631.1364  0.0002 -5.8272
siesta:    4     -631.1363     -631.1363     -631.1363  0.0000 -5.8267
grdsam: Grid-cell sampling, point   0
job aborted; reason = mpd disappeared
