Siesta Version: siesta-4.0--527
Architecture  : x86_64-linux-n-62-18-14
Compiler flags: mpifort -m64 -fPIC -O3 -march=native -ftree-vectorize -fexpensive-optimizatioons -funroll-loops -fprefetch-loop-arrays -fno-second-underscore 
PP flags      : -I/zdata/groups/common/nicpa/2016-oct/generic/build-tools/1.0/include -I/zdatta/groups/common/nicpa/2016-oct/generic/gmp/6.1.0/include -I/zdata/groups/common/nicpa/2016-oct/generic/mpfr/3.1.4/include -I/zdata/groups/common/nicpa/2016-oct/generic/mpc/1.0.3/include -I/zdata/groups/common/nicpa/2016-oct/generic/isl/0.16.1/include -I/zdata/groups/common/nicpa/2016-oct/generic/gcc/6.2.0/include -I/zdata/groups/common/nicpa/2016-oct/generic/numactl/2.0.11/include -I/zdata/groups/common/nicpa/2016-oct/XeonE5-2665/zlib/1.2.8/gnu-6.2.0/include -I/zdata/groups/common/nicpa/2016-oct/XeonE5-2665/libxml2/2.9.4/gnu-6.2.0/include -I/zdata/groups/common/nicpa/2016-oct/XeonE5-2665/hwloc/1.11.4/gnu-6.2.0/include -I/zdata/groups/common/nicpa/2016-oct/XeonE5-2665/openmpi/2.0.1/gnu-6.2.0/include -I/zdata/groups/common/nicpa/2016-oct/XeonE5-2665/hdf5/1.8.17/gnu-6.2.0/include -I/zdata/groups/common/nicpa/2016-oct/XeonE5-2665/pnetcdf/1.7.0/gnu-6.2.0/include -I/zdata/groups/common/nicpa/2016-oct/XeonE5-2665/netcdf/4.4.1/gnu-6.2.0/include -I/zdata/groups/common/nicpa/2016-oct/XeonE5-2665/flook/0.7.0/gnu-6.2.0/include -I/zdata/groups/common/nicpa/2016-oct/XeonE5-2665/parmetis/4.0.3/gnu-6.2.0/include -I/zdata/groups/common/nicpa/2016-oct/XeonE5-2665/scalapack/204/gnu-6.2.0/include -I/zdata/groups/common/nicpa/2016-oct/XeonE5-2665/openblas/0.2.19/gnu-6.2.0/include -I/zdata/groups/common/nicpa/2016-oct/XeonE5-2665/mumps/5.0.2/gnu-6.2.0/include -I/zdata/groups/common/nicpa/2016-oct/XeonE5-2665/fftw/3.3.5/gnu-6.2.0/include -DMPI -DFC_HAVE_FLUSH -DFC_HAVE_ABORT -DCDF  -DSIESTA__METIS -DSIESTA__MUMPS -DTS_NOCHECKS -DSIESTA__FLOOK  
PARALLEL version
NetCDF support

* Running on    8 nodes in parallel
>> Start of run:   2-JUL-2017  12:00:22

                           ***********************       
                           *  WELCOME TO SIESTA  *       
                           ***********************       

reinit: Reading from standard input
************************** Dump of input data file ****************************
##### GENERAL SYSTEM DESCRIPTORS ##############################################
SystemName	Graphite. VDW-DF. Unconverged test.
SystemLabel     graphite_vdw_df
NumberOfAtoms        4
NumberOfSpecies      1
%block ChemicalSpeciesLabel
    1   6   C.vdw
%endblock ChemicalSpeciesLabel
##### GEOMETRY ################################################################
LatticeConstant 1.0 Ang
%block LatticeParameters
    2.4610    2.4610    6.7080   90.0000   90.0000  120.0000
%endblock LatticeParameters
AtomicCoordinatesFormat Fractional
%block AtomicCoordinatesAndAtomicSpecies
    0.000000000    0.000000000    0.000000000     1
    0.000000000    0.000000000    0.500000000     1
    0.333333333    0.666666667    0.000000000     1
    0.666666667    0.333333333    0.500000000     1
%endblock AtomicCoordinatesAndAtomicSpecies
##### FUNCTIONAL ##############################################################
XC_functional  VDW
XC_authors     VV
##### PRECISION PARAMETERS ####################################################
%block PS.lmax
   C.vdw   2
%endblock PS.lmax
PAO.EnergyShift  50. meV
FilterCutoff    100. Ry
MeshCutoff      100. Ry
KgridCutoff       5. Ang
##### TASK SPECIFIERS #########################################################
DM.UseSaveDM       no
MaxSCFiterations   10
##### OUTPUT OPTIONS ##########################################################
alloc_report_level      2
timer_report_threshold  1.e-4
************************** End of input data file *****************************

reinit: -----------------------------------------------------------------------
reinit: System Name: Graphite. VDW-DF. Unconverged test.
reinit: -----------------------------------------------------------------------
reinit: System Label: graphite_vdw_df                                             
reinit: -----------------------------------------------------------------------

initatom: Reading input for the pseudopotentials and atomic orbitals ----------
 Species number:            1  Label: C.vdw Atomic number:           6
Ground state valence configuration:   2s02  2p02
Reading pseudopotential information in formatted form from C.vdw.psf

Valence configuration for pseudopotential generation:
2s( 2.00) rc: 1.49
2p( 2.00) rc: 1.52
3d( 0.00) rc: 1.52
relmxkb: Read Max KB Ang. Momentum=    2 for species C.vdw

<basis_specs>
===============================================================================
C.vdw                Z=   6    Mass=  12.010        Charge= 0.17977+309
Lmxo=1 Lmxkb= 2    BasisType=split      Semic=F
L=0  Nsemic=0  Cnfigmx=2
          n=1  nzeta=2  polorb=0
            splnorm:   0.15000    
               vcte:    0.0000    
               rinn:    0.0000    
               qcoe:    0.0000    
               qyuk:    0.0000    
               qwid:   0.10000E-01
                rcs:    0.0000      0.0000    
            lambdas:    1.0000      1.0000    
L=1  Nsemic=0  Cnfigmx=2
          n=1  nzeta=2  polorb=1
            splnorm:   0.15000    
               vcte:    0.0000    
               rinn:    0.0000    
               qcoe:    0.0000    
               qyuk:    0.0000    
               qwid:   0.10000E-01
                rcs:    0.0000      0.0000    
            lambdas:    1.0000      1.0000    
-------------------------------------------------------------------------------
L=0  Nkbl=1  erefs: 0.17977+309
L=1  Nkbl=1  erefs: 0.17977+309
L=2  Nkbl=1  erefs: 0.17977+309
===============================================================================
</basis_specs>

Filter: Requested cutoff:  100.000000 Ry
atom: Called for C.vdw                 (Z =   6)

read_vps: Pseudopotential generation method:
read_vps: ATM3.3    Troullier-Martins                       
Total valence charge:    4.00000

xc_check: Exchange-correlation functional:
xc_check: VDW Vydrov-vanVoorhis
xc_check: WARNING: Pseudopotential generated with VDW DRSLL functional
V l=0 = -2*Zval/r beyond r=  1.7692
V l=1 = -2*Zval/r beyond r=  1.7692
V l=2 = -2*Zval/r beyond r=  1.7692
All V_l potentials equal beyond r=  1.5038
This should be close to max(r_c) in ps generation
All pots = -2*Zval/r beyond r=  1.7692

VLOCAL1: 99.0% of the norm of Vloc inside     19.196 Ry
VLOCAL1: 99.9% of the norm of Vloc inside     43.748 Ry
atom: Maximum radius for 4*pi*r*r*local-pseudopot. charge    1.81396
atom: Maximum radius for r*vlocal+2*Zval:    1.56123
GHOST: No ghost state for L =  0
GHOST: No ghost state for L =  1
GHOST: No ghost state for L =  2

KBgen: Kleinman-Bylander projectors: 
   l= 0   rc=  1.955272   el= -1.008343   Ekb=  5.232772   kbcos=  0.315267
   l= 1   rc=  1.955272   el= -0.384904   Ekb= -4.081938   kbcos= -0.351160
   l= 2   rc=  2.990984   el=  0.002326   Ekb= -0.957144   kbcos= -0.008820

KBgen: Total number of  Kleinman-Bylander projectors:    9
atom: -------------------------------------------------------------------------

atom: SANKEY-TYPE ORBITALS:
atom: Selected multiple-zeta basis: split     

SPLIT: Orbitals with angular momentum L= 0

SPLIT: Basis orbitals for state 2s

SPLIT: PAO cut-off radius determined from an
SPLIT: energy shift=  0.003675 Ry

   izeta = 1
                 lambda =    1.000000
                     rc =    4.993604
                 energy =   -1.004489
                kinetic =    0.843989
    potential(screened) =   -1.848479
       potential(ionic) =   -5.414898
PAO Filter: Cutoff used:   49.00 Ry
PAO Filter: diagnostic kin energy tol:    0.003000 Ry
PAO Filter: Nominal cutoff (before filtering):   28.33 Ry
Filter:    Number of eigenfunctions  of the
           filtering kernel (total, used)= 33  9

   izeta = 2
                 rmatch =    3.475094
              splitnorm =    0.150000
                 energy =   -0.881568
                kinetic =    1.278679
    potential(screened) =   -2.160247
       potential(ionic) =   -5.968635
PAO Filter: Cutoff used:   49.00 Ry
PAO Filter: diagnostic kin energy tol:    0.003000 Ry
PAO Filter: Nominal cutoff (before filtering):   46.75 Ry
Filter:    Number of eigenfunctions  of the
           filtering kernel (total, used)= 26  6

SPLIT: Orbitals with angular momentum L= 1

SPLIT: Basis orbitals for state 2p

SPLIT: PAO cut-off radius determined from an
SPLIT: energy shift=  0.003675 Ry

   izeta = 1
                 lambda =    1.000000
                     rc =    6.253707
                 energy =   -0.381214
                kinetic =    2.339107
    potential(screened) =   -2.720321
       potential(ionic) =   -6.125123
PAO Filter: Cutoff used:   49.00 Ry
PAO Filter: diagnostic kin energy tol:    0.003000 Ry
PAO Filter: Nominal cutoff (before filtering):   40.99 Ry
Filter:    Number of eigenfunctions  of the
           filtering kernel (total, used)= 38 12

   izeta = 2
                 rmatch =    3.745781
              splitnorm =    0.150000
                 energy =   -0.257424
                kinetic =    3.472270
    potential(screened) =   -3.729694
       potential(ionic) =   -7.523279
PAO Filter: Cutoff used:   49.00 Ry
PAO Filter: diagnostic kin energy tol:    0.003000 Ry
PAO Filter: Nominal cutoff (before filtering):   44.28 Ry
Filter:    Number of eigenfunctions  of the
           filtering kernel (total, used)= 27  6

POLgen: Perturbative polarization orbital with L=  2

POLgen: Polarization orbital for state 2p

   izeta = 1
                     rc =    6.253707
                 energy =    1.010373
                kinetic =    2.117604
    potential(screened) =   -1.107231
       potential(ionic) =   -3.839792
PAO Filter: diagnostic kin energy tol:    0.003000 Ry
PAO Filter: Nominal cutoff (before filtering):   55.61 Ry
Filter:    Number of eigenfunctions  of the
           filtering kernel (total, used)= 38 11
atom: Total number of Sankey-type orbitals: 13

atm_pop: Valence configuration (for local Pseudopot. screening):
 2s( 2.00)                                                            
 2p( 2.00)                                                            
Vna: chval, zval:    4.00000   4.00000

Vna:  Cut-off radius for the neutral-atom potential:   6.253707
VNA Filter: diagnostic kinetic energy tol:    0.003000 Ry
VNA Filter: Nominal cutoff (before filtering):   23.27 Ry
VNA Filter: Cutoff used:   100.00 Ry
Filter:    Number of eigenfunctions  of the
           filtering kernel (total, used)= 51 18

atom: _________________________________________________________________________

prinput: Basis input ----------------------------------------------------------

PAO.BasisType split     

%block ChemicalSpeciesLabel
    1    6 C.vdw                   # Species index, atomic number, species label
%endblock ChemicalSpeciesLabel

%block PAO.Basis                 # Define Basis set
C.vdw                 2                    # Species label, number of l-shells
 n=2   0   2                         # n, l, Nzeta 
   4.994      3.475   
   1.000      1.000   
 n=2   1   2 P   1                   # n, l, Nzeta, Polarization, NzetaPol
   6.254      3.746   
   1.000      1.000   
%endblock PAO.Basis

prinput: ----------------------------------------------------------------------

Dumping basis to NetCDF file C.vdw.ion.nc
coor:   Atomic-coordinates input format  =     Fractional

siesta: Atomic coordinates (Bohr) and species
siesta:      0.00000   0.00000   0.00000  1        1
siesta:      0.00000   0.00000   6.33814  1        2
siesta:     -0.00000   2.68504   0.00000  1        3
siesta:      2.32531   1.34252   6.33814  1        4

siesta: System type = bulk      

initatomlists: Number of atoms, orbitals, and projectors:      4    52    36

siesta: ******************** Simulation parameters ****************************
siesta:
siesta: The following are some of the parameters of the simulation.
siesta: A complete list of the parameters used, including default values,
siesta: can be found in file out.fdf
siesta:
redata: Non-Collinear-spin run           =     F
redata: SpinPolarized (Up/Down) run      =     F
redata: Number of spin components        =     1
redata: Long output                      =     F
redata: Number of Atomic Species         =        1
redata: Charge density info will appear in .RHO file
redata: Write Mulliken Pop.              =     NO
redata: Mesh Cutoff                      =   100.0000  Ry
redata: Net charge of the system         =     0.0000 |e|
redata: Min. number of SCF Iter          =        0
redata: Max. number of SCF Iter          =       10
redata: Mix DM or H after convergence    =     F
redata: Recompute H after scf cycle      =     F
redata: Mixing is linear
redata: Mix DM in first SCF step ?       =     F
redata: Write Pulay info on disk?        =     F
redata: Discard 1st Pulay DM after  kick =     F
redata: New DM Mixing Weight             =     0.2500
redata: New DM Occupancy tolerance       = 0.000000000001
redata: No kicks to SCF
redata: DM Mixing Weight for Kicks       =     0.5000
redata: DM Tolerance for SCF             =     0.000100
redata: Require (free) Energy convergence in SCF =     F
redata: DM (free)Energy tolerance for SCF =     0.000010 eV
redata: Require Harris convergence for SCF =     F
redata: DM Harris energy tolerance for SCF =     0.000010 eV
redata: Using Saved Data (generic)   =     F
redata: Use continuation files for DM    =     F
redata: Neglect nonoverlap interactions  =     F
redata: Method of Calculation            =     Diagonalization
redata: Divide and Conquer               =     T
redata: Electronic Temperature           =     0.0019  Ry
redata: Fix the spin of the system       =     F
redata: Dynamics option                  =     Single-point calculation
redata: ***********************************************************************
Total number of electrons:    16.000000
Total ionic charge:    16.000000

* ProcessorY, Blocksize:    2   6


* Orbital distribution balance (max,min):    10     6

 Kpoints in:           25 . Kpoints trimmed:           25

siesta: k-grid: Number of k-points =    25
siesta: k-grid: Cutoff (effective) =     6.152 Ang
siesta: k-grid: Supercell and displacements
siesta: k-grid:    0   5   0      0.000
siesta: k-grid:    5   0   0      0.000
siesta: k-grid:    0   0   2      0.500
Naive supercell factors:     8    8    3

superc: Internal auxiliary supercell:     8 x     8 x     3  =     192
superc: Number of atoms, orbitals, and projectors:    768   9984   6912

                     ====================================
                        Single-point calculation
                     ====================================

superc: Internal auxiliary supercell:     8 x     8 x     3  =     192
superc: Number of atoms, orbitals, and projectors:    768   9984   6912

outcell: Unit cell vectors (Ang):
        2.461000    0.000000    0.000000
       -1.230500    2.131289    0.000000
        0.000000    0.000000    6.708000

outcell: Cell vector modules (Ang)   :    2.461000    2.461000    6.708000
outcell: Cell angles (23,13,12) (deg):     90.0000     90.0000    120.0000
outcell: Cell volume (Ang**3)        :     35.1841
New_DM. Step:     1
Initializing Density Matrix...
New grid distribution:   1
           1       1:    8    1:    4    1:    6
           2       1:    8    1:    4    7:   12
           3       1:    8    1:    4   13:   18
           4       1:    8    1:    4   19:   24
           5       1:    8    5:    8    1:    6
           6       1:    8    5:    8    7:   12
           7       1:    8    5:    8   13:   18
           8       1:    8    5:    8   19:   24

InitMesh: MESH =    16 x    16 x    48 =       12288
InitMesh: (bp) =     8 x     8 x    24 =        1536
InitMesh: Mesh cutoff (required, used) =   100.000   141.514 Ry
ExtMesh (bp) on 0 =    60 x    56 x    54 =      181440
New grid distribution:   2
           1       1:    8    1:    4    1:    6
           2       1:    8    1:    4    7:   12
           3       1:    8    1:    4   13:   18
           4       1:    8    1:    4   19:   24
           5       1:    8    5:    8    1:    6
           6       1:    8    5:    8    7:   12
           7       1:    8    5:    8   13:   18
           8       1:    8    5:    8   19:   24
New grid distribution:   3
           1       1:    8    1:    4    1:    6
           2       1:    8    1:    4    7:   12
           3       1:    8    1:    4   13:   18
           4       1:    8    1:    4   19:   24
           5       1:    8    5:    8    1:    6
           6       1:    8    5:    8    7:   12
           7       1:    8    5:    8   13:   18
           8       1:    8    5:    8   19:   24
Setting up quadratic distribution...
ExtMesh (bp) on 0 =    60 x    56 x    54 =      181440
PhiOnMesh: Number of (b)points on node 0 =                  192
PhiOnMesh: nlist on node 0 =                33825

stepf: Fermi-Dirac step function

siesta: Program's energy decomposition (eV):
siesta: Ebs     =      -268.566725
siesta: Eions   =      1035.253114
siesta: Ena     =       234.644854
siesta: Ekin    =       346.293538
siesta: Enl     =        12.446007
siesta: DEna    =        -0.000002
siesta: DUscf   =         0.000000
siesta: DUext   =         0.000000
siesta: Exc     =      -184.055726
siesta: eta*DQ  =         0.000000
siesta: Emadel  =         0.000000
siesta: Emeta   =         0.000000
siesta: Emolmec =         0.000000
siesta: Ekinion =         0.000000
siesta: Eharris =      -619.503382
siesta: Etot    =      -625.924441
siesta: FreeEng =      -625.924441

   scf: iscf   Eharris(eV)      E_KS(eV)   FreeEng(eV)    dDmax  Ef(eV)
   scf:    1     -619.5034     -625.9244     -625.9244  1.78898 -7.3748
timer: Routine,Calls,Time,% =    IterSCF     1       1.220  22.73
   scf:    2     -618.5238     -617.9138     -617.9138  0.17186 -5.2398
   scf:    3     -618.4258     -618.0514     -618.0514  0.11386 -5.4515
   scf:    4     -618.3841     -618.1387     -618.1387  0.07545 -5.5884
   scf:    5     -618.3666     -618.1974     -618.1974  0.05007 -5.6768
   scf:    6     -618.3592     -618.2386     -618.2386  0.03330 -5.7340
   scf:    7     -618.3561     -618.2683     -618.2683  0.02221 -5.7710
   scf:    8     -618.3548     -618.2900     -618.2900  0.01486 -5.7949
   scf:    9     -618.3542     -618.3061     -618.3061  0.00998 -5.8104
   scf:   10     -618.3540     -618.3181     -618.3181  0.00673 -5.8204
SCF_NOT_CONV: SCF did not converge in maximum number of steps.
Geom step, scf iteration, dmax:   0 10    0.006732

Using DM_out to compute the final energy and forces

siesta: E_KS(eV) =             -618.3271

siesta: E_KS - E_eggbox =      -618.3271

siesta: Atomic forces (eV/Ang):
----------------------------------------
   Tot   -0.000000   -0.000000    0.000042
----------------------------------------
   Max    0.001218
   Res    0.000609    sqrt( Sum f_i^2 / 3N )
----------------------------------------
   Max    0.001218    constrained

Stress-tensor-Voigt (kbar):     -225.10     -225.89       29.60       -0.69       -0.00        0.00
(Free)E + p*V (eV/cell)     -615.2425
Target enthalpy (eV/cell)     -618.3271

siesta: Program's energy decomposition (eV):
siesta: Ebs     =      -242.330618
siesta: Eions   =      1035.253114
siesta: Ena     =       234.644854
siesta: Ekin    =       434.043075
siesta: Enl     =       -42.760542
siesta: DEna    =       -19.821323
siesta: DUscf   =         1.717308
siesta: DUext   =         0.000000
siesta: Exc     =      -190.897322
siesta: eta*DQ  =         0.000000
siesta: Emadel  =         0.000000
siesta: Emeta   =         0.000000
siesta: Emolmec =         0.000000
siesta: Ekinion =         0.000000
siesta: Eharris =      -618.353993
siesta: Etot    =      -618.327064
siesta: FreeEng =      -618.327064

siesta: Final energy (eV):
siesta:  Band Struct. =    -242.330618
siesta:       Kinetic =     434.043075
siesta:       Hartree =     179.891244
siesta:    Ext. field =       0.000000
siesta:   Exch.-corr. =    -190.897322
siesta:  Ion-electron =    -788.437482
siesta:       Ion-ion =    -252.926579
siesta:       Ekinion =       0.000000
siesta:         Total =    -618.327064

siesta: Stress tensor (static) (eV/Ang**3):
siesta:    -0.140493   -0.000431    0.000000
siesta:    -0.000431   -0.140990   -0.000000
siesta:     0.000000   -0.000000    0.018475

siesta: Cell volume =         35.184138 Ang**3

siesta: Pressure (static):
siesta:                Solid            Molecule  Units
siesta:           0.00095483          0.00095504  Ry/Bohr**3
siesta:           0.08766927          0.08768816  eV/Ang**3
siesta:         140.46317624        140.49344116  kBar
(Free)E+ p_basis*V_orbitals  =        -616.132143
(Free)Eharris+ p_basis*V_orbitals  =        -616.159072
>> End of run:   2-JUL-2017  12:00:36
Job completed
