Siesta Version:                                        siesta-3.0-rc2
Architecture  : macosx-openmpi
Compiler flags: /opt/openmpi.gcc.gfortran/bin/mpif90 -O2
PARALLEL version

* Running on    2 nodes in parallel
>> Start of run:  30-JUN-2010  11:54:31

                           ***********************       
                           *  WELCOME TO SIESTA  *       
                           ***********************       

reinit: Reading from standard input
************************** Dump of input data file ****************************
SystemLabel graphite_c6
NumberOfAtoms        4
NumberOfSpecies      1
%block ChemicalSpeciesLabel
    1   6 C
%endblock ChemicalSpeciesLabel
%block PS.lmax
    C 2
%endblock PS.lmax
LatticeConstant 1.0 Ang
%block LatticeParameters
    2.4610    2.4610    6.7080   90.0000   90.0000  120.0000
%endblock LatticeParameters
AtomicCoordinatesFormat Fractional
%block AtomicCoordinatesAndAtomicSpecies
    0.000000000    0.000000000    0.000000000     1
    0.000000000    0.000000000    0.500000000     1
    0.333333333    0.666666667    0.000000000     1
    0.666666667    0.333333333    0.500000000     1
%endblock AtomicCoordinatesAndAtomicSpecies
HarrisFunctional T
MM.Cutoff 20.0 Ang
%block MM.Potentials
 1  1 C6 15.19 1.56
%endblock MM.Potentials
kgrid_cutoff 4.0 Ang
ElectronicTemperature 0 K
************************** End of input data file *****************************

reinit: -----------------------------------------------------------------------
reinit: System Name: 
reinit: -----------------------------------------------------------------------
reinit: System Label: graphite_c6                                                 
reinit: -----------------------------------------------------------------------
Reading two-body potentials
C6 - two-body potential between   1 and   1

initatom: Reading input for the pseudopotentials and atomic orbitals ----------
 Species number:            1  Label: C Atomic number:           6
Ground state valence configuration:   2s02  2p02
Reading pseudopotential information in formatted form from C.psf

Valence configuration for pseudopotential generation:
2s( 2.00) rc: 1.49
2p( 2.00) rc: 1.52
3d( 0.00) rc: 1.58
relmxkb: Read Max KB Ang. Momentum=    2 for species C

<basis_specs>
===============================================================================
C                    Z=   6    Mass=  12.010        Charge= 0.17977+309
Lmxo=1 Lmxkb=2     BasisType=split      Semic=F
L=0  Nsemic=0  Cnfigmx=2
          n=1  nzeta=2  polorb=0
            splnorm:   0.15000    
               vcte:    0.0000    
               rinn:    0.0000    
                rcs:    0.0000      0.0000    
            lambdas:    1.0000      1.0000    
L=1  Nsemic=0  Cnfigmx=2
          n=1  nzeta=2  polorb=1
            splnorm:   0.15000    
               vcte:    0.0000    
               rinn:    0.0000    
                rcs:    0.0000      0.0000    
            lambdas:    1.0000      1.0000    
-------------------------------------------------------------------------------
L=0  Nkbl=1  erefs: 0.17977+309
L=1  Nkbl=1  erefs: 0.17977+309
L=2  Nkbl=1  erefs: 0.17977+309
===============================================================================
</basis_specs>

atom: Called for C                     (Z =   6)

read_vps: Pseudopotential generation method:
read_vps: ATM3      Troullier-Martins                       
Total valence charge:    4.00000

xc_check: Exchange-correlation functional:
xc_check: Ceperley-Alder
V l=0 = -2*Zval/r beyond r=  1.4666
V l=1 = -2*Zval/r beyond r=  1.5038
V l=2 = -2*Zval/r beyond r=  1.5612
All V_l potentials equal beyond r=  1.5612
This should be close to max(r_c) in ps generation
All pots = -2*Zval/r beyond r=  1.5612

VLOCAL1: 99.0% of the norm of Vloc inside     17.809 Ry
VLOCAL1: 99.9% of the norm of Vloc inside     40.586 Ry
atom: Maximum radius for 4*pi*r*r*local-pseudopot. charge    1.88329
atom: Maximum radius for r*vlocal+2*Zval:    1.62091
GHOST: No ghost state for L =  0
GHOST: No ghost state for L =  1
GHOST: No ghost state for L =  2

KBgen: Kleinman-Bylander projectors: 
   l= 0   rc=  1.747182   el= -1.001947   Ekb=  5.181700   kbcos=  0.300603
   l= 1   rc=  1.747182   el= -0.398598   Ekb= -4.328763   kbcos= -0.367074
   l= 2   rc=  1.955272   el=  0.002326   Ekb= -1.016175   kbcos= -0.009979

KBgen: Total number of  Kleinman-Bylander projectors:    9
atom: -------------------------------------------------------------------------

atom: SANKEY-TYPE ORBITALS:
atom: Selected multiple-zeta basis: split     

SPLIT: Orbitals with angular momentum L= 0

SPLIT: Basis orbitals for state 2s

SPLIT: PAO cut-off radius determined from an
SPLIT: energy shift=  0.020000 Ry

   izeta = 1
                 lambda =    1.000000
                     rc =    4.191849
                 energy =   -0.983897
                kinetic =    0.886956
    potential(screened) =   -1.870853
       potential(ionic) =   -5.479661

   izeta = 2
                 rmatch =    3.431921
              splitnorm =    0.150000
                 energy =   -0.852497
                kinetic =    1.310822
    potential(screened) =   -2.163319
       potential(ionic) =   -6.004715

SPLIT: Orbitals with angular momentum L= 1

SPLIT: Basis orbitals for state 2p

SPLIT: PAO cut-off radius determined from an
SPLIT: energy shift=  0.020000 Ry

   izeta = 1
                 lambda =    1.000000
                     rc =    4.870301
                 energy =   -0.379093
                kinetic =    2.545357
    potential(screened) =   -2.924450
       potential(ionic) =   -6.433151

   izeta = 2
                 rmatch =    3.475094
              splitnorm =    0.150000
                 energy =   -0.215107
                kinetic =    3.823603
    potential(screened) =   -4.038709
       potential(ionic) =   -7.929203

POLgen: Perturbative polarization orbital with L=  2

POLgen: Polarization orbital for state 2p

   izeta = 1
                     rc =    4.870301
                 energy =    1.280953
                kinetic =    2.629601
    potential(screened) =   -1.348648
       potential(ionic) =   -4.293268
atom: Total number of Sankey-type orbitals: 13

atm_pop: Valence configuration (for local Pseudopot. screening):
 2s( 2.00)                                                            
 2p( 2.00)                                                            
Vna: chval, zval:    4.00000   4.00000

Vna:  Cut-off radius for the neutral-atom potential:   4.870301

atom: _________________________________________________________________________

prinput: Basis input ----------------------------------------------------------

PAO.BasisType split     

%block ChemicalSpeciesLabel
    1    6 C                       # Species index, atomic number, species label
%endblock ChemicalSpeciesLabel

%block PAO.Basis                 # Define Basis set
C                     2                    # Species label, number of l-shells
 n=2   0   2                         # n, l, Nzeta 
   4.192      3.432   
   1.000      1.000   
 n=2   1   2 P   1                   # n, l, Nzeta, Polarization, NzetaPol
   4.870      3.475   
   1.000      1.000   
%endblock PAO.Basis

prinput: ----------------------------------------------------------------------

coor:   Atomic-coordinates input format  =     Fractional

siesta: Atomic coordinates (Bohr) and species
siesta:      0.00000   0.00000   0.00000  1        1
siesta:      0.00000   0.00000   6.33814  1        2
siesta:     -0.00000   2.68504   0.00000  1        3
siesta:      2.32531   1.34252   6.33814  1        4

siesta: System type = bulk      

initatomlists: Number of atoms, orbitals, and projectors:      4    52    36

siesta: ******************** Simulation parameters ****************************
siesta:
siesta: The following are some of the parameters of the simulation.
siesta: A complete list of the parameters used, including default values,
siesta: can be found in file out.fdf
siesta:
redata: Non-Collinear-spin run           =     F
redata: SpinPolarized (Up/Down) run      =     F
redata: Number of spin components        =     1
redata: Long output                      =     F
redata: Number of Atomic Species         =        1
redata: Charge density info will appear in .RHO file
redata: Write Mulliken Pop.              =     NO
redata: Mesh Cutoff                      =   100.0000  Ry
redata: Net charge of the system         =     0.0000 |e|
redata: Max. number of SCF Iter          =       50
redata: Mixing is linear
redata: Mix DM in first SCF step ?       =     F
redata: Write Pulay info on disk?        =     F
redata: Discard 1st Pulay DM after  kick =     F
redata: New DM Mixing Weight             =     0.2500
redata: New DM Occupancy tolerance       = 0.000000000001
redata: No kicks to SCF
redata: DM Mixing Weight for Kicks       =     0.5000
redata: DM Tolerance for SCF             =     0.000100
redata: Require Energy convergence for SCF =     F
redata: DM Energy tolerance for SCF      =     0.000100 eV
redata: Require Harris convergence for SCF =     F
redata: DM Harris energy tolerance for SCF =     0.000100 eV
redata: Using Saved Data (generic)   =     F
redata: Use continuation files for DM    =     F
redata: Neglect nonoverlap interactions  =     F
redata: Method of Calculation            =     Diagonalization
redata: Divide and Conquer               =     T
redata: Electronic Temperature           =     0.0000  Ry
redata: Fix the spin of the system       =     F
redata: Dynamics option                  =     Verlet MD run
redata: Initial MD time step             =        1
redata:   Final MD time step             =        1
redata: Length of MD time step           =     1.0000  fs
redata: Initial Temperature of MD run    =     0.0000  K
redata: Perform a MD quench              =     F
redata: ***********************************************************************
Total number of electrons:    16.000000
Total ionic charge:    16.000000

* ProcessorY, Blocksize:    1  24

 Kpoints in:           16 . Kpoints trimmed:           16

siesta: k-grid: Number of k-points =    16
siesta: k-grid: Cutoff (effective) =     4.922 Ang
siesta: k-grid: Supercell and displacements
siesta: k-grid:    0   4   0      0.500
siesta: k-grid:    4   0   0      0.500
siesta: k-grid:    0   0   2      0.500
Naive supercell factors:     6    6    3

superc: Internal auxiliary supercell:     6 x     6 x     3  =     108
superc: Number of atoms, orbitals, and projectors:    432   5616   3888

* Maximum dynamic memory allocated =     1 MB

siesta:                 ==============================
                            Begin MD step =      1
                        ==============================

superc: Internal auxiliary supercell:     6 x     6 x     3  =     108
superc: Number of atoms, orbitals, and projectors:    432   5616   3888

outcell: Unit cell vectors (Ang):
        2.461000    0.000000    0.000000
       -1.230500    2.131289    0.000000
        0.000000    0.000000    6.708000

outcell: Cell vector modules (Ang)   :    2.461000    2.461000    6.708000
outcell: Cell angles (23,13,12) (deg):     90.0000     90.0000    120.0000
outcell: Cell volume (Ang**3)        :     35.1841
New_DM. Step:     1
Initializing Density Matrix...

InitMesh: MESH =    16 x    16 x    48 =       12288
InitMesh: Mesh cutoff (required, used) =   100.000   141.514 Ry

* Maximum dynamic memory allocated =    10 MB

MM-Stress (kbar):       21.25       21.25       18.07        0.00       -0.00        0.00

stepf: Fermi-Dirac step function

siesta: Program's energy decomposition (eV):
siesta: Ebs     =      -234.571065
siesta: Eions   =       997.139937
siesta: Ena     =       195.539445
siesta: Ekin    =       373.589749
siesta: Enl     =        -7.519625
siesta: DEna    =        -0.000001
siesta: DUscf   =         0.000000
siesta: DUext   =         0.000000
siesta: Exc     =      -185.451665
siesta: eta*DQ  =         0.000000
siesta: Emadel  =         0.000000
siesta: Emeta   =         0.000000
siesta: Emolmec =        -0.425284
siesta: Ekinion =         0.000000
siesta: Eharris =      -622.326923
siesta: Etot    =      -621.407318
siesta: FreeEng =      -621.407318

siesta: Eharris(eV) =    -622.326923


siesta: Eharris(eV) =    -622.326923

timer: Routine,Calls,Time,% = IterSCF        1       4.763  80.75
elaps: Routine,Calls,Wall,% = IterSCF        1       2.596  81.76

MM-Stress (kbar):       21.25       21.25       18.07        0.00       -0.00        0.00

siesta: E_KS - E_eggbox =      -621.5946

siesta: Atomic forces (eV/Ang):
----------------------------------------
   Tot    0.000018    0.000003   -0.000001
----------------------------------------
   Max    0.712676
   Res    0.466976    sqrt( Sum f_i^2 / 3N )
----------------------------------------
   Max    0.712676    constrained

Stress-tensor-Voigt (kbar):      243.91      294.66      178.10       43.95        0.00        0.00
(Free)E + p*V (eV/cell)     -626.8407
Target enthalpy (eV/cell)     -621.5946

siesta: Stress tensor (static) (eV/Ang**3):
         0.152235    0.027429    0.000000
         0.027429    0.183908    0.000000
         0.000000    0.000000    0.111162

siesta: Pressure (static):       -238.88995021  kBar

siesta: Stress tensor (total) (eV/Ang**3):
         0.152235    0.027429    0.000000
         0.027429    0.183908    0.000000
         0.000000    0.000000    0.111162

siesta: Pressure (total):       -238.88995021  kBar

siesta: Temp_ion =       0.000 K

* Maximum dynamic memory allocated =    10 MB

siesta: Program's energy decomposition (eV):
siesta: Ebs     =      -234.571065
siesta: Eions   =       997.139937
siesta: Ena     =       195.539445
siesta: Ekin    =       450.783433
siesta: Enl     =       -65.607042
siesta: DEna    =       -15.535481
siesta: DUscf   =         1.353573
siesta: DUext   =         0.000000
siesta: Exc     =      -190.563345
siesta: eta*DQ  =         0.000000
siesta: Emadel  =         0.000000
siesta: Emeta   =         0.000000
siesta: Emolmec =        -0.425284
siesta: Ekinion =         0.000000
siesta: Eharris =      -622.326923
siesta: Etot    =      -621.594637
siesta: FreeEng =      -621.594637

siesta: Final energy (eV):
siesta:  Band Struct. =    -234.571065
siesta:       Kinetic =     450.783433
siesta:       Hartree =     189.373017
siesta:    Ext. field =       0.000000
siesta:   Exch.-corr. =    -190.563345
siesta:  Ion-electron =    -793.708327
siesta:       Ion-ion =    -277.054131
siesta:       Ekinion =       0.000000
siesta:         Total =    -621.594637

siesta: Atomic forces (eV/Ang):
siesta:      1   -0.712669    0.411485   -0.000000
siesta:      2    0.712676   -0.411472   -0.000000
siesta:      3    0.688034   -0.397243   -0.000000
siesta:      4   -0.688023    0.397234    0.000000
siesta: ----------------------------------------
siesta:    Tot    0.000018    0.000003   -0.000001

siesta: Stress tensor (static) (eV/Ang**3):
siesta:     0.152235    0.027429    0.000000
siesta:     0.027429    0.183908    0.000000
siesta:     0.000000    0.000000    0.111162

siesta: Cell volume =         35.184138 Ang**3

siesta: Pressure (static):
siesta:                Solid            Molecule  Units
siesta:          -0.00162391         -0.00150743  Ry/Bohr**3
siesta:          -0.14910177         -0.13840719  eV/Ang**3
siesta:        -238.88995021       -221.75515805  kBar
(Free)E+ p_basis*V_orbitals  =        -620.394920
(Free)Eharris+ p_basis*V_orbitals  =        -621.314525

* Maximum dynamic memory allocated : Node    0 =    10 MB
* Maximum dynamic memory allocated : Node    1 =    10 MB

* Maximum memory occured during matrixMtoO                    

timer: CPU execution times:
timer:  Routine       Calls   Time/call    Tot.time        %
timer:  siesta            1       8.814       8.814   100.00
timer:  Setup             1       0.381       0.381     4.32
timer:  bands             1       0.000       0.000     0.01
timer:  writewave         1       0.001       0.001     0.02
timer:  KSV_init          1       0.000       0.000     0.00
timer:  IterMD            1       8.401       8.401    95.31
timer:  hsparse           1       0.073       0.073     0.83
timer:  overlap           1       0.633       0.633     7.18
timer:  IterSCF           1       4.763       4.763    54.04
timer:  kinefsm           2       0.336       0.672     7.63
timer:  nlefsm            2       0.858       1.716    19.47
timer:  DHSCF             2       2.027       4.054    45.99
timer:  DHSCF1            1       0.060       0.060     0.68
timer:  DHSCF2            1       1.311       1.311    14.88
timer:  REORD            18       0.000       0.001     0.01
timer:  POISON            3       0.006       0.018     0.21
timer:  DHSCF3            2       0.791       1.582    17.95
timer:  rhoofd            2       0.420       0.841     9.54
timer:  cellXC            3       0.007       0.022     0.25
timer:  vmat              2       0.346       0.692     7.85
timer:  MolMec            2       0.003       0.006     0.07
timer:  diagon            1       0.872       0.872     9.89
timer:  c-eigval         16       0.031       0.488     5.54
timer:  c-buildHS        16       0.004       0.058     0.66
timer:  cdiag            32       0.021       0.669     7.59
timer:  cdiag1           32       0.001       0.036     0.40
timer:  cdiag2           32       0.002       0.065     0.74
timer:  cdiag3           32       0.016       0.510     5.79
timer:  cdiag4           32       0.000       0.007     0.08
timer:  c-eigvec         16       0.019       0.298     3.38
timer:  c-buildD         16       0.005       0.082     0.94
timer:  DHSCF4            1       1.098       1.098    12.46
timer:  dfscf             1       1.016       1.016    11.53
timer:  overfsm           1       0.070       0.070     0.79
timer:  optical           1       0.017       0.017     0.19
  

elaps: ELAPSED times:
elaps:  Routine       Calls   Time/call    Tot.time        %
elaps:  siesta            1       4.746       4.746    99.98
elaps:  Setup             1       0.197       0.197     4.15
elaps:  bands             1       0.000       0.000     0.00
elaps:  writewave         1       0.001       0.001     0.02
elaps:  KSV_init          1       0.000       0.000     0.00
elaps:  IterMD            1       4.532       4.532    95.47
elaps:  hsparse           1       0.039       0.039     0.82
elaps:  overlap           1       0.325       0.325     6.85
elaps:  IterSCF           1       2.596       2.596    54.69
elaps:  kinefsm           2       0.178       0.356     7.50
elaps:  nlefsm            2       0.440       0.880    18.54
elaps:  DHSCF             2       1.033       2.065    43.50
elaps:  DHSCF1            1       0.031       0.031     0.65
elaps:  DHSCF2            1       0.668       0.668    14.07
elaps:  REORD            18       0.000       0.000     0.00
elaps:  POISON            3       0.003       0.010     0.21
elaps:  DHSCF3            2       0.403       0.805    16.96
elaps:  rhoofd            2       0.218       0.436     9.18
elaps:  cellXC            3       0.004       0.012     0.25
elaps:  vmat              2       0.177       0.355     7.48
elaps:  MolMec            2       0.002       0.004     0.08
elaps:  diagon            1       0.608       0.608    12.81
elaps:  c-eigval         16       0.024       0.380     8.01
elaps:  c-buildHS        16       0.002       0.036     0.76
elaps:  cdiag            32       0.015       0.482    10.15
elaps:  cdiag1           32       0.001       0.021     0.44
elaps:  cdiag2           32       0.001       0.032     0.67
elaps:  cdiag3           32       0.013       0.413     8.70
elaps:  cdiag4           32       0.000       0.002     0.04
elaps:  c-eigvec         16       0.011       0.176     3.71
elaps:  c-buildD         16       0.003       0.050     1.05
elaps:  DHSCF4            1       0.560       0.560    11.80
elaps:  dfscf             1       0.518       0.518    10.91
elaps:  overfsm           1       0.037       0.037     0.78
elaps:  optical           1       0.001       0.001     0.02
  
>> End of run:  30-JUN-2010  11:54:36
