Siesta Version:                                        siesta-2.6.32-vdw-34-282
Architecture  : mpif90-mkl
Compiler flags: mpif90 -g -O3 -traceback -w
PARALLEL version

* Running on    4 nodes in parallel
>> Start of run:   1-OCT-2009  18:31:06

                           ***********************       
                           *  WELCOME TO SIESTA  *       
                           ***********************       

reinit: Reading from standard input
************************** Dump of input data file ****************************
##### GENERAL SYSTEM DESCRIPTORS ###############################################
SystemName	Graphite. VDW-DF. Unconverged test.
SystemLabel     graphite_vdw_df
NumberOfAtoms        4
NumberOfSpecies      1
%block ChemicalSpeciesLabel
    1   6   C.vdw
%endblock ChemicalSpeciesLabel
##### GEOMETRY ##################################################################
LatticeConstant 1.0 Ang
%block LatticeParameters
    2.4610    2.4610    6.7080   90.0000   90.0000  120.0000
%endblock LatticeParameters
AtomicCoordinatesFormat Fractional
%block AtomicCoordinatesAndAtomicSpecies
    0.000000000    0.000000000    0.000000000     1
    0.000000000    0.000000000    0.500000000     1
    0.333333333    0.666666667    0.000000000     1
    0.666666667    0.333333333    0.500000000     1
%endblock AtomicCoordinatesAndAtomicSpecies
##### FUNCTIONAL ################################################################
XC_functional  VDW
XC_authors     DRSLL
##### PRECISION PARAMETERS ######################################################
%block PS.lmax
   C.vdw   2
%endblock PS.lmax
PAO.EnergyShift  50. meV
FilterCutoff    100. Ry
MeshCutoff      100. Ry
KgridCutoff       5. Ang
##### TASK SPECIFIERS ###########################################################
DM.UseSaveDM       no
MaxSCFiterations   10
##### OUTPUT OPTIONS ###########################################################
alloc_report_level      2
timer_report_threshold  1.e-4
************************** End of input data file *****************************

reinit: -----------------------------------------------------------------------
reinit: System Name: Graphite. VDW-DF. Unconverged test.
reinit: -----------------------------------------------------------------------
reinit: System Label: graphite_vdw_df                                             
reinit: -----------------------------------------------------------------------

initatom: Reading input for the pseudopotentials and atomic orbitals ----------
 Species number:            1  Label: C.vdw Atomic number:           6
Ground state valence configuration:   2s02  2p02
Reading pseudopotential information in formatted form from C.vdw.psf

Valence configuration for pseudopotential generation:
2s( 2.00) rc: 1.49
2p( 2.00) rc: 1.52
3d( 0.00) rc: 1.52
relmxkb: Read Max KB Ang. Momentum=    2 for species C.vdw

<basis_specs>
===============================================================================
C.vdw                Z=   6    Mass=  12.010        Charge= 0.17977+309
Lmxo=1 Lmxkb=2     BasisType=split      Semic=F
L=0  Nsemic=0  Cnfigmx=2
          n=1  nzeta=2  polorb=0
            splnorm:   0.15000    
               vcte:    0.0000    
               rinn:    0.0000    
                rcs:    0.0000      0.0000    
            lambdas:    1.0000      1.0000    
L=1  Nsemic=0  Cnfigmx=2
          n=1  nzeta=2  polorb=1
            splnorm:   0.15000    
               vcte:    0.0000    
               rinn:    0.0000    
                rcs:    0.0000      0.0000    
            lambdas:    1.0000      1.0000    
-------------------------------------------------------------------------------
L=0  Nkbl=1  erefs: 0.17977+309
L=1  Nkbl=1  erefs: 0.17977+309
L=2  Nkbl=1  erefs: 0.17977+309
===============================================================================
</basis_specs>

Filter: Requested cutoff:  100.000000 Ry
atom: Called for C.vdw                 (Z =   6)

read_vps: Pseudopotential generation method:
read_vps: ATM3.3    Troullier-Martins                       
Total valence charge:    4.00000

xc_check: Exchange-correlation functional:
xc_check: VDW Dion-Rydberg-Schroeder-Langreth-Lundqvist
V l=0 = -2*Zval/r beyond r=  1.7692
V l=1 = -2*Zval/r beyond r=  1.7692
V l=2 = -2*Zval/r beyond r=  1.7692
All V_l potentials equal beyond r=  1.5038
This should be close to max(r_c) in ps generation
All pots = -2*Zval/r beyond r=  1.7692

VLOCAL1: 99.0% of the norm of Vloc inside     19.196 Ry
VLOCAL1: 99.9% of the norm of Vloc inside     43.748 Ry
atom: Maximum radius for 4*pi*r*r*local-pseudopot. charge    1.81396
atom: Maximum radius for r*vlocal+2*Zval:    1.56123
GHOST: No ghost state for L =  0
GHOST: No ghost state for L =  1
GHOST: No ghost state for L =  2

KBgen: Kleinman-Bylander projectors: 
   l= 0   rc=  1.955272   el= -1.024035   Ekb=  5.224793   kbcos=  0.316593
   l= 1   rc=  1.955272   el= -0.401593   Ekb= -4.077739   kbcos= -0.354238
   l= 2   rc=  2.990984   el=  0.001706   Ekb= -0.958055   kbcos= -0.009163

KBgen: Total number of  Kleinman-Bylander projectors:    9
atom: -------------------------------------------------------------------------

atom: SANKEY-TYPE ORBITALS:
atom: Selected multiple-zeta basis: split     

SPLIT: Orbitals with angular momentum L= 0

SPLIT: Basis orbitals for state 2s

SPLIT: PAO cut-off radius determined from an
SPLIT: energy shift=  0.003675 Ry

   izeta = 1
                 lambda =    1.000000
                     rc =    5.120028
                 energy =   -1.020977
                kinetic =    0.848137
    potential(screened) =   -1.869114
       potential(ionic) =   -5.423008
PAO Filter: Cutoff used:   49.00 Ry
PAO Filter: diagnostic kin energy tol:    0.003000 Ry
PAO Filter: Nominal cutoff (before filtering):   27.09 Ry
Filter:    Number of eigenfunctions  of the
           filtering kernel (total, used)= 33 10
WARNING: Minimum split_norm parameter:  0.58004. Will not be able to generate orbital with split_norm =  0.15000

   izeta = 2
                 rmatch =    3.475094
              splitnorm =    0.150000
                 energy =   -0.891747
                kinetic =    1.299468
    potential(screened) =   -2.191215
       potential(ionic) =   -5.987200
PAO Filter: Cutoff used:   49.00 Ry
PAO Filter: diagnostic kin energy tol:    0.003000 Ry
PAO Filter: Nominal cutoff (before filtering):   32.65 Ry
Filter:    Number of eigenfunctions  of the
           filtering kernel (total, used)= 26  6

SPLIT: Orbitals with angular momentum L= 1

SPLIT: Basis orbitals for state 2p

SPLIT: PAO cut-off radius determined from an
SPLIT: energy shift=  0.003675 Ry

   izeta = 1
                 lambda =    1.000000
                     rc =    6.412031
                 energy =   -0.398232
                kinetic =    2.363452
    potential(screened) =   -2.761683
       potential(ionic) =   -6.156414
PAO Filter: Cutoff used:   49.00 Ry
PAO Filter: diagnostic kin energy tol:    0.003000 Ry
PAO Filter: Nominal cutoff (before filtering):   41.25 Ry
Filter:    Number of eigenfunctions  of the
           filtering kernel (total, used)= 39 12
WARNING: Minimum split_norm parameter:  0.38772. Will not be able to generate orbital with split_norm =  0.15000

   izeta = 2
                 rmatch =    3.745781
              splitnorm =    0.150000
                 energy =   -0.289169
                kinetic =    3.415896
    potential(screened) =   -3.705065
       potential(ionic) =   -7.463280
PAO Filter: Cutoff used:   49.00 Ry
PAO Filter: diagnostic kin energy tol:    0.003000 Ry
PAO Filter: Nominal cutoff (before filtering):   45.21 Ry
Filter:    Number of eigenfunctions  of the
           filtering kernel (total, used)= 27  6

POLgen: Perturbative polarization orbital with L=  2

POLgen: Polarization orbital for state 2p

   izeta = 1
                     rc =    6.412031
                 energy =    0.990769
                kinetic =    2.105076
    potential(screened) =   -1.114306
       potential(ionic) =   -3.823384
PAO Filter: diagnostic kin energy tol:    0.003000 Ry
PAO Filter: Nominal cutoff (before filtering):   55.25 Ry
Filter:    Number of eigenfunctions  of the
           filtering kernel (total, used)= 39 12
atom: Total number of Sankey-type orbitals: 13

atm_pop: Valence configuration (for local Pseudopot. screening):
 2s( 2.00)                                                            
 2p( 2.00)                                                            
Vna: chval, zval:    4.00000   4.00000

Vna:  Cut-off radius for the neutral-atom potential:   6.412031
VNA Filter: diagnostic kinetic energy tol:    0.003000 Ry
VNA Filter: Nominal cutoff (before filtering):   23.33 Ry
VNA Filter: Cutoff used:   100.00 Ry
Filter:    Number of eigenfunctions  of the
           filtering kernel (total, used)= 52 19

atom: _________________________________________________________________________

prinput: Basis input ----------------------------------------------------------

PAO.BasisType split     

%block ChemicalSpeciesLabel
    1    6 C.vdw                   # Species index, atomic number, species label
%endblock ChemicalSpeciesLabel

%block PAO.Basis                 # Define Basis set
C.vdw                 2                    # Species label, number of l-shells
 n=2   0   2                         # n, l, Nzeta 
   5.120      3.475   
   1.000      1.000   
 n=2   1   2 P   1                   # n, l, Nzeta, Polarization, NzetaPol
   6.412      3.746   
   1.000      1.000   
%endblock PAO.Basis

prinput: ----------------------------------------------------------------------

coor:   Atomic-coordinates input format  =     Fractional

siesta: Atomic coordinates (Bohr) and species
siesta:      0.00000   0.00000   0.00000  1        1
siesta:      0.00000   0.00000   6.33814  1        2
siesta:      0.00000   2.68504   0.00000  1        3
siesta:      2.32531   1.34252   6.33814  1        4

siesta: System type = bulk      

initatomlists: Number of atoms, orbitals, and projectors:      4    52    36

siesta: ******************** Simulation parameters ****************************
siesta:
siesta: The following are some of the parameters of the simulation.
siesta: A complete list of the parameters used, including default values,
siesta: can be found in file out.fdf
siesta:
redata: Non-Collinear-spin run           =     F
redata: SpinPolarized (Up/Down) run      =     F
redata: Number of spin components        =     1
redata: Long output                      =     F
redata: Number of Atomic Species         =        1
redata: Charge density info will appear in .RHO file
redata: Write Mulliken Pop.              =     NO
redata: Mesh Cutoff                      =   100.0000  Ry
redata: Net charge of the system         =     0.0000 |e|
redata: Max. number of SCF Iter          =       10
redata: Mixing is linear
redata: Mix DM in first SCF step ?       =     F
redata: Write Pulay info on disk?        =     F
redata: New DM Mixing Weight             =     0.2500
redata: New DM Occupancy tolerance       = 0.000000000001
redata: No kicks to SCF
redata: DM Mixing Weight for Kicks       =     0.5000
redata: DM Tolerance for SCF             =     0.000100
redata: Require Energy convergence for SCF =     F
redata: DM Energy tolerance for SCF      =     0.000100 eV
redata: Require Harris convergence for SCF =     F
redata: DM Harris energy tolerance for SCF =     0.000100 eV
redata: Using Saved Data (generic)   =     F
redata: Use continuation files for DM    =     F
redata: Neglect nonoverlap interactions  =     F
redata: Method of Calculation            =     Diagonalization
redata: Divide and Conquer               =     T
redata: Electronic Temperature           =     0.0019  Ry
redata: Fix the spin of the system       =     F
redata: Dynamics option                  =     Verlet MD run
redata: Initial MD time step             =        1
redata:   Final MD time step             =        1
redata: Length of MD time step           =     1.0000  fs
redata: Initial Temperature of MD run    =     0.0000  K
redata: Perform a MD quench              =     F
redata: ***********************************************************************
Total number of electrons:    16.000000
Total ionic charge:    16.000000

* ProcessorY, Blocksize:    2  13

 Kpoints in:           25 . Kpoints trimmed:           25

siesta: k-grid: Number of k-points =    25
siesta: k-grid: Cutoff (effective) =     6.152 Ang
siesta: k-grid: Supercell and displacements
siesta: k-grid:    0   5   0      0.000
siesta: k-grid:    5   0   0      0.000
siesta: k-grid:    0   0   2      0.500
Naive supercell factors:     9    9    3

superc: Internal auxiliary supercell:     9 x     9 x     3  =     243
superc: Number of atoms, orbitals, and projectors:    972 12636  8748

* Maximum dynamic memory allocated =     1 MB

siesta:                 ==============================
                            Begin MD step =      1
                        ==============================

superc: Internal auxiliary supercell:     9 x     9 x     3  =     243
superc: Number of atoms, orbitals, and projectors:    972 12636  8748

outcell: Unit cell vectors (Ang):
        2.461000    0.000000    0.000000
       -1.230500    2.131289    0.000000
        0.000000    0.000000    6.708000

outcell: Cell vector modules (Ang)   :    2.461000    2.461000    6.708000
outcell: Cell angles (23,13,12) (deg):     90.0000     90.0000    120.0000
outcell: Cell volume (Ang**3)        :     35.1841
New_DM. Step:     1
Initializing Density Matrix...

InitMesh: MESH =    16 x    16 x    48 =       12288
InitMesh: Mesh cutoff (required, used) =   100.000   141.514 Ry

* Maximum dynamic memory allocated =     8 MB

stepf: Fermi-Dirac step function

siesta: Program's energy decomposition (eV):
siesta: Eions   =      1035.253114
siesta: Ena     =       232.997687
siesta: Ekin    =       349.407024
siesta: Enl     =        11.654294
siesta: DEna    =        -0.000035
siesta: DUscf   =         0.000000
siesta: DUext   =         0.000000
siesta: Exc     =      -187.104336
siesta: eta*DQ  =         0.000000
siesta: Emadel  =         0.000000
siesta: Emeta   =         0.000000
siesta: Emolmec =         0.000000
siesta: Ekinion =         0.000000
siesta: Eharris =      -622.484755
siesta: Etot    =      -628.298480
siesta: FreeEng =      -628.298480

siesta: iscf   Eharris(eV)      E_KS(eV)   FreeEng(eV)   dDmax  Ef(eV)
siesta:    1     -622.4848     -628.2985     -628.2985  1.7271 -6.5279
timer: Routine,Calls,Time,% =    IterSCF     1       8.084  82.95
siesta:    2     -621.6724     -621.1461     -621.1461  0.2409 -6.2967
siesta:    3     -621.5896     -621.2651     -621.2651  0.1618 -6.4897
siesta:    4     -621.5556     -621.3412     -621.3412  0.1090 -5.6683
siesta:    5     -621.5412     -621.3926     -621.3926  0.0736 -5.7500
siesta:    6     -621.5350     -621.4288     -621.4288  0.0498 -5.8035
siesta:    7     -621.5324     -621.4550     -621.4550  0.0339 -5.8386
siesta:    8     -621.5312     -621.4741     -621.4741  0.0231 -5.8616
siesta:    9     -621.5308     -621.4883     -621.4883  0.0158 -5.8767

siesta: E_KS(eV) =             -621.4990

siesta: E_KS - E_eggbox =      -621.4990

siesta: Atomic forces (eV/Ang):
----------------------------------------
   Tot    0.000003    0.000011   -0.000032
----------------------------------------
   Max    0.003050
   Res    0.002020    sqrt( Sum f_i^2 / 3N )
----------------------------------------
   Max    0.003050    constrained

Stress-tensor-Voigt (kbar):     -192.87     -193.84        5.52       -0.84        0.00        0.00
(Free)E + p*V (eV/cell)     -618.7086
Target enthalpy (eV/cell)     -621.4990

siesta: Stress tensor (static) (eV/Ang**3):
        -0.120380   -0.000526    0.000000
        -0.000526   -0.120987    0.000000
         0.000000    0.000000    0.003447

siesta: Pressure (static):        127.06500706  kBar

siesta: Stress tensor (total) (eV/Ang**3):
        -0.120380   -0.000526    0.000000
        -0.000526   -0.120987    0.000000
         0.000000    0.000000    0.003447

siesta: Pressure (total):        127.06500706  kBar

siesta: Temp_ion =       0.000 K

* Maximum dynamic memory allocated =     8 MB

siesta: Program's energy decomposition (eV):
siesta: Eions   =      1035.253114
siesta: Ena     =       232.997687
siesta: Ekin    =       436.734594
siesta: Enl     =       -43.508429
siesta: DEna    =       -19.676268
siesta: DUscf   =         1.746442
siesta: DUext   =         0.000000
siesta: Exc     =      -194.539886
siesta: eta*DQ  =         0.000000
siesta: Emadel  =         0.000000
siesta: Emeta   =         0.000000
siesta: Emolmec =         0.000000
siesta: Ekinion =         0.000000
siesta: Eharris =      -621.530751
siesta: Etot    =      -621.498974
siesta: FreeEng =      -621.498974

siesta: Final energy (eV):
siesta:       Kinetic =     436.734594
siesta:       Hartree =     181.844325
siesta:    Ext. field =       0.000000
siesta:   Exch.-corr. =    -194.539886
siesta:  Ion-electron =    -792.483460
siesta:       Ion-ion =    -253.054548
siesta:       Ekinion =       0.000000
siesta:         Total =    -621.498974

siesta: Stress tensor (static) (eV/Ang**3):
siesta:    -0.120380   -0.000526    0.000000
siesta:    -0.000526   -0.120987    0.000000
siesta:     0.000000    0.000000    0.003447

siesta: Cell volume =         35.184138 Ang**3

siesta: Pressure (static):
siesta:                Solid            Molecule  Units
siesta:           0.00086375          0.00086426  Ry/Bohr**3
siesta:           0.07930688          0.07935379  eV/Ang**3
siesta:         127.06500706        127.14016360  kBar
(Free)E+ p_basis*V_orbitals  =        -619.155910
(Free)Eharris+ p_basis*V_orbitals  =        -619.198340

* Maximum dynamic memory allocated : Node    0 =     8 MB
* Maximum dynamic memory allocated : Node    1 =     8 MB
* Maximum dynamic memory allocated : Node    2 =     8 MB
* Maximum dynamic memory allocated : Node    3 =     8 MB

* Maximum memory occured during grdsam                        
>> End of run:   1-OCT-2009  18:31:43
