Siesta Version  : siesta-4.0--578
Architecture    : x86_64-linux-n-62-25-35
Compiler version: GNU Fortran (GCC) 7.3.0
Compiler flags  : mpif90 -m64 -fPIC -O3 -march=native -ftree-vectorize -fexpensive-optimizationns -funroll-loops -fprefetch-loop-arrays -fno-second-underscore
PP flags        : -I/zdata/groups/common/nicpa/2018-feb/generic/build-tools/1.0/include -I/zdatta/groups/common/nicpa/2018-feb/generic/gcc/7.3.0/include -I/zdata/groups/common/nicpa/2018-feb/generic/gcc/7.3.0/include -I/zdata/groups/common/nicpa/2018-feb/XeonE5-2660v3/zlib/1.2.11/gnu-7.3.0/include -I/zdata/groups/common/nicpa/2018-feb/generic/numactl/2.0.11/include -I/zdata/groups/common/nicpa/2018-feb/XeonE5-2660v3/libxml2/2.9.7/gnu-7.3.0/include -I/zdata/groups/common/nicpa/2018-feb/XeonE5-2660v3/hwloc/1.11.9/gnu-7.3.0/include -I/zdata/groups/common/nicpa/2018-feb/XeonE5-2660v3/openmpi/3.0.0/gnu-7.3.0/include -I/zdata/groups/common/nicpa/2018-feb/XeonE5-2660v3/szip/2.1.1/gnu-7.3.0/include -I/zdata/groups/common/nicpa/2018-feb/XeonE5-2660v3/hdf5-serial/1.8.18/gnu-7.3.0/include -I/zdata/groups/common/nicpa/2018-feb/XeonE5-2660v3/netcdf-serial/4.6.0/gnu-7.3.0/include -I/zdata/groups/common/nicpa/2018-feb/XeonE5-2660v3/scalapack/204/gnu-7.3.0/include -I/zdata/groups/common/nicpa/2018-feb/XeonE5-2660v3/openblas/0.2.20/gnu-7.3.0/include -I/zdata/groups/common/nicpa/2018-feb/XeonE5-2660v3/elpa/2017.05.003/gnu-7.3.0/include -DSIESTA__ELPA -DMPI -D1 -DFC_HAVE_ABORT -DCDF -DSIESTA__MRRR 
PARALLEL version
NetCDF support

* Running on    8 nodes in parallel
>> Start of run:  10-JUN-2018  21:10:53

                           ***********************       
                           *  WELCOME TO SIESTA  *       
                           ***********************       

reinit: Reading from standard input
************************** Dump of input data file ****************************
SystemLabel graphite_c6_full
NumberOfAtoms        4
NumberOfSpecies      1
%block ChemicalSpeciesLabel
    1   6 C.pbe
%endblock ChemicalSpeciesLabel
%block PS.lmax
   C.pbe 2
%endblock PS.lmax
LatticeConstant 1.0 Ang
%block LatticeParameters
    2.4610    2.4610    6.7080   90.0000   90.0000  120.0000
%endblock LatticeParameters
AtomicCoordinatesFormat Fractional
%block AtomicCoordinatesAndAtomicSpecies
    0.000000000    0.000000000    0.000000000     1
    0.000000000    0.000000000    0.500000000     1
    0.333333333    0.666666667    0.000000000     1
    0.666666667    0.333333333    0.500000000     1
%endblock AtomicCoordinatesAndAtomicSpecies
MM.Cutoff 20.0 Ang
%block MM.Potentials
1 1 C6 15.19 1.56
%endblock MM.Potentials
XC.functional GGA
XC.authors PBE
PAO.EnergyShift  0.0025 Ry
PAO.SplitNorm    0.30
PAO.SplitNormH   0.50
PAO.SoftDefault true
PAO.SoftPotential 50.0 Ry
PAO.SoftInnerRadius 0.80
kgrid_cutoff 16.0 Ang
PAO.BasisSize TZ2P
ElectronicTemperature 0 K
%block GridCellSampling
 0.5    0.5    0.5
%endblock GridCellSampling
DM.MixingWeight      0.30
DM.NumberPulay       5
MD.TypeofRun CG
MD.VariableCell true
MD.NumCGsteps 100
MD.MaxForceTol 0.01 eV/Ang
MD.MaxStressTol 200 bar
LongOutput true
UseSaveData true
************************** End of input data file *****************************

reinit: -----------------------------------------------------------------------
reinit: System Name: 
reinit: -----------------------------------------------------------------------
reinit: System Label: graphite_c6_full                                            
reinit: -----------------------------------------------------------------------
Reading two-body potentials
C6 - two-body potential between   1 and   1

initatom: Reading input for the pseudopotentials and atomic orbitals ----------
 Species number:            1  Label: C.pbe Atomic number:           6
Ground state valence configuration:   2s02  2p02
Reading pseudopotential information in formatted form from C.pbe.psf

Valence configuration for pseudopotential generation:
2s( 2.00) rc: 1.49
2p( 2.00) rc: 1.52
3d( 0.00) rc: 1.52
relmxkb: Read Max KB Ang. Momentum=    2 for species C.pbe

<basis_specs>
===============================================================================
C.pbe                Z=   6    Mass=  12.010        Charge= 0.17977+309
Lmxo=1 Lmxkb= 2    BasisType=split      Semic=F
L=0  Nsemic=0  Cnfigmx=2
          n=1  nzeta=3  polorb=0
            splnorm:   0.30000    
               vcte:    50.000    
               rinn:  -0.80000    
               qcoe:    0.0000    
               qyuk:    0.0000    
               qwid:   0.10000E-01
                rcs:    0.0000      0.0000      0.0000    
            lambdas:    1.0000      1.0000      1.0000    
L=1  Nsemic=0  Cnfigmx=2
          n=1  nzeta=3  polorb=2
            splnorm:   0.30000    
               vcte:    50.000    
               rinn:  -0.80000    
               qcoe:    0.0000    
               qyuk:    0.0000    
               qwid:   0.10000E-01
                rcs:    0.0000      0.0000      0.0000    
            lambdas:    1.0000      1.0000      1.0000    
-------------------------------------------------------------------------------
L=0  Nkbl=1  erefs: 0.17977+309
L=1  Nkbl=1  erefs: 0.17977+309
L=2  Nkbl=1  erefs: 0.17977+309
===============================================================================
</basis_specs>

atom: Called for C.pbe                 (Z =   6)

read_vps: Pseudopotential generation method:
read_vps: ATM 3.2.2 Troullier-Martins                       
Total valence charge:    4.00000

read_vps: Pseudopotential includes a core correction:
read_vps: Pseudo-core for xc-correction

xc_check: Exchange-correlation functional:
xc_check: GGA Perdew, Burke & Ernzerhof 1996
V l=0 = -2*Zval/r beyond r=  1.4666
V l=1 = -2*Zval/r beyond r=  1.5038
V l=2 = -2*Zval/r beyond r=  1.5038
All V_l potentials equal beyond r=  1.5038
This should be close to max(r_c) in ps generation
All pots = -2*Zval/r beyond r=  1.5038

VLOCAL1: 99.0% of the norm of Vloc inside     19.196 Ry
VLOCAL1: 99.9% of the norm of Vloc inside     43.748 Ry
atom: Maximum radius for 4*pi*r*r*local-pseudopot. charge    1.81396
atom: Maximum radius for r*vlocal+2*Zval:    1.56123
GHOST: No ghost state for L =  0
GHOST: No ghost state for L =  1
GHOST: No ghost state for L =  2

KBgen: Kleinman-Bylander projectors: 
   l= 0   rc=  1.682861   el= -1.009802   Ekb=  5.530688   kbcos=  0.309203
   l= 1   rc=  1.682861   el= -0.388707   Ekb= -3.901042   kbcos= -0.358653
   l= 2   rc=  1.769164   el=  0.001971   Ekb= -0.965319   kbcos= -0.008918

KBgen: Total number of  Kleinman-Bylander projectors:    9
atom: -------------------------------------------------------------------------

atom: SANKEY-TYPE ORBITALS:
atom: Selected multiple-zeta basis: split     

SPLIT: Orbitals with angular momentum L= 0

SPLIT: Basis orbitals for state 2s

SPLIT: PAO cut-off radius determined from an
SPLIT: energy shift=  0.002500 Ry

   izeta = 1
                 lambda =    1.000000
                     rc =    5.249652
                 energy =   -1.006063
                kinetic =    0.848579
    potential(screened) =   -1.854641
       potential(ionic) =   -5.411046

   izeta = 2
                 rmatch =    2.917126
              splitnorm =    0.300000
                 energy =   -0.692240
                kinetic =    1.629846
    potential(screened) =   -2.322086
       potential(ionic) =   -6.217211

   izeta = 3
                 rmatch =    3.475094
              splitnorm =    0.150000
                 energy =   -0.875985
                kinetic =    1.293480
    potential(screened) =   -2.169465
       potential(ionic) =   -5.963906

SPLIT: Orbitals with angular momentum L= 1

SPLIT: Basis orbitals for state 2p

SPLIT: PAO cut-off radius determined from an
SPLIT: energy shift=  0.002500 Ry

   izeta = 1
                 lambda =    1.000000
                     rc =    6.574363
                 energy =   -0.384946
                kinetic =    2.366548
    potential(screened) =   -2.751494
       potential(ionic) =   -6.161480

   izeta = 2
                 rmatch =    2.917126
              splitnorm =    0.300000
                 energy =   -0.050508
                kinetic =    4.454985
    potential(screened) =   -4.505493
       potential(ionic) =   -8.466771

   izeta = 3
                 rmatch =    3.699245
              splitnorm =    0.150000
                 energy =   -0.256687
                kinetic =    3.508828
    potential(screened) =   -3.765515
       potential(ionic) =   -7.552009

POLgen: Perturbative polarization orbital with L=  2

POLgen: Polarization orbital for state 2p

   izeta = 1
                     rc =    6.574363
                 energy =    1.044923
                kinetic =    2.180482
    potential(screened) =   -1.135559
       potential(ionic) =   -3.902866

POLgen: Polarization orbital for state 2p

   izeta = 2
                 rmatch =    3.937853
              splitnorm =    0.300000
                 energy =    1.980112
                kinetic =    3.916515
    potential(screened) =   -1.936403
       potential(ionic) =   -5.266232
atom: Total number of Sankey-type orbitals: 22

atm_pop: Valence configuration (for local Pseudopot. screening):
 2s( 2.00)                                                            
 2p( 2.00)                                                            
Vna: chval, zval:    4.00000   4.00000

Vna:  Cut-off radius for the neutral-atom potential:   6.574363
comcore: Pseudo-core radius Rcore=  1.791422

atom: _________________________________________________________________________

prinput: Basis input ----------------------------------------------------------

PAO.BasisType split     

%block ChemicalSpeciesLabel
    1    6 C.pbe                   # Species index, atomic number, species label
%endblock ChemicalSpeciesLabel

%block PAO.Basis                 # Define Basis set
C.pbe                 2                    # Species label, number of l-shells
 n=2   0   3                         # n, l, Nzeta 
   5.250      2.917      3.475   
   1.000      1.000      1.000   
 n=2   1   3 P   2                   # n, l, Nzeta, Polarization, NzetaPol
   6.574      2.917      3.699   
   1.000      1.000      1.000   
%endblock PAO.Basis

prinput: ----------------------------------------------------------------------

Dumping basis to NetCDF file C.pbe.ion.nc
coor:   Atomic-coordinates input format  =     Fractional

siesta: WARNING: XV file not found

siesta: Atomic coordinates (Bohr) and species
siesta:      0.00000   0.00000   0.00000  1        1
siesta:      0.00000   0.00000   6.33814  1        2
siesta:     -0.00000   2.68504   0.00000  1        3
siesta:      2.32531   1.34252   6.33814  1        4

siesta: System type = bulk      

initatomlists: Number of atoms, orbitals, and projectors:      4    88    36

siesta: ******************** Simulation parameters ****************************
siesta:
siesta: The following are some of the parameters of the simulation.
siesta: A complete list of the parameters used, including default values,
siesta: can be found in file out.fdf
siesta:
redata: Non-Collinear-spin run           =     F
redata: SpinPolarized (Up/Down) run      =     F
redata: Number of spin components        =     1
redata: Long output                      =     T
redata: Number of Atomic Species         =        1
redata: Charge density info will appear in .RHO file
redata: Write Mulliken Pop.              =     Atomic and Orbital charges
redata: Matel table size (NRTAB)         =     1024
redata: Mesh Cutoff                      =   100.0000 Ry
redata: Net charge of the system         =     0.0000 |e|
redata: Min. number of SCF Iter          =        0
redata: Max. number of SCF Iter          =       50
redata: Mix DM or H after convergence    =     F
redata: Recompute H after scf cycle      =     F
redata: Performing Pulay mixing using    =     5 iterations
redata: Mix DM in first SCF step ?       =     F
redata: Write Pulay info on disk?        =     F
redata: Discard 1st Pulay DM after  kick =     F
redata: New DM Mixing Weight             =     0.3000
redata: New DM Occupancy tolerance       = 0.000000000001
redata: No kicks to SCF
redata: DM Mixing Weight for Kicks       =     0.5000
redata: DM Tolerance for SCF             =     0.000100
redata: Require (free) Energy convergence in SCF =     F
redata: DM (free)Energy tolerance for SCF =     0.000010 eV
redata: Require Harris convergence for SCF =     F
redata: DM Harris energy tolerance for SCF =     0.000010 eV
redata: Using Saved Data (generic)   =     T
redata: Use continuation files for DM    =     T
redata: Neglect nonoverlap interactions  =     F
redata: Method of Calculation            =     Diagonalization
redata: Divide and Conquer               =     T
redata: Electronic Temperature           =     0.0000  Ry
redata: Fix the spin of the system       =     F
redata: Dynamics option                  =     CG coord. optimization
redata: Variable cell                    =     T
redata: Use continuation files for CG    =     T
redata: Max atomic displ per move        =     0.2000  Bohr
redata: Maximum number of CG moves       =      100
redata: Force tolerance                  =     0.0004  Ry/Bohr
redata: Stress tolerance                 =     0.0200  GPa
redata: ***********************************************************************
Total number of electrons:    16.000000
Total ionic charge:    16.000000

* ProcessorY, Blocksize:    2  11


* Orbital distribution balance (max,min):    11    11

 Kpoints in:          490 . Kpoints trimmed:          490

siesta: k-point coordinates (Bohr**-1) and weights:
siesta:    1   -0.530767   -0.250722   -0.198266       0.002041
siesta:    2   -0.434264   -0.195006   -0.198266       0.002041
siesta:    3   -0.337761   -0.139290   -0.198266       0.002041
siesta:    4   -0.241258   -0.083574   -0.198266       0.002041
siesta:    5   -0.144755   -0.027858   -0.198266       0.002041
siesta:    6   -0.048252    0.027858   -0.198266       0.002041
siesta:    7    0.048252    0.083574   -0.198266       0.002041
siesta:    8    0.144755    0.139290   -0.198266       0.002041
siesta:    9    0.241258    0.195006   -0.198266       0.002041
siesta:   10    0.337761    0.250722   -0.198266       0.002041
siesta:   11    0.434264    0.306438   -0.198266       0.002041
siesta:   12    0.530767    0.362155   -0.198266       0.002041
siesta:   13    0.627270    0.417871   -0.198266       0.002041
siesta:   14   -0.627270   -0.306438   -0.198266       0.002041
siesta:   15   -0.530767   -0.139290   -0.198266       0.002041
siesta:   16   -0.434264   -0.083574   -0.198266       0.002041
siesta:   17   -0.337761   -0.027858   -0.198266       0.002041
siesta:   18   -0.241258    0.027858   -0.198266       0.002041
siesta:   19   -0.144755    0.083574   -0.198266       0.002041
siesta:   20   -0.048252    0.139290   -0.198266       0.002041
siesta:   21    0.048252    0.195006   -0.198266       0.002041
siesta:   22    0.144755    0.250722   -0.198266       0.002041
siesta:   23    0.241258    0.306438   -0.198266       0.002041
siesta:   24    0.337761    0.362155   -0.198266       0.002041
siesta:   25    0.434264    0.417871   -0.198266       0.002041
siesta:   26    0.530767    0.473587   -0.198266       0.002041
siesta:   27    0.627270    0.529303   -0.198266       0.002041
siesta:   28   -0.627270   -0.195006   -0.198266       0.002041
siesta:   29   -0.530767   -0.027858   -0.198266       0.002041
siesta:   30   -0.434264    0.027858   -0.198266       0.002041
siesta:   31   -0.337761    0.083574   -0.198266       0.002041
siesta:   32   -0.241258    0.139290   -0.198266       0.002041
siesta:   33   -0.144755    0.195006   -0.198266       0.002041
siesta:   34   -0.048252    0.250722   -0.198266       0.002041
siesta:   35    0.048252    0.306438   -0.198266       0.002041
siesta:   36    0.144755    0.362155   -0.198266       0.002041
siesta:   37    0.241258    0.417871   -0.198266       0.002041
siesta:   38    0.337761    0.473587   -0.198266       0.002041
siesta:   39    0.434264    0.529303   -0.198266       0.002041
siesta:   40    0.530767    0.585019   -0.198266       0.002041
siesta:   41    0.627270    0.640735   -0.198266       0.002041
siesta:   42   -0.627270   -0.083574   -0.198266       0.002041
siesta:   43   -0.530767    0.083574   -0.198266       0.002041
siesta:   44   -0.434264    0.139290   -0.198266       0.002041
siesta:   45   -0.337761    0.195006   -0.198266       0.002041
siesta:   46   -0.241258    0.250722   -0.198266       0.002041
siesta:   47   -0.144755    0.306438   -0.198266       0.002041
siesta:   48   -0.048252    0.362155   -0.198266       0.002041
siesta:   49    0.048252    0.417871   -0.198266       0.002041
siesta:   50    0.144755    0.473587   -0.198266       0.002041
siesta:   51    0.241258    0.529303   -0.198266       0.002041
siesta:   52    0.337761    0.585019   -0.198266       0.002041
siesta:   53    0.434264    0.640735   -0.198266       0.002041
siesta:   54    0.530767    0.696451   -0.198266       0.002041
siesta:   55    0.627270    0.752167   -0.198266       0.002041
siesta:   56   -0.627270    0.027858   -0.198266       0.002041
siesta:   57   -0.530767    0.195006   -0.198266       0.002041
siesta:   58   -0.434264    0.250722   -0.198266       0.002041
siesta:   59   -0.337761    0.306438   -0.198266       0.002041
siesta:   60   -0.241258    0.362155   -0.198266       0.002041
siesta:   61   -0.144755    0.417871   -0.198266       0.002041
siesta:   62   -0.048252    0.473587   -0.198266       0.002041
siesta:   63    0.048252    0.529303   -0.198266       0.002041
siesta:   64    0.144755    0.585019   -0.198266       0.002041
siesta:   65    0.241258    0.640735   -0.198266       0.002041
siesta:   66    0.337761    0.696451   -0.198266       0.002041
siesta:   67    0.434264    0.752167   -0.198266       0.002041
siesta:   68    0.530767    0.807883   -0.198266       0.002041
siesta:   69    0.627270    0.863599   -0.198266       0.002041
siesta:   70   -0.627270    0.139290   -0.198266       0.002041
siesta:   71   -0.530767    0.306438   -0.198266       0.002041
siesta:   72   -0.434264    0.362155   -0.198266       0.002041
siesta:   73   -0.337761    0.417871   -0.198266       0.002041
siesta:   74   -0.241258    0.473587   -0.198266       0.002041
siesta:   75   -0.144755    0.529303   -0.198266       0.002041
siesta:   76   -0.048252    0.585019   -0.198266       0.002041
siesta:   77    0.048252    0.640735   -0.198266       0.002041
siesta:   78    0.144755    0.696451   -0.198266       0.002041
siesta:   79    0.241258    0.752167   -0.198266       0.002041
siesta:   80    0.337761    0.807883   -0.198266       0.002041
siesta:   81    0.434264    0.863599   -0.198266       0.002041
siesta:   82    0.530767    0.919315   -0.198266       0.002041
siesta:   83    0.627270    0.975031   -0.198266       0.002041
siesta:   84   -0.627270    0.250722   -0.198266       0.002041
siesta:   85   -0.530767    0.417871   -0.198266       0.002041
siesta:   86   -0.434264    0.473587   -0.198266       0.002041
siesta:   87   -0.337761    0.529303   -0.198266       0.002041
siesta:   88   -0.241258    0.585019   -0.198266       0.002041
siesta:   89   -0.144755    0.640735   -0.198266       0.002041
siesta:   90   -0.048252    0.696451   -0.198266       0.002041
siesta:   91    0.048252    0.752167   -0.198266       0.002041
siesta:   92    0.144755    0.807883   -0.198266       0.002041
siesta:   93    0.241258    0.863599   -0.198266       0.002041
siesta:   94    0.337761    0.919315   -0.198266       0.002041
siesta:   95    0.434264    0.975031   -0.198266       0.002041
siesta:   96    0.530767    1.030747   -0.198266       0.002041
siesta:   97    0.627270    1.086464   -0.198266       0.002041
siesta:   98   -0.627270    0.362155   -0.198266       0.002041
siesta:   99   -0.530767   -0.250722   -0.099133       0.002041
siesta:  100   -0.434264   -0.195006   -0.099133       0.002041
siesta:  101   -0.337761   -0.139290   -0.099133       0.002041
siesta:  102   -0.241258   -0.083574   -0.099133       0.002041
siesta:  103   -0.144755   -0.027858   -0.099133       0.002041
siesta:  104   -0.048252    0.027858   -0.099133       0.002041
siesta:  105    0.048252    0.083574   -0.099133       0.002041
siesta:  106    0.144755    0.139290   -0.099133       0.002041
siesta:  107    0.241258    0.195006   -0.099133       0.002041
siesta:  108    0.337761    0.250722   -0.099133       0.002041
siesta:  109    0.434264    0.306438   -0.099133       0.002041
siesta:  110    0.530767    0.362155   -0.099133       0.002041
siesta:  111    0.627270    0.417871   -0.099133       0.002041
siesta:  112   -0.627270   -0.306438   -0.099133       0.002041
siesta:  113   -0.530767   -0.139290   -0.099133       0.002041
siesta:  114   -0.434264   -0.083574   -0.099133       0.002041
siesta:  115   -0.337761   -0.027858   -0.099133       0.002041
siesta:  116   -0.241258    0.027858   -0.099133       0.002041
siesta:  117   -0.144755    0.083574   -0.099133       0.002041
siesta:  118   -0.048252    0.139290   -0.099133       0.002041
siesta:  119    0.048252    0.195006   -0.099133       0.002041
siesta:  120    0.144755    0.250722   -0.099133       0.002041
siesta:  121    0.241258    0.306438   -0.099133       0.002041
siesta:  122    0.337761    0.362155   -0.099133       0.002041
siesta:  123    0.434264    0.417871   -0.099133       0.002041
siesta:  124    0.530767    0.473587   -0.099133       0.002041
siesta:  125    0.627270    0.529303   -0.099133       0.002041
siesta:  126   -0.627270   -0.195006   -0.099133       0.002041
siesta:  127   -0.530767   -0.027858   -0.099133       0.002041
siesta:  128   -0.434264    0.027858   -0.099133       0.002041
siesta:  129   -0.337761    0.083574   -0.099133       0.002041
siesta:  130   -0.241258    0.139290   -0.099133       0.002041
siesta:  131   -0.144755    0.195006   -0.099133       0.002041
siesta:  132   -0.048252    0.250722   -0.099133       0.002041
siesta:  133    0.048252    0.306438   -0.099133       0.002041
siesta:  134    0.144755    0.362155   -0.099133       0.002041
siesta:  135    0.241258    0.417871   -0.099133       0.002041
siesta:  136    0.337761    0.473587   -0.099133       0.002041
siesta:  137    0.434264    0.529303   -0.099133       0.002041
siesta:  138    0.530767    0.585019   -0.099133       0.002041
siesta:  139    0.627270    0.640735   -0.099133       0.002041
siesta:  140   -0.627270   -0.083574   -0.099133       0.002041
siesta:  141   -0.530767    0.083574   -0.099133       0.002041
siesta:  142   -0.434264    0.139290   -0.099133       0.002041
siesta:  143   -0.337761    0.195006   -0.099133       0.002041
siesta:  144   -0.241258    0.250722   -0.099133       0.002041
siesta:  145   -0.144755    0.306438   -0.099133       0.002041
siesta:  146   -0.048252    0.362155   -0.099133       0.002041
siesta:  147    0.048252    0.417871   -0.099133       0.002041
siesta:  148    0.144755    0.473587   -0.099133       0.002041
siesta:  149    0.241258    0.529303   -0.099133       0.002041
siesta:  150    0.337761    0.585019   -0.099133       0.002041
siesta:  151    0.434264    0.640735   -0.099133       0.002041
siesta:  152    0.530767    0.696451   -0.099133       0.002041
siesta:  153    0.627270    0.752167   -0.099133       0.002041
siesta:  154   -0.627270    0.027858   -0.099133       0.002041
siesta:  155   -0.530767    0.195006   -0.099133       0.002041
siesta:  156   -0.434264    0.250722   -0.099133       0.002041
siesta:  157   -0.337761    0.306438   -0.099133       0.002041
siesta:  158   -0.241258    0.362155   -0.099133       0.002041
siesta:  159   -0.144755    0.417871   -0.099133       0.002041
siesta:  160   -0.048252    0.473587   -0.099133       0.002041
siesta:  161    0.048252    0.529303   -0.099133       0.002041
siesta:  162    0.144755    0.585019   -0.099133       0.002041
siesta:  163    0.241258    0.640735   -0.099133       0.002041
siesta:  164    0.337761    0.696451   -0.099133       0.002041
siesta:  165    0.434264    0.752167   -0.099133       0.002041
siesta:  166    0.530767    0.807883   -0.099133       0.002041
siesta:  167    0.627270    0.863599   -0.099133       0.002041
siesta:  168   -0.627270    0.139290   -0.099133       0.002041
siesta:  169   -0.530767    0.306438   -0.099133       0.002041
siesta:  170   -0.434264    0.362155   -0.099133       0.002041
siesta:  171   -0.337761    0.417871   -0.099133       0.002041
siesta:  172   -0.241258    0.473587   -0.099133       0.002041
siesta:  173   -0.144755    0.529303   -0.099133       0.002041
siesta:  174   -0.048252    0.585019   -0.099133       0.002041
siesta:  175    0.048252    0.640735   -0.099133       0.002041
siesta:  176    0.144755    0.696451   -0.099133       0.002041
siesta:  177    0.241258    0.752167   -0.099133       0.002041
siesta:  178    0.337761    0.807883   -0.099133       0.002041
siesta:  179    0.434264    0.863599   -0.099133       0.002041
siesta:  180    0.530767    0.919315   -0.099133       0.002041
siesta:  181    0.627270    0.975031   -0.099133       0.002041
siesta:  182   -0.627270    0.250722   -0.099133       0.002041
siesta:  183   -0.530767    0.417871   -0.099133       0.002041
siesta:  184   -0.434264    0.473587   -0.099133       0.002041
siesta:  185   -0.337761    0.529303   -0.099133       0.002041
siesta:  186   -0.241258    0.585019   -0.099133       0.002041
siesta:  187   -0.144755    0.640735   -0.099133       0.002041
siesta:  188   -0.048252    0.696451   -0.099133       0.002041
siesta:  189    0.048252    0.752167   -0.099133       0.002041
siesta:  190    0.144755    0.807883   -0.099133       0.002041
siesta:  191    0.241258    0.863599   -0.099133       0.002041
siesta:  192    0.337761    0.919315   -0.099133       0.002041
siesta:  193    0.434264    0.975031   -0.099133       0.002041
siesta:  194    0.530767    1.030747   -0.099133       0.002041
siesta:  195    0.627270    1.086464   -0.099133       0.002041
siesta:  196   -0.627270    0.362155   -0.099133       0.002041
siesta:  197   -0.530767   -0.250722    0.000000       0.002041
siesta:  198   -0.434264   -0.195006    0.000000       0.002041
siesta:  199   -0.337761   -0.139290    0.000000       0.002041
siesta:  200   -0.241258   -0.083574    0.000000       0.002041
siesta:  201   -0.144755   -0.027858    0.000000       0.002041
siesta:  202   -0.048252    0.027858    0.000000       0.002041
siesta:  203    0.048252    0.083574    0.000000       0.002041
siesta:  204    0.144755    0.139290    0.000000       0.002041
siesta:  205    0.241258    0.195006    0.000000       0.002041
siesta:  206    0.337761    0.250722    0.000000       0.002041
siesta:  207    0.434264    0.306438    0.000000       0.002041
siesta:  208    0.530767    0.362155    0.000000       0.002041
siesta:  209    0.627270    0.417871    0.000000       0.002041
siesta:  210   -0.627270   -0.306438    0.000000       0.002041
siesta:  211   -0.530767   -0.139290    0.000000       0.002041
siesta:  212   -0.434264   -0.083574    0.000000       0.002041
siesta:  213   -0.337761   -0.027858    0.000000       0.002041
siesta:  214   -0.241258    0.027858    0.000000       0.002041
siesta:  215   -0.144755    0.083574    0.000000       0.002041
siesta:  216   -0.048252    0.139290    0.000000       0.002041
siesta:  217    0.048252    0.195006    0.000000       0.002041
siesta:  218    0.144755    0.250722    0.000000       0.002041
siesta:  219    0.241258    0.306438    0.000000       0.002041
siesta:  220    0.337761    0.362155    0.000000       0.002041
siesta:  221    0.434264    0.417871    0.000000       0.002041
siesta:  222    0.530767    0.473587    0.000000       0.002041
siesta:  223    0.627270    0.529303    0.000000       0.002041
siesta:  224   -0.627270   -0.195006    0.000000       0.002041
siesta:  225   -0.530767   -0.027858    0.000000       0.002041
siesta:  226   -0.434264    0.027858    0.000000       0.002041
siesta:  227   -0.337761    0.083574    0.000000       0.002041
siesta:  228   -0.241258    0.139290    0.000000       0.002041
siesta:  229   -0.144755    0.195006    0.000000       0.002041
siesta:  230   -0.048252    0.250722    0.000000       0.002041
siesta:  231    0.048252    0.306438    0.000000       0.002041
siesta:  232    0.144755    0.362155    0.000000       0.002041
siesta:  233    0.241258    0.417871    0.000000       0.002041
siesta:  234    0.337761    0.473587    0.000000       0.002041
siesta:  235    0.434264    0.529303    0.000000       0.002041
siesta:  236    0.530767    0.585019    0.000000       0.002041
siesta:  237    0.627270    0.640735    0.000000       0.002041
siesta:  238   -0.627270   -0.083574    0.000000       0.002041
siesta:  239   -0.530767    0.083574    0.000000       0.002041
siesta:  240   -0.434264    0.139290    0.000000       0.002041
siesta:  241   -0.337761    0.195006    0.000000       0.002041
siesta:  242   -0.241258    0.250722    0.000000       0.002041
siesta:  243   -0.144755    0.306438    0.000000       0.002041
siesta:  244   -0.048252    0.362155    0.000000       0.002041
siesta:  245    0.048252    0.417871    0.000000       0.002041
siesta:  246    0.144755    0.473587    0.000000       0.002041
siesta:  247    0.241258    0.529303    0.000000       0.002041
siesta:  248    0.337761    0.585019    0.000000       0.002041
siesta:  249    0.434264    0.640735    0.000000       0.002041
siesta:  250    0.530767    0.696451    0.000000       0.002041
siesta:  251    0.627270    0.752167    0.000000       0.002041
siesta:  252   -0.627270    0.027858    0.000000       0.002041
siesta:  253   -0.530767    0.195006    0.000000       0.002041
siesta:  254   -0.434264    0.250722    0.000000       0.002041
siesta:  255   -0.337761    0.306438    0.000000       0.002041
siesta:  256   -0.241258    0.362155    0.000000       0.002041
siesta:  257   -0.144755    0.417871    0.000000       0.002041
siesta:  258   -0.048252    0.473587    0.000000       0.002041
siesta:  259    0.048252    0.529303    0.000000       0.002041
siesta:  260    0.144755    0.585019    0.000000       0.002041
siesta:  261    0.241258    0.640735    0.000000       0.002041
siesta:  262    0.337761    0.696451    0.000000       0.002041
siesta:  263    0.434264    0.752167    0.000000       0.002041
siesta:  264    0.530767    0.807883    0.000000       0.002041
siesta:  265    0.627270    0.863599    0.000000       0.002041
siesta:  266   -0.627270    0.139290    0.000000       0.002041
siesta:  267   -0.530767    0.306438    0.000000       0.002041
siesta:  268   -0.434264    0.362155    0.000000       0.002041
siesta:  269   -0.337761    0.417871    0.000000       0.002041
siesta:  270   -0.241258    0.473587    0.000000       0.002041
siesta:  271   -0.144755    0.529303    0.000000       0.002041
siesta:  272   -0.048252    0.585019    0.000000       0.002041
siesta:  273    0.048252    0.640735    0.000000       0.002041
siesta:  274    0.144755    0.696451    0.000000       0.002041
siesta:  275    0.241258    0.752167    0.000000       0.002041
siesta:  276    0.337761    0.807883    0.000000       0.002041
siesta:  277    0.434264    0.863599    0.000000       0.002041
siesta:  278    0.530767    0.919315    0.000000       0.002041
siesta:  279    0.627270    0.975031    0.000000       0.002041
siesta:  280   -0.627270    0.250722    0.000000       0.002041
siesta:  281   -0.530767    0.417871    0.000000       0.002041
siesta:  282   -0.434264    0.473587    0.000000       0.002041
siesta:  283   -0.337761    0.529303    0.000000       0.002041
siesta:  284   -0.241258    0.585019    0.000000       0.002041
siesta:  285   -0.144755    0.640735    0.000000       0.002041
siesta:  286   -0.048252    0.696451    0.000000       0.002041
siesta:  287    0.048252    0.752167    0.000000       0.002041
siesta:  288    0.144755    0.807883    0.000000       0.002041
siesta:  289    0.241258    0.863599    0.000000       0.002041
siesta:  290    0.337761    0.919315    0.000000       0.002041
siesta:  291    0.434264    0.975031    0.000000       0.002041
siesta:  292    0.530767    1.030747    0.000000       0.002041
siesta:  293    0.627270    1.086464    0.000000       0.002041
siesta:  294   -0.627270    0.362155    0.000000       0.002041
siesta:  295   -0.530767   -0.250722    0.099133       0.002041
siesta:  296   -0.434264   -0.195006    0.099133       0.002041
siesta:  297   -0.337761   -0.139290    0.099133       0.002041
siesta:  298   -0.241258   -0.083574    0.099133       0.002041
siesta:  299   -0.144755   -0.027858    0.099133       0.002041
siesta:  300   -0.048252    0.027858    0.099133       0.002041
siesta:  301    0.048252    0.083574    0.099133       0.002041
siesta:  302    0.144755    0.139290    0.099133       0.002041
siesta:  303    0.241258    0.195006    0.099133       0.002041
siesta:  304    0.337761    0.250722    0.099133       0.002041
siesta:  305    0.434264    0.306438    0.099133       0.002041
siesta:  306    0.530767    0.362155    0.099133       0.002041
siesta:  307    0.627270    0.417871    0.099133       0.002041
siesta:  308   -0.627270   -0.306438    0.099133       0.002041
siesta:  309   -0.530767   -0.139290    0.099133       0.002041
siesta:  310   -0.434264   -0.083574    0.099133       0.002041
siesta:  311   -0.337761   -0.027858    0.099133       0.002041
siesta:  312   -0.241258    0.027858    0.099133       0.002041
siesta:  313   -0.144755    0.083574    0.099133       0.002041
siesta:  314   -0.048252    0.139290    0.099133       0.002041
siesta:  315    0.048252    0.195006    0.099133       0.002041
siesta:  316    0.144755    0.250722    0.099133       0.002041
siesta:  317    0.241258    0.306438    0.099133       0.002041
siesta:  318    0.337761    0.362155    0.099133       0.002041
siesta:  319    0.434264    0.417871    0.099133       0.002041
siesta:  320    0.530767    0.473587    0.099133       0.002041
siesta:  321    0.627270    0.529303    0.099133       0.002041
siesta:  322   -0.627270   -0.195006    0.099133       0.002041
siesta:  323   -0.530767   -0.027858    0.099133       0.002041
siesta:  324   -0.434264    0.027858    0.099133       0.002041
siesta:  325   -0.337761    0.083574    0.099133       0.002041
siesta:  326   -0.241258    0.139290    0.099133       0.002041
siesta:  327   -0.144755    0.195006    0.099133       0.002041
siesta:  328   -0.048252    0.250722    0.099133       0.002041
siesta:  329    0.048252    0.306438    0.099133       0.002041
siesta:  330    0.144755    0.362155    0.099133       0.002041
siesta:  331    0.241258    0.417871    0.099133       0.002041
siesta:  332    0.337761    0.473587    0.099133       0.002041
siesta:  333    0.434264    0.529303    0.099133       0.002041
siesta:  334    0.530767    0.585019    0.099133       0.002041
siesta:  335    0.627270    0.640735    0.099133       0.002041
siesta:  336   -0.627270   -0.083574    0.099133       0.002041
siesta:  337   -0.530767    0.083574    0.099133       0.002041
siesta:  338   -0.434264    0.139290    0.099133       0.002041
siesta:  339   -0.337761    0.195006    0.099133       0.002041
siesta:  340   -0.241258    0.250722    0.099133       0.002041
siesta:  341   -0.144755    0.306438    0.099133       0.002041
siesta:  342   -0.048252    0.362155    0.099133       0.002041
siesta:  343    0.048252    0.417871    0.099133       0.002041
siesta:  344    0.144755    0.473587    0.099133       0.002041
siesta:  345    0.241258    0.529303    0.099133       0.002041
siesta:  346    0.337761    0.585019    0.099133       0.002041
siesta:  347    0.434264    0.640735    0.099133       0.002041
siesta:  348    0.530767    0.696451    0.099133       0.002041
siesta:  349    0.627270    0.752167    0.099133       0.002041
siesta:  350   -0.627270    0.027858    0.099133       0.002041
siesta:  351   -0.530767    0.195006    0.099133       0.002041
siesta:  352   -0.434264    0.250722    0.099133       0.002041
siesta:  353   -0.337761    0.306438    0.099133       0.002041
siesta:  354   -0.241258    0.362155    0.099133       0.002041
siesta:  355   -0.144755    0.417871    0.099133       0.002041
siesta:  356   -0.048252    0.473587    0.099133       0.002041
siesta:  357    0.048252    0.529303    0.099133       0.002041
siesta:  358    0.144755    0.585019    0.099133       0.002041
siesta:  359    0.241258    0.640735    0.099133       0.002041
siesta:  360    0.337761    0.696451    0.099133       0.002041
siesta:  361    0.434264    0.752167    0.099133       0.002041
siesta:  362    0.530767    0.807883    0.099133       0.002041
siesta:  363    0.627270    0.863599    0.099133       0.002041
siesta:  364   -0.627270    0.139290    0.099133       0.002041
siesta:  365   -0.530767    0.306438    0.099133       0.002041
siesta:  366   -0.434264    0.362155    0.099133       0.002041
siesta:  367   -0.337761    0.417871    0.099133       0.002041
siesta:  368   -0.241258    0.473587    0.099133       0.002041
siesta:  369   -0.144755    0.529303    0.099133       0.002041
siesta:  370   -0.048252    0.585019    0.099133       0.002041
siesta:  371    0.048252    0.640735    0.099133       0.002041
siesta:  372    0.144755    0.696451    0.099133       0.002041
siesta:  373    0.241258    0.752167    0.099133       0.002041
siesta:  374    0.337761    0.807883    0.099133       0.002041
siesta:  375    0.434264    0.863599    0.099133       0.002041
siesta:  376    0.530767    0.919315    0.099133       0.002041
siesta:  377    0.627270    0.975031    0.099133       0.002041
siesta:  378   -0.627270    0.250722    0.099133       0.002041
siesta:  379   -0.530767    0.417871    0.099133       0.002041
siesta:  380   -0.434264    0.473587    0.099133       0.002041
siesta:  381   -0.337761    0.529303    0.099133       0.002041
siesta:  382   -0.241258    0.585019    0.099133       0.002041
siesta:  383   -0.144755    0.640735    0.099133       0.002041
siesta:  384   -0.048252    0.696451    0.099133       0.002041
siesta:  385    0.048252    0.752167    0.099133       0.002041
siesta:  386    0.144755    0.807883    0.099133       0.002041
siesta:  387    0.241258    0.863599    0.099133       0.002041
siesta:  388    0.337761    0.919315    0.099133       0.002041
siesta:  389    0.434264    0.975031    0.099133       0.002041
siesta:  390    0.530767    1.030747    0.099133       0.002041
siesta:  391    0.627270    1.086464    0.099133       0.002041
siesta:  392   -0.627270    0.362155    0.099133       0.002041
siesta:  393   -0.530767   -0.250722    0.198266       0.002041
siesta:  394   -0.434264   -0.195006    0.198266       0.002041
siesta:  395   -0.337761   -0.139290    0.198266       0.002041
siesta:  396   -0.241258   -0.083574    0.198266       0.002041
siesta:  397   -0.144755   -0.027858    0.198266       0.002041
siesta:  398   -0.048252    0.027858    0.198266       0.002041
siesta:  399    0.048252    0.083574    0.198266       0.002041
siesta:  400    0.144755    0.139290    0.198266       0.002041
siesta:  401    0.241258    0.195006    0.198266       0.002041
siesta:  402    0.337761    0.250722    0.198266       0.002041
siesta:  403    0.434264    0.306438    0.198266       0.002041
siesta:  404    0.530767    0.362155    0.198266       0.002041
siesta:  405    0.627270    0.417871    0.198266       0.002041
siesta:  406   -0.627270   -0.306438    0.198266       0.002041
siesta:  407   -0.530767   -0.139290    0.198266       0.002041
siesta:  408   -0.434264   -0.083574    0.198266       0.002041
siesta:  409   -0.337761   -0.027858    0.198266       0.002041
siesta:  410   -0.241258    0.027858    0.198266       0.002041
siesta:  411   -0.144755    0.083574    0.198266       0.002041
siesta:  412   -0.048252    0.139290    0.198266       0.002041
siesta:  413    0.048252    0.195006    0.198266       0.002041
siesta:  414    0.144755    0.250722    0.198266       0.002041
siesta:  415    0.241258    0.306438    0.198266       0.002041
siesta:  416    0.337761    0.362155    0.198266       0.002041
siesta:  417    0.434264    0.417871    0.198266       0.002041
siesta:  418    0.530767    0.473587    0.198266       0.002041
siesta:  419    0.627270    0.529303    0.198266       0.002041
siesta:  420   -0.627270   -0.195006    0.198266       0.002041
siesta:  421   -0.530767   -0.027858    0.198266       0.002041
siesta:  422   -0.434264    0.027858    0.198266       0.002041
siesta:  423   -0.337761    0.083574    0.198266       0.002041
siesta:  424   -0.241258    0.139290    0.198266       0.002041
siesta:  425   -0.144755    0.195006    0.198266       0.002041
siesta:  426   -0.048252    0.250722    0.198266       0.002041
siesta:  427    0.048252    0.306438    0.198266       0.002041
siesta:  428    0.144755    0.362155    0.198266       0.002041
siesta:  429    0.241258    0.417871    0.198266       0.002041
siesta:  430    0.337761    0.473587    0.198266       0.002041
siesta:  431    0.434264    0.529303    0.198266       0.002041
siesta:  432    0.530767    0.585019    0.198266       0.002041
siesta:  433    0.627270    0.640735    0.198266       0.002041
siesta:  434   -0.627270   -0.083574    0.198266       0.002041
siesta:  435   -0.530767    0.083574    0.198266       0.002041
siesta:  436   -0.434264    0.139290    0.198266       0.002041
siesta:  437   -0.337761    0.195006    0.198266       0.002041
siesta:  438   -0.241258    0.250722    0.198266       0.002041
siesta:  439   -0.144755    0.306438    0.198266       0.002041
siesta:  440   -0.048252    0.362155    0.198266       0.002041
siesta:  441    0.048252    0.417871    0.198266       0.002041
siesta:  442    0.144755    0.473587    0.198266       0.002041
siesta:  443    0.241258    0.529303    0.198266       0.002041
siesta:  444    0.337761    0.585019    0.198266       0.002041
siesta:  445    0.434264    0.640735    0.198266       0.002041
siesta:  446    0.530767    0.696451    0.198266       0.002041
siesta:  447    0.627270    0.752167    0.198266       0.002041
siesta:  448   -0.627270    0.027858    0.198266       0.002041
siesta:  449   -0.530767    0.195006    0.198266       0.002041
siesta:  450   -0.434264    0.250722    0.198266       0.002041
siesta:  451   -0.337761    0.306438    0.198266       0.002041
siesta:  452   -0.241258    0.362155    0.198266       0.002041
siesta:  453   -0.144755    0.417871    0.198266       0.002041
siesta:  454   -0.048252    0.473587    0.198266       0.002041
siesta:  455    0.048252    0.529303    0.198266       0.002041
siesta:  456    0.144755    0.585019    0.198266       0.002041
siesta:  457    0.241258    0.640735    0.198266       0.002041
siesta:  458    0.337761    0.696451    0.198266       0.002041
siesta:  459    0.434264    0.752167    0.198266       0.002041
siesta:  460    0.530767    0.807883    0.198266       0.002041
siesta:  461    0.627270    0.863599    0.198266       0.002041
siesta:  462   -0.627270    0.139290    0.198266       0.002041
siesta:  463   -0.530767    0.306438    0.198266       0.002041
siesta:  464   -0.434264    0.362155    0.198266       0.002041
siesta:  465   -0.337761    0.417871    0.198266       0.002041
siesta:  466   -0.241258    0.473587    0.198266       0.002041
siesta:  467   -0.144755    0.529303    0.198266       0.002041
siesta:  468   -0.048252    0.585019    0.198266       0.002041
siesta:  469    0.048252    0.640735    0.198266       0.002041
siesta:  470    0.144755    0.696451    0.198266       0.002041
siesta:  471    0.241258    0.752167    0.198266       0.002041
siesta:  472    0.337761    0.807883    0.198266       0.002041
siesta:  473    0.434264    0.863599    0.198266       0.002041
siesta:  474    0.530767    0.919315    0.198266       0.002041
siesta:  475    0.627270    0.975031    0.198266       0.002041
siesta:  476   -0.627270    0.250722    0.198266       0.002041
siesta:  477   -0.530767    0.417871    0.198266       0.002041
siesta:  478   -0.434264    0.473587    0.198266       0.002041
siesta:  479   -0.337761    0.529303    0.198266       0.002041
siesta:  480   -0.241258    0.585019    0.198266       0.002041
siesta:  481   -0.144755    0.640735    0.198266       0.002041
siesta:  482   -0.048252    0.696451    0.198266       0.002041
siesta:  483    0.048252    0.752167    0.198266       0.002041
siesta:  484    0.144755    0.807883    0.198266       0.002041
siesta:  485    0.241258    0.863599    0.198266       0.002041
siesta:  486    0.337761    0.919315    0.198266       0.002041
siesta:  487    0.434264    0.975031    0.198266       0.002041
siesta:  488    0.530767    1.030747    0.198266       0.002041
siesta:  489    0.627270    1.086464    0.198266       0.002041
siesta:  490   -0.627270    0.362155    0.198266       0.002041

siesta: k-grid: Number of k-points =   490
siesta: k-grid: Cutoff (effective) =    16.770 Ang
siesta: k-grid: Supercell and displacements
siesta: k-grid:    0  14   0      0.500
siesta: k-grid:   14   0   0      0.500
siesta: k-grid:    0   0   5      0.000
Naive supercell factors:     8    8    3

superc: Internal auxiliary supercell:     8 x     8 x     3  =     192
superc: Number of atoms, orbitals, and projectors:    768  16896   6912

                     ====================================
                        Begin CG opt. move =      0
                     ====================================

outcoor: Atomic coordinates (fractional):                   
    0.00000000    0.00000000    0.00000000   1       1  C.pbe
    0.00000000    0.00000000    0.50000000   1       2  C.pbe
    0.33333333    0.66666667    0.00000000   1       3  C.pbe
    0.66666667    0.33333333    0.50000000   1       4  C.pbe

superc: Internal auxiliary supercell:     8 x     8 x     3  =     192
superc: Number of atoms, orbitals, and projectors:    768  16896   6912

outcell: Unit cell vectors (Ang):
        2.461000    0.000000    0.000000
       -1.230500    2.131289    0.000000
        0.000000    0.000000    6.708000

outcell: Cell vector modules (Ang)   :    2.461000    2.461000    6.708000
outcell: Cell angles (23,13,12) (deg):     90.0000     90.0000    120.0000
outcell: Cell volume (Ang**3)        :     35.1841
New_DM. Step:     1
Initializing Density Matrix...
New grid distribution:   1
           1       1:    8    1:    4    1:    6
           2       1:    8    1:    4    7:   12
           3       1:    8    1:    4   13:   18
           4       1:    8    1:    4   19:   24
           5       1:    8    5:    8    1:    6
           6       1:    8    5:    8    7:   12
           7       1:    8    5:    8   13:   18
           8       1:    8    5:    8   19:   24

InitMesh: MESH =    16 x    16 x    48 =       12288
InitMesh: (bp) =     8 x     8 x    24 =        1536
InitMesh: Mesh cutoff (required, used) =   100.000   141.514 Ry
ExtMesh (bp) on 0 =    64 x    60 x    58 =      222720
New grid distribution:   2
           1       1:    8    1:    4    1:    6
           2       1:    8    1:    4    7:   12
           3       1:    8    1:    4   13:   18
           4       1:    8    1:    4   19:   24
           5       1:    8    5:    8    1:    6
           6       1:    8    5:    8    7:   12
           7       1:    8    5:    8   13:   18
           8       1:    8    5:    8   19:   24
New grid distribution:   3
           1       1:    8    1:    4    1:    6
           2       1:    8    1:    4    7:   12
           3       1:    8    1:    4   13:   18
           4       1:    8    1:    4   19:   24
           5       1:    8    5:    8    1:    6
           6       1:    8    5:    8    7:   12
           7       1:    8    5:    8   13:   18
           8       1:    8    5:    8   19:   24
Setting up quadratic distribution...
ExtMesh (bp) on 0 =    64 x    60 x    58 =      222720
PhiOnMesh: Number of (b)points on node 0 =                  192
PhiOnMesh: nlist on node 0 =                46123

stepf: Fermi-Dirac step function

siesta: Program's energy decomposition (eV):
siesta: Ebs     =      -265.568642
siesta: Eions   =      1035.253114
siesta: Ena     =       233.316080
siesta: Ekin    =       349.963378
siesta: Enl     =        13.011167
siesta: DEna    =         0.000000
siesta: DUscf   =         0.000000
siesta: DUext   =         0.000000
siesta: Exc     =      -197.798063
siesta: eta*DQ  =         0.000000
siesta: Emadel  =         0.000000
siesta: Emeta   =         0.000000
siesta: Emolmec =        -0.425283
siesta: Ekinion =         0.000000
siesta: Eharris =      -632.572675
siesta: Etot    =      -637.185835
siesta: FreeEng =      -637.185835

   scf: iscf   Eharris(eV)      E_KS(eV)   FreeEng(eV)    dDmax  Ef(eV)
   scf:    1     -632.5727     -637.1858     -637.1858  1.51413 -6.8499
timer: Routine,Calls,Time,% =    IterSCF     1       8.681  77.41
   scf:    2     -631.3768     -630.5429     -630.5429  0.28880 -5.1885
   scf:    3     -631.1421     -631.6700     -631.6700  0.07842 -5.5180
   scf:    4     -631.1272     -631.0899     -631.0899  0.00808 -5.6899
   scf:    5     -631.1270     -631.0967     -631.0967  0.00803 -5.7093
   scf:    6     -631.1271     -631.1260     -631.1260  0.00022 -5.7072
   scf:    7     -631.1271     -631.1269     -631.1269  0.00022 -5.7072
   scf:    8     -631.1271     -631.1270     -631.1270  0.00003 -5.7073

SCF Convergence by dMax criterion
max |DM_out - DM_in|:     0.00003159
SCF cycle converged after    8 iterations

Using DM_out to compute the final energy and forces

grdsam: Reading %block Grid.CellSampling
grdsam: Grid-cell sampling: 0 / 1
grdsam: Grid-cell sampling: 1 / 1
New grid distribution:   1
           1       1:    8    1:    4    1:    6
           2       1:    8    1:    4    7:   12
           3       1:    8    1:    4   13:   18
           4       1:    8    1:    4   19:   24
           5       1:    8    5:    8    1:    6
           6       1:    8    5:    8    7:   12
           7       1:    8    5:    8   13:   18
           8       1:    8    5:    8   19:   24

InitMesh: MESH =    16 x    16 x    48 =       12288
InitMesh: (bp) =     8 x     8 x    24 =        1536
InitMesh: Mesh cutoff (required, used) =   100.000   141.514 Ry
ExtMesh (bp) on 0 =    64 x    60 x    58 =      222720
New grid distribution:   2
           1       1:    8    1:    4    1:    6
           2       1:    8    1:    4    7:   12
           3       1:    8    1:    4   13:   18
           4       1:    8    1:    4   19:   24
           5       1:    8    5:    8    1:    6
           6       1:    8    5:    8    7:   12
           7       1:    8    5:    8   13:   18
           8       1:    8    5:    8   19:   24
New grid distribution:   3
           1       1:    8    1:    4    1:    6
           2       1:    8    1:    4    7:   12
           3       1:    8    1:    4   13:   18
           4       1:    8    1:    4   19:   24
           5       1:    8    5:    8    1:    6
           6       1:    8    5:    8    7:   12
           7       1:    8    5:    8   13:   18
           8       1:    8    5:    8   19:   24
Setting up quadratic distribution...
ExtMesh (bp) on 0 =    64 x    60 x    58 =      222720
PhiOnMesh: Number of (b)points on node 0 =                  192
PhiOnMesh: nlist on node 0 =                45751

grdsam: Max (sampled force - avg. force):   0.010865   0.006273  -0.000000 eV/Ang
grdsam: Standard deviation of sampled force:   0.007694   0.004442   0.000000 eV/Ang
grdsam: Max (sampled stress - avg. stress):   0.946942 kbar


MM-Stress (kbar):       21.25       21.25       18.07        0.00        0.00       -0.00

siesta: E_KS(eV) =             -631.1259

siesta: E_KS - E_eggbox =      -631.1259

siesta: Atomic forces (eV/Ang):
     1    0.043836   -0.025309   -0.000000
     2   -0.043836    0.025309   -0.000000
     3   -0.035411    0.020444    0.000000
     4    0.035411   -0.020444    0.000000
----------------------------------------
   Tot   -0.000000    0.000000   -0.000000
----------------------------------------
   Max    0.043836
   Res    0.026564    sqrt( Sum f_i^2 / 3N )
----------------------------------------
   Max    0.043836    constrained

Stress-tensor-Voigt (kbar):      -17.78      -21.20       -9.28       -2.97       -0.00       -0.00
(Free)E + p*V (eV/cell)     -630.7727
Target enthalpy (eV/cell)     -631.1259

siesta: Stress tensor (static) (eV/Ang**3):
        -0.011095   -0.001852    0.000000
        -0.001852   -0.013233   -0.000000
        -0.000000   -0.000000   -0.005791

siesta: Pressure (static):         16.08536010  kBar

siesta: Stress tensor (total) (eV/Ang**3):
        -0.011095   -0.001852    0.000000
        -0.001852   -0.013233   -0.000000
        -0.000000   -0.000000   -0.005791

siesta: Pressure (total):         16.08536010  kBar

mulliken: Atomic and Orbital Populations:

Species: C.pbe               
Atom  Qatom  Qorb
               2s      2s      2s      2py     2pz     2px     2py     2pz     
               2px     2py     2pz     2px     2Pdxy   2Pdyz   2Pdz2   2Pdxz   
               2Pdx2-y22Pdxy   2Pdyz   2Pdz2   2Pdxz   2Pdx2-y2
   1  3.999   1.009   0.156   0.016   0.748   0.708   0.748   0.259   0.066
              0.259  -0.095   0.144  -0.095   0.029   0.039  -0.050   0.039

              0.029  -0.014   0.002   0.014   0.002  -0.014
   2  3.999   1.009   0.156   0.016   0.748   0.708   0.748   0.259   0.066
              0.259  -0.095   0.144  -0.095   0.029   0.039  -0.050   0.039

              0.029  -0.014   0.002   0.014   0.002  -0.014
   3  4.001   1.015   0.150   0.022   0.731   0.703   0.731   0.264   0.065
              0.264  -0.082   0.152  -0.082   0.031   0.043  -0.070   0.043

              0.031  -0.014   0.001   0.018   0.001  -0.014
   4  4.001   1.015   0.150   0.022   0.731   0.703   0.731   0.264   0.065
              0.264  -0.082   0.152  -0.082   0.031   0.043  -0.070   0.043

              0.031  -0.014   0.001   0.018   0.001  -0.014

mulliken: Qtot =       16.000

cgvc: No target stress found, assuming hydrostatic MD.TargetPressure.

cgvc: Target stress (kBar)
cgvc:        -0.000       0.000       0.000
cgvc:         0.000      -0.000       0.000
cgvc:         0.000       0.000      -0.000

cgvc: WARNING: CG file not found

                     ====================================
                        Begin CG opt. move =      1
                     ====================================

outcoor: Atomic coordinates (fractional):                   
    0.01101341   -0.01101343   -0.00000000   1       1  C.pbe
   -0.01101341    0.01101343    0.50000000   1       2  C.pbe
    0.32443662    0.67556339    0.00000000   1       3  C.pbe
    0.67556338    0.32443661    0.50000000   1       4  C.pbe
 Kpoints in:          455 . Kpoints trimmed:          423

siesta: k-point coordinates (Bohr**-1) and weights:
siesta:    1   -0.617029   -0.354930   -0.197272       0.002367
siesta:    2   -0.514191   -0.295775   -0.197272       0.002367
siesta:    3   -0.411353   -0.236620   -0.197272       0.002367
siesta:    4   -0.308515   -0.177465   -0.197272       0.002367
siesta:    5   -0.205676   -0.118310   -0.197272       0.002367
siesta:    6   -0.102838   -0.059155   -0.197272       0.002367
siesta:    7   -0.000000    0.000000   -0.197272       0.002367
siesta:    8    0.102838    0.059155   -0.197272       0.002367
siesta:    9    0.205676    0.118310   -0.197272       0.002367
siesta:   10    0.308515    0.177465   -0.197272       0.002367
siesta:   11    0.411353    0.236620   -0.197272       0.002367
siesta:   12    0.514191    0.295775   -0.197272       0.002367
siesta:   13    0.617029    0.354930   -0.197272       0.002367
siesta:   14   -0.617219   -0.236292   -0.197272       0.002367
siesta:   15   -0.514380   -0.177137   -0.197272       0.002367
siesta:   16   -0.411542   -0.117982   -0.197272       0.002367
siesta:   17   -0.308704   -0.058827   -0.197272       0.002367
siesta:   18   -0.205866    0.000328   -0.197272       0.002367
siesta:   19   -0.103028    0.059483   -0.197272       0.002367
siesta:   20   -0.000189    0.118638   -0.197272       0.002367
siesta:   21    0.102649    0.177793   -0.197272       0.002367
siesta:   22    0.205487    0.236948   -0.197272       0.002367
siesta:   23    0.308325    0.296103   -0.197272       0.002367
siesta:   24    0.411163    0.355258   -0.197272       0.002367
siesta:   25    0.514002    0.414413   -0.197272       0.002367
siesta:   26    0.616840    0.473568   -0.197272       0.002367
siesta:   27   -0.617408   -0.117654   -0.197272       0.002367
siesta:   28   -0.514570   -0.058499   -0.197272       0.002367
siesta:   29   -0.411731    0.000656   -0.197272       0.002367
siesta:   30   -0.308893    0.059811   -0.197272       0.002367
siesta:   31   -0.206055    0.118966   -0.197272       0.002367
siesta:   32   -0.103217    0.178121   -0.197272       0.002367
siesta:   33   -0.000379    0.237276   -0.197272       0.002367
siesta:   34    0.102460    0.296431   -0.197272       0.002367
siesta:   35    0.205298    0.355586   -0.197272       0.002367
siesta:   36    0.308136    0.414741   -0.197272       0.002367
siesta:   37    0.410974    0.473896   -0.197272       0.002367
siesta:   38    0.513812    0.533051   -0.197272       0.002367
siesta:   39    0.616651    0.592206   -0.197272       0.002367
siesta:   40   -0.617597    0.000984   -0.197272       0.002367
siesta:   41   -0.514759    0.060139   -0.197272       0.002367
siesta:   42   -0.411921    0.119294   -0.197272       0.002367
siesta:   43   -0.309083    0.178449   -0.197272       0.002367
siesta:   44   -0.206244    0.237604   -0.197272       0.002367
siesta:   45   -0.103406    0.296759   -0.197272       0.002367
siesta:   46   -0.000568    0.355914   -0.197272       0.002367
siesta:   47    0.102270    0.415069   -0.197272       0.002367
siesta:   48    0.205108    0.474224   -0.197272       0.002367
siesta:   49    0.307947    0.533379   -0.197272       0.002367
siesta:   50    0.410785    0.592534   -0.197272       0.002367
siesta:   51    0.513623    0.651689   -0.197272       0.002367
siesta:   52    0.616461    0.710844   -0.197272       0.002367
siesta:   53   -0.617786    0.119622   -0.197272       0.002367
siesta:   54   -0.514948    0.178777   -0.197272       0.002367
siesta:   55   -0.412110    0.237932   -0.197272       0.002367
siesta:   56   -0.309272    0.297087   -0.197272       0.002367
siesta:   57   -0.206434    0.356242   -0.197272       0.002367
siesta:   58   -0.103595    0.415397   -0.197272       0.002367
siesta:   59   -0.000757    0.474552   -0.197272       0.002367
siesta:   60    0.102081    0.533707   -0.197272       0.002367
siesta:   61    0.204919    0.592862   -0.197272       0.002367
siesta:   62    0.307757    0.652017   -0.197272       0.002367
siesta:   63    0.410596    0.711172   -0.197272       0.002367
siesta:   64    0.513434    0.770327   -0.197272       0.002367
siesta:   65    0.616272    0.829482   -0.197272       0.002367
siesta:   66   -0.617976    0.238260   -0.197272       0.002367
siesta:   67   -0.515138    0.297415   -0.197272       0.002367
siesta:   68   -0.412299    0.356570   -0.197272       0.002367
siesta:   69   -0.309461    0.415725   -0.197272       0.002367
siesta:   70   -0.206623    0.474880   -0.197272       0.002367
siesta:   71   -0.103785    0.534035   -0.197272       0.002367
siesta:   72   -0.000947    0.593190   -0.197272       0.002367
siesta:   73    0.101892    0.652345   -0.197272       0.002367
siesta:   74    0.204730    0.711500   -0.197272       0.002367
siesta:   75    0.307568    0.770655   -0.197272       0.002367
siesta:   76    0.410406    0.829810   -0.197272       0.002367
siesta:   77    0.513244    0.888965   -0.197272       0.002367
siesta:   78    0.616083    0.948120   -0.197272       0.002367
siesta:   79   -0.618165    0.356898   -0.197272       0.002367
siesta:   80   -0.515327    0.416053   -0.197272       0.002367
siesta:   81   -0.412489    0.475208   -0.197272       0.002367
siesta:   82   -0.309651    0.534363   -0.197272       0.002367
siesta:   83   -0.206812    0.593518   -0.197272       0.002367
siesta:   84   -0.103974    0.652673   -0.197272       0.002367
siesta:   85   -0.001136    0.711828   -0.197272       0.002367
siesta:   86    0.101702    0.770983   -0.197272       0.002367
siesta:   87    0.204540    0.830138   -0.197272       0.002367
siesta:   88    0.307379    0.889293   -0.197272       0.002367
siesta:   89    0.410217    0.948448   -0.197272       0.002367
siesta:   90    0.513055    1.007603   -0.197272       0.002367
siesta:   91    0.615893    1.066758   -0.197272       0.002367
siesta:   92   -0.617029   -0.354930   -0.098636       0.002367
siesta:   93   -0.514191   -0.295775   -0.098636       0.002367
siesta:   94   -0.411353   -0.236620   -0.098636       0.002367
siesta:   95   -0.308515   -0.177465   -0.098636       0.002367
siesta:   96   -0.205676   -0.118310   -0.098636       0.002367
siesta:   97   -0.102838   -0.059155   -0.098636       0.002367
siesta:   98   -0.000000    0.000000   -0.098636       0.002367
siesta:   99    0.102838    0.059155   -0.098636       0.002367
siesta:  100    0.205676    0.118310   -0.098636       0.002367
siesta:  101    0.308515    0.177465   -0.098636       0.002367
siesta:  102    0.411353    0.236620   -0.098636       0.002367
siesta:  103    0.514191    0.295775   -0.098636       0.002367
siesta:  104    0.617029    0.354930   -0.098636       0.002367
siesta:  105   -0.617219   -0.236292   -0.098636       0.002367
siesta:  106   -0.514380   -0.177137   -0.098636       0.002367
siesta:  107   -0.411542   -0.117982   -0.098636       0.002367
siesta:  108   -0.308704   -0.058827   -0.098636       0.002367
siesta:  109   -0.205866    0.000328   -0.098636       0.002367
siesta:  110   -0.103028    0.059483   -0.098636       0.002367
siesta:  111   -0.000189    0.118638   -0.098636       0.002367
siesta:  112    0.102649    0.177793   -0.098636       0.002367
siesta:  113    0.205487    0.236948   -0.098636       0.002367
siesta:  114    0.308325    0.296103   -0.098636       0.002367
siesta:  115    0.411163    0.355258   -0.098636       0.002367
siesta:  116    0.514002    0.414413   -0.098636       0.002367
siesta:  117    0.616840    0.473568   -0.098636       0.002367
siesta:  118   -0.617408   -0.117654   -0.098636       0.002367
siesta:  119   -0.514570   -0.058499   -0.098636       0.002367
siesta:  120   -0.411731    0.000656   -0.098636       0.002367
siesta:  121   -0.308893    0.059811   -0.098636       0.002367
siesta:  122   -0.206055    0.118966   -0.098636       0.002367
siesta:  123   -0.103217    0.178121   -0.098636       0.002367
siesta:  124   -0.000379    0.237276   -0.098636       0.002367
siesta:  125    0.102460    0.296431   -0.098636       0.002367
siesta:  126    0.205298    0.355586   -0.098636       0.002367
siesta:  127    0.308136    0.414741   -0.098636       0.002367
siesta:  128    0.410974    0.473896   -0.098636       0.002367
siesta:  129    0.513812    0.533051   -0.098636       0.002367
siesta:  130    0.616651    0.592206   -0.098636       0.002367
siesta:  131   -0.617597    0.000984   -0.098636       0.002367
siesta:  132   -0.514759    0.060139   -0.098636       0.002367
siesta:  133   -0.411921    0.119294   -0.098636       0.002367
siesta:  134   -0.309083    0.178449   -0.098636       0.002367
siesta:  135   -0.206244    0.237604   -0.098636       0.002367
siesta:  136   -0.103406    0.296759   -0.098636       0.002367
siesta:  137   -0.000568    0.355914   -0.098636       0.002367
siesta:  138    0.102270    0.415069   -0.098636       0.002367
siesta:  139    0.205108    0.474224   -0.098636       0.002367
siesta:  140    0.307947    0.533379   -0.098636       0.002367
siesta:  141    0.410785    0.592534   -0.098636       0.002367
siesta:  142    0.513623    0.651689   -0.098636       0.002367
siesta:  143    0.616461    0.710844   -0.098636       0.002367
siesta:  144   -0.617786    0.119622   -0.098636       0.002367
siesta:  145   -0.514948    0.178777   -0.098636       0.002367
siesta:  146   -0.412110    0.237932   -0.098636       0.002367
siesta:  147   -0.309272    0.297087   -0.098636       0.002367
siesta:  148   -0.206434    0.356242   -0.098636       0.002367
siesta:  149   -0.103595    0.415397   -0.098636       0.002367
siesta:  150   -0.000757    0.474552   -0.098636       0.002367
siesta:  151    0.102081    0.533707   -0.098636       0.002367
siesta:  152    0.204919    0.592862   -0.098636       0.002367
siesta:  153    0.307757    0.652017   -0.098636       0.002367
siesta:  154    0.410596    0.711172   -0.098636       0.002367
siesta:  155    0.513434    0.770327   -0.098636       0.002367
siesta:  156    0.616272    0.829482   -0.098636       0.002367
siesta:  157   -0.617976    0.238260   -0.098636       0.002367
siesta:  158   -0.515138    0.297415   -0.098636       0.002367
siesta:  159   -0.412299    0.356570   -0.098636       0.002367
siesta:  160   -0.309461    0.415725   -0.098636       0.002367
siesta:  161   -0.206623    0.474880   -0.098636       0.002367
siesta:  162   -0.103785    0.534035   -0.098636       0.002367
siesta:  163   -0.000947    0.593190   -0.098636       0.002367
siesta:  164    0.101892    0.652345   -0.098636       0.002367
siesta:  165    0.204730    0.711500   -0.098636       0.002367
siesta:  166    0.307568    0.770655   -0.098636       0.002367
siesta:  167    0.410406    0.829810   -0.098636       0.002367
siesta:  168    0.513244    0.888965   -0.098636       0.002367
siesta:  169    0.616083    0.948120   -0.098636       0.002367
siesta:  170   -0.618165    0.356898   -0.098636       0.002367
siesta:  171   -0.515327    0.416053   -0.098636       0.002367
siesta:  172   -0.412489    0.475208   -0.098636       0.002367
siesta:  173   -0.309651    0.534363   -0.098636       0.002367
siesta:  174   -0.206812    0.593518   -0.098636       0.002367
siesta:  175   -0.103974    0.652673   -0.098636       0.002367
siesta:  176   -0.001136    0.711828   -0.098636       0.002367
siesta:  177    0.101702    0.770983   -0.098636       0.002367
siesta:  178    0.204540    0.830138   -0.098636       0.002367
siesta:  179    0.307379    0.889293   -0.098636       0.002367
siesta:  180    0.410217    0.948448   -0.098636       0.002367
siesta:  181    0.513055    1.007603   -0.098636       0.002367
siesta:  182    0.615893    1.066758   -0.098636       0.002367
siesta:  183   -0.617029   -0.354930    0.000000       0.002367
siesta:  184   -0.514191   -0.295775    0.000000       0.002367
siesta:  185   -0.411353   -0.236620    0.000000       0.002367
siesta:  186   -0.308515   -0.177465    0.000000       0.002367
siesta:  187   -0.205676   -0.118310    0.000000       0.002367
siesta:  188   -0.102838   -0.059155    0.000000       0.002367
siesta:  189    0.000000    0.000000    0.000000       0.001183
siesta:  190   -0.617219   -0.236292    0.000000       0.002367
siesta:  191   -0.514380   -0.177137    0.000000       0.002367
siesta:  192   -0.411542   -0.117982    0.000000       0.002367
siesta:  193   -0.308704   -0.058827    0.000000       0.002367
siesta:  194   -0.205866    0.000328   -0.000000       0.002367
siesta:  195   -0.103028    0.059483   -0.000000       0.002367
siesta:  196   -0.000189    0.118638   -0.000000       0.002367
siesta:  197    0.102649    0.177793   -0.000000       0.002367
siesta:  198    0.205487    0.236948   -0.000000       0.002367
siesta:  199    0.308325    0.296103   -0.000000       0.002367
siesta:  200    0.411163    0.355258   -0.000000       0.002367
siesta:  201    0.514002    0.414413   -0.000000       0.002367
siesta:  202    0.616840    0.473568   -0.000000       0.002367
siesta:  203   -0.617408   -0.117654    0.000000       0.002367
siesta:  204   -0.514570   -0.058499    0.000000       0.002367
siesta:  205   -0.411731    0.000656   -0.000000       0.002367
siesta:  206   -0.308893    0.059811   -0.000000       0.002367
siesta:  207   -0.206055    0.118966   -0.000000       0.002367
siesta:  208   -0.103217    0.178121   -0.000000       0.002367
siesta:  209   -0.000379    0.237276   -0.000000       0.002367
siesta:  210    0.102460    0.296431   -0.000000       0.002367
siesta:  211    0.205298    0.355586   -0.000000       0.002367
siesta:  212    0.308136    0.414741   -0.000000       0.002367
siesta:  213    0.410974    0.473896   -0.000000       0.002367
siesta:  214    0.513812    0.533051   -0.000000       0.002367
siesta:  215    0.616651    0.592206   -0.000000       0.002367
siesta:  216   -0.617597    0.000984   -0.000000       0.002367
siesta:  217   -0.514759    0.060139   -0.000000       0.002367
siesta:  218   -0.411921    0.119294   -0.000000       0.002367
siesta:  219   -0.309083    0.178449   -0.000000       0.002367
siesta:  220   -0.206244    0.237604   -0.000000       0.002367
siesta:  221   -0.103406    0.296759   -0.000000       0.002367
siesta:  222   -0.000568    0.355914   -0.000000       0.002367
siesta:  223    0.102270    0.415069   -0.000000       0.002367
siesta:  224    0.205108    0.474224   -0.000000       0.002367
siesta:  225    0.307947    0.533379   -0.000000       0.002367
siesta:  226    0.410785    0.592534   -0.000000       0.002367
siesta:  227    0.513623    0.651689   -0.000000       0.002367
siesta:  228    0.616461    0.710844   -0.000000       0.002367
siesta:  229   -0.617786    0.119622   -0.000000       0.002367
siesta:  230   -0.514948    0.178777   -0.000000       0.002367
siesta:  231   -0.412110    0.237932   -0.000000       0.002367
siesta:  232   -0.309272    0.297087   -0.000000       0.002367
siesta:  233   -0.206434    0.356242   -0.000000       0.002367
siesta:  234   -0.103595    0.415397   -0.000000       0.002367
siesta:  235   -0.000757    0.474552   -0.000000       0.002367
siesta:  236    0.102081    0.533707   -0.000000       0.002367
siesta:  237    0.204919    0.592862   -0.000000       0.002367
siesta:  238    0.307757    0.652017   -0.000000       0.002367
siesta:  239    0.410596    0.711172   -0.000000       0.002367
siesta:  240    0.513434    0.770327   -0.000000       0.002367
siesta:  241    0.616272    0.829482   -0.000000       0.002367
siesta:  242   -0.617976    0.238260   -0.000000       0.002367
siesta:  243   -0.515138    0.297415   -0.000000       0.002367
siesta:  244   -0.412299    0.356570   -0.000000       0.002367
siesta:  245   -0.309461    0.415725   -0.000000       0.002367
siesta:  246   -0.206623    0.474880   -0.000000       0.002367
siesta:  247   -0.103785    0.534035   -0.000000       0.002367
siesta:  248   -0.000947    0.593190   -0.000000       0.002367
siesta:  249    0.101892    0.652345   -0.000000       0.002367
siesta:  250    0.204730    0.711500   -0.000000       0.002367
siesta:  251    0.307568    0.770655   -0.000000       0.002367
siesta:  252    0.410406    0.829810   -0.000000       0.002367
siesta:  253    0.513244    0.888965   -0.000000       0.002367
siesta:  254    0.616083    0.948120   -0.000000       0.002367
siesta:  255   -0.618165    0.356898   -0.000000       0.002367
siesta:  256   -0.515327    0.416053   -0.000000       0.002367
siesta:  257   -0.412489    0.475208   -0.000000       0.002367
siesta:  258   -0.309651    0.534363   -0.000000       0.002367
siesta:  259   -0.206812    0.593518   -0.000000       0.002367
siesta:  260   -0.103974    0.652673   -0.000000       0.002367
siesta:  261   -0.001136    0.711828   -0.000000       0.002367
siesta:  262    0.101702    0.770983   -0.000000       0.002367
siesta:  263    0.204540    0.830138   -0.000000       0.002367
siesta:  264    0.307379    0.889293   -0.000000       0.002367
siesta:  265    0.410217    0.948448   -0.000000       0.002367
siesta:  266    0.513055    1.007603   -0.000000       0.002367
siesta:  267    0.615893    1.066758   -0.000000       0.002367
siesta:  268   -0.617219   -0.236292    0.098636       0.002367
siesta:  269   -0.514380   -0.177137    0.098636       0.002367
siesta:  270   -0.411542   -0.117982    0.098636       0.002367
siesta:  271   -0.308704   -0.058827    0.098636       0.002367
siesta:  272   -0.205866    0.000328    0.098636       0.002367
siesta:  273   -0.103028    0.059483    0.098636       0.002367
siesta:  274   -0.000189    0.118638    0.098636       0.002367
siesta:  275    0.102649    0.177793    0.098636       0.002367
siesta:  276    0.205487    0.236948    0.098636       0.002367
siesta:  277    0.308325    0.296103    0.098636       0.002367
siesta:  278    0.411163    0.355258    0.098636       0.002367
siesta:  279    0.514002    0.414413    0.098636       0.002367
siesta:  280    0.616840    0.473568    0.098636       0.002367
siesta:  281   -0.617408   -0.117654    0.098636       0.002367
siesta:  282   -0.514570   -0.058499    0.098636       0.002367
siesta:  283   -0.411731    0.000656    0.098636       0.002367
siesta:  284   -0.308893    0.059811    0.098636       0.002367
siesta:  285   -0.206055    0.118966    0.098636       0.002367
siesta:  286   -0.103217    0.178121    0.098636       0.002367
siesta:  287   -0.000379    0.237276    0.098636       0.002367
siesta:  288    0.102460    0.296431    0.098636       0.002367
siesta:  289    0.205298    0.355586    0.098636       0.002367
siesta:  290    0.308136    0.414741    0.098636       0.002367
siesta:  291    0.410974    0.473896    0.098636       0.002367
siesta:  292    0.513812    0.533051    0.098636       0.002367
siesta:  293    0.616651    0.592206    0.098636       0.002367
siesta:  294   -0.617597    0.000984    0.098636       0.002367
siesta:  295   -0.514759    0.060139    0.098636       0.002367
siesta:  296   -0.411921    0.119294    0.098636       0.002367
siesta:  297   -0.309083    0.178449    0.098636       0.002367
siesta:  298   -0.206244    0.237604    0.098636       0.002367
siesta:  299   -0.103406    0.296759    0.098636       0.002367
siesta:  300   -0.000568    0.355914    0.098636       0.002367
siesta:  301    0.102270    0.415069    0.098636       0.002367
siesta:  302    0.205108    0.474224    0.098636       0.002367
siesta:  303    0.307947    0.533379    0.098636       0.002367
siesta:  304    0.410785    0.592534    0.098636       0.002367
siesta:  305    0.513623    0.651689    0.098636       0.002367
siesta:  306    0.616461    0.710844    0.098636       0.002367
siesta:  307   -0.617786    0.119622    0.098636       0.002367
siesta:  308   -0.514948    0.178777    0.098636       0.002367
siesta:  309   -0.412110    0.237932    0.098636       0.002367
siesta:  310   -0.309272    0.297087    0.098636       0.002367
siesta:  311   -0.206434    0.356242    0.098636       0.002367
siesta:  312   -0.103595    0.415397    0.098636       0.002367
siesta:  313   -0.000757    0.474552    0.098636       0.002367
siesta:  314    0.102081    0.533707    0.098636       0.002367
siesta:  315    0.204919    0.592862    0.098636       0.002367
siesta:  316    0.307757    0.652017    0.098636       0.002367
siesta:  317    0.410596    0.711172    0.098636       0.002367
siesta:  318    0.513434    0.770327    0.098636       0.002367
siesta:  319    0.616272    0.829482    0.098636       0.002367
siesta:  320   -0.617976    0.238260    0.098636       0.002367
siesta:  321   -0.515138    0.297415    0.098636       0.002367
siesta:  322   -0.412299    0.356570    0.098636       0.002367
siesta:  323   -0.309461    0.415725    0.098636       0.002367
siesta:  324   -0.206623    0.474880    0.098636       0.002367
siesta:  325   -0.103785    0.534035    0.098636       0.002367
siesta:  326   -0.000947    0.593190    0.098636       0.002367
siesta:  327    0.101892    0.652345    0.098636       0.002367
siesta:  328    0.204730    0.711500    0.098636       0.002367
siesta:  329    0.307568    0.770655    0.098636       0.002367
siesta:  330    0.410406    0.829810    0.098636       0.002367
siesta:  331    0.513244    0.888965    0.098636       0.002367
siesta:  332    0.616083    0.948120    0.098636       0.002367
siesta:  333   -0.618165    0.356898    0.098636       0.002367
siesta:  334   -0.515327    0.416053    0.098636       0.002367
siesta:  335   -0.412489    0.475208    0.098636       0.002367
siesta:  336   -0.309651    0.534363    0.098636       0.002367
siesta:  337   -0.206812    0.593518    0.098636       0.002367
siesta:  338   -0.103974    0.652673    0.098636       0.002367
siesta:  339   -0.001136    0.711828    0.098636       0.002367
siesta:  340    0.101702    0.770983    0.098636       0.002367
siesta:  341    0.204540    0.830138    0.098636       0.002367
siesta:  342    0.307379    0.889293    0.098636       0.002367
siesta:  343    0.410217    0.948448    0.098636       0.002367
siesta:  344    0.513055    1.007603    0.098636       0.002367
siesta:  345    0.615893    1.066758    0.098636       0.002367
siesta:  346   -0.617219   -0.236292    0.197272       0.002367
siesta:  347   -0.514380   -0.177137    0.197272       0.002367
siesta:  348   -0.411542   -0.117982    0.197272       0.002367
siesta:  349   -0.308704   -0.058827    0.197272       0.002367
siesta:  350   -0.205866    0.000328    0.197272       0.002367
siesta:  351   -0.103028    0.059483    0.197272       0.002367
siesta:  352   -0.000189    0.118638    0.197272       0.002367
siesta:  353    0.102649    0.177793    0.197272       0.002367
siesta:  354    0.205487    0.236948    0.197272       0.002367
siesta:  355    0.308325    0.296103    0.197272       0.002367
siesta:  356    0.411163    0.355258    0.197272       0.002367
siesta:  357    0.514002    0.414413    0.197272       0.002367
siesta:  358    0.616840    0.473568    0.197272       0.002367
siesta:  359   -0.617408   -0.117654    0.197272       0.002367
siesta:  360   -0.514570   -0.058499    0.197272       0.002367
siesta:  361   -0.411731    0.000656    0.197272       0.002367
siesta:  362   -0.308893    0.059811    0.197272       0.002367
siesta:  363   -0.206055    0.118966    0.197272       0.002367
siesta:  364   -0.103217    0.178121    0.197272       0.002367
siesta:  365   -0.000379    0.237276    0.197272       0.002367
siesta:  366    0.102460    0.296431    0.197272       0.002367
siesta:  367    0.205298    0.355586    0.197272       0.002367
siesta:  368    0.308136    0.414741    0.197272       0.002367
siesta:  369    0.410974    0.473896    0.197272       0.002367
siesta:  370    0.513812    0.533051    0.197272       0.002367
siesta:  371    0.616651    0.592206    0.197272       0.002367
siesta:  372   -0.617597    0.000984    0.197272       0.002367
siesta:  373   -0.514759    0.060139    0.197272       0.002367
siesta:  374   -0.411921    0.119294    0.197272       0.002367
siesta:  375   -0.309083    0.178449    0.197272       0.002367
siesta:  376   -0.206244    0.237604    0.197272       0.002367
siesta:  377   -0.103406    0.296759    0.197272       0.002367
siesta:  378   -0.000568    0.355914    0.197272       0.002367
siesta:  379    0.102270    0.415069    0.197272       0.002367
siesta:  380    0.205108    0.474224    0.197272       0.002367
siesta:  381    0.307947    0.533379    0.197272       0.002367
siesta:  382    0.410785    0.592534    0.197272       0.002367
siesta:  383    0.513623    0.651689    0.197272       0.002367
siesta:  384    0.616461    0.710844    0.197272       0.002367
siesta:  385   -0.617786    0.119622    0.197272       0.002367
siesta:  386   -0.514948    0.178777    0.197272       0.002367
siesta:  387   -0.412110    0.237932    0.197272       0.002367
siesta:  388   -0.309272    0.297087    0.197272       0.002367
[...]
        117.49 118.22 120.37 120.48 121.68 125.17 135.22 135.75 143.98 145.13
        160.46 163.10 168.67 169.55 183.52 185.13 192.84 193.12
 398  1 -20.95 -20.90 -17.45 -17.41 -12.42 -12.41  -8.80  -8.46  -3.18  -2.94
          2.45   2.54   5.12   6.21   8.62   9.25  12.01  12.38  13.86  14.40
         16.37  16.81  18.25  18.80  20.52  20.96  23.81  24.67  27.75  28.71
         29.79  29.94  34.53  35.50  37.12  38.76  39.80  41.73  46.32  47.08
         50.53  50.65  52.57  57.21  57.78  58.22  60.15  61.17  63.68  64.11
         66.36  67.64  69.34  70.92  84.10  87.51  88.87  90.05  92.87  94.28
         95.68  97.76  98.55 100.99 104.85 106.37 108.09 108.99 111.73 115.00
        118.31 119.52 122.37 122.78 127.57 129.22 130.59 132.69 134.92 136.55
        149.07 151.47 166.88 169.28 183.85 185.41 200.33 202.34
 399  1 -21.73 -21.68 -16.59 -16.56 -11.81 -11.79  -9.59  -9.20  -2.24  -1.98
          1.93   2.00   4.29   5.60   9.51  10.18  12.39  12.39  13.46  13.84
         17.04  17.28  17.62  18.58  21.01  21.36  24.82  25.89  26.13  28.04
         28.99  31.03  35.25  35.26  36.32  38.55  41.67  44.13  46.31  47.22
         47.24  50.55  50.97  53.06  58.36  58.73  59.10  59.27  63.52  64.57
         64.70  66.87  69.83  72.54  84.80  88.35  91.40  92.44  92.70  93.44
         94.38  94.52  95.46  98.44 103.19 105.09 107.20 110.65 111.05 111.86
        118.20 122.55 124.92 125.86 130.62 132.20 133.36 136.10 139.06 140.90
        142.06 145.01 166.31 169.92 184.62 186.98 200.29 202.25
 400  1 -22.27 -22.21 -15.56 -15.53 -12.01 -11.99 -10.15  -9.73  -1.27  -1.05
          2.65   2.70   3.67   4.97   9.13   9.48  11.26  11.53  13.18  13.47
         16.65  16.99  18.49  19.24  21.38  21.77  24.30  25.14  28.54  29.55
         30.64  30.96  36.12  37.56  38.25  38.64  40.28  41.35  44.69  46.08
         48.56  49.14  52.93  55.08  56.20  56.86  59.56  60.11  63.73  64.86
         66.33  67.52  71.58  73.49  84.62  87.99  88.37  88.97  91.57  92.81
         95.00  96.03  98.30 100.81 101.96 104.20 106.37 108.26 110.71 113.95
        116.26 121.75 124.57 125.17 129.22 130.55 133.20 133.78 134.44 138.30
        151.80 153.78 165.13 167.06 179.41 182.72 201.02 202.39
 401  1 -22.54 -22.48 -14.56 -14.54 -12.71 -12.69 -10.43 -10.00  -0.58  -0.43
          3.16   4.18   4.52   4.73   7.07   7.20  10.61  11.24  13.24  13.54
         16.89  17.12  17.97  19.54  21.07  21.45  25.18  25.23  29.71  30.16
         34.61  35.18  36.56  37.62  38.61  39.74  40.76  42.10  43.62  44.32
         48.45  49.75  53.82  54.40  56.07  56.60  60.06  61.06  65.53  65.86
         68.07  68.37  73.37  74.37  80.87  83.23  86.78  88.89  90.38  91.04
         94.06  96.37  97.86  98.09  99.92 101.23 105.75 107.51 111.10 112.34
        115.72 117.00 117.24 120.03 125.27 126.21 128.23 129.32 133.20 135.41
        150.90 152.22 167.25 168.96 173.90 176.65 198.85 199.65
 402  1 -22.54 -22.48 -14.56 -14.54 -12.71 -12.69 -10.43 -10.00  -0.58  -0.43
          3.16   4.19   4.53   4.73   7.06   7.19  10.61  11.24  13.25  13.54
         16.90  17.15  17.94  19.52  21.08  21.46  25.16  25.22  29.78  30.24
         34.56  35.16  36.41  37.67  38.53  39.78  40.82  42.12  43.58  44.29
         48.39  49.71  53.80  54.44  56.17  56.69  60.02  60.99  65.44  65.88
         68.07  68.44  73.30  74.35  80.84  83.22  86.81  89.07  90.32  91.00
         93.81  96.17  97.78  98.07  99.97 101.07 105.58 107.60 111.00 112.24
        115.68 116.89 117.46 120.13 125.24 126.24 128.23 129.45 132.99 135.25
        150.72 151.99 167.21 168.78 174.22 176.61 198.85 199.67
 403  1 -22.27 -22.21 -15.57 -15.54 -12.00 -11.99 -10.15  -9.73  -1.27  -1.06
          2.65   2.71   3.67   4.97   9.13   9.47  11.25  11.53  13.18  13.46
         16.67  17.04  18.45  19.26  21.32  21.71  24.28  25.16  28.51  29.69
         30.76  31.01  35.99  37.56  38.09  38.52  40.32  41.32  44.72  46.11
         48.50  49.01  53.02  55.06  56.31  56.94  59.60  60.04  63.73  64.79
         66.32  67.47  71.45  73.44  84.63  88.07  88.45  89.00  91.43  92.74
         94.88  96.01  98.21 100.50 101.80 104.21 106.00 107.92 110.64 113.63
        116.70 121.90 124.50 125.23 129.25 130.58 133.10 133.71 134.06 137.92
        151.79 153.55 164.93 167.00 179.77 182.54 200.95 202.44
 404  1 -21.73 -21.68 -16.59 -16.56 -11.80 -11.79  -9.59  -9.20  -2.24  -1.98
          1.94   2.01   4.29   5.60   9.51  10.18  12.38  12.39  13.43  13.82
         17.08  17.30  17.72  18.60  20.90  21.16  24.83  25.87  26.16  28.05
         29.19  31.29  35.24  35.26  36.05  38.26  41.68  44.11  46.37  47.21
         47.37  50.49  50.92  53.10  58.36  58.74  59.11  59.29  63.51  64.60
         64.71  66.72  69.67  72.41  84.69  88.36  91.38  92.37  92.73  93.37
         94.32  94.44  95.39  98.44 102.76 104.81 107.07 110.49 111.24 111.91
        118.43 122.47 124.97 125.80 130.71 131.76 133.18 135.96 139.08 140.78
        142.17 144.95 166.17 169.95 184.91 187.09 200.15 202.32
 405  1 -20.96 -20.90 -17.45 -17.41 -12.42 -12.40  -8.80  -8.47  -3.18  -2.94
          2.46   2.55   5.12   6.21   8.64   9.24  12.00  12.37  13.86  14.38
         16.39  16.84  18.26  18.85  20.41  20.84  23.77  24.69  27.95  28.69
         29.87  30.03  34.47  35.44  36.98  38.56  39.78  41.72  46.46  47.20
         50.47  50.68  52.52  57.20  57.78  58.18  60.18  61.17  63.73  64.07
         66.29  67.47  69.26  70.95  83.95  87.38  88.92  90.00  92.78  94.15
         95.63  97.64  98.31 100.99 104.95 106.08 107.99 108.71 111.98 114.96
        118.37 119.47 122.49 122.89 127.67 129.34 130.36 132.75 134.87 136.33
        149.02 151.50 166.81 169.40 184.20 185.94 200.21 202.27
 406  1 -19.98 -19.94 -18.05 -18.02 -13.65 -13.63  -7.86  -7.62  -3.97  -3.80
          4.00   4.12   5.75   6.15   7.92   8.60  10.57  11.33  13.61  14.07
         17.21  17.44  17.71  18.11  19.01  19.68  24.38  24.86  28.34  29.50
         32.99  33.24  34.58  36.56  38.22  39.40  40.08  41.93  46.10  46.64
         49.68  49.94  54.77  55.72  56.52  58.08  60.41  60.71  64.94  65.18
         67.69  68.19  72.54  73.29  83.96  85.91  87.63  88.67  90.47  92.24
         93.84  94.72  95.90  97.38 102.59 104.06 107.62 108.28 114.39 115.54
        119.99 120.58 122.21 123.12 126.89 127.44 131.14 131.97 140.38 142.68
        155.85 157.87 169.99 170.29 180.84 182.54 200.04 201.62
 407  1 -19.09 -19.07 -18.16 -18.15 -15.08 -15.05  -6.96  -6.79  -4.55  -4.54
          5.19   5.21   6.23   6.42   8.01   8.76   9.67  10.60  13.15  13.25
         16.33  16.65  16.86  17.98  18.87  18.91  24.71  25.95  30.04  30.39
         33.40  35.10  37.44  38.06  40.19  40.30  43.77  44.14  47.99  48.00
         49.49  50.19  51.25  54.14  55.28  57.22  63.22  64.71  67.44  67.94
         68.51  68.79  76.90  77.27  83.18  85.17  85.90  86.55  90.19  90.27
         93.88  94.41  98.76 100.13 100.94 103.91 105.22 105.84 114.22 114.28
        116.94 117.29 118.97 120.49 122.32 125.17 140.10 140.95 150.78 153.11
        161.73 164.07 176.43 176.71 181.05 182.16 194.45 194.92
 408  1 -18.93 -18.89 -17.67 -17.65 -15.98 -15.97  -6.55  -6.31  -4.97  -4.81
          4.88   4.90   7.46   8.15   8.25   8.63   8.86   9.97  12.75  13.04
         15.76  15.98  16.84  17.17  19.15  19.17  24.83  26.29  31.04  31.18
         33.48  34.41  38.90  39.34  41.21  42.08  43.36  43.38  46.02  46.13
         49.70  50.43  52.01  54.89  55.82  56.35  65.29  65.50  67.64  67.82
         75.56  75.94  78.90  79.04  82.63  84.26  84.92  85.42  93.30  94.48
         94.89  95.10  99.91 101.03 102.38 102.81 109.34 110.64 111.98 112.28
        115.43 115.48 119.59 119.88 121.32 125.24 144.95 149.38 155.21 155.34
        165.08 165.94 178.18 179.19 185.01 186.20 186.72 188.14
 409  1 -19.09 -19.06 -18.17 -18.15 -15.08 -15.05  -6.97  -6.78  -4.56  -4.54
          5.20   5.20   6.23   6.41   7.96   8.79   9.66  10.66  13.11  13.22
         16.43  16.57  16.98  17.91  18.87  18.89  24.68  25.95  29.99  30.47
         33.36  34.98  37.58  38.25  40.20  40.32  43.71  44.06  47.99  48.00
         49.44  50.15  51.32  54.22  55.20  57.24  63.18  64.65  67.46  67.87
         68.46  68.75  76.89  77.27  83.32  85.34  85.86  86.53  90.12  90.18
         93.81  94.37  98.70 100.26 100.88 103.94 105.37 105.88 114.26 114.32
        116.98 117.39 118.86 120.45 122.26 125.09 140.98 141.76 150.67 153.17
        161.72 164.10 176.46 176.73 180.83 181.98 194.64 194.83
 410  1 -19.98 -19.94 -18.05 -18.02 -13.65 -13.63  -7.86  -7.61  -3.97  -3.80
          3.99   4.11   5.76   6.15   7.89   8.62  10.57  11.37  13.58  14.05
         17.23  17.43  17.73  18.13  19.06  19.66  24.34  24.89  28.24  29.47
         32.95  33.27  34.61  36.80  38.24  39.38  40.13  41.99  45.98  46.51
         49.71  49.96  54.79  55.73  56.46  58.19  60.43  60.70  64.97  65.13
         67.63  68.15  72.55  73.32  84.10  86.08  87.62  88.76  90.42  92.15
         93.87  94.84  96.03  97.57 102.65 103.94 107.90 108.26 114.49 115.53
        119.88 120.62 122.18 122.97 126.75 127.25 131.47 132.50 140.33 142.72
        155.94 157.86 169.97 170.20 180.54 182.17 200.19 201.61
 411  1 -20.35 -20.30 -18.37 -18.34 -12.08 -12.07  -8.36  -8.10  -3.82  -3.59
          1.79   1.87   5.92   6.90   8.01   8.87  13.91  14.16  14.16  14.32
         16.74  17.13  17.35  17.98  20.21  20.94  24.94  25.22  26.02  27.14
         27.93  30.64  33.36  33.67  35.17  37.85  42.22  45.26  46.64  47.47
         48.97  51.66  52.59  52.71  58.60  59.16  62.09  63.17  63.24  63.73
         63.80  64.93  68.75  70.20  84.81  87.46  91.21  92.85  93.47  95.54
         98.54  98.61  99.88 100.16 103.74 106.75 107.76 111.07 114.57 115.74
        116.17 118.00 119.54 120.21 124.81 125.86 131.70 132.23 135.27 138.04
        143.29 145.21 170.00 172.82 185.10 185.94 202.11 205.05
 412  1 -20.95 -20.90 -17.45 -17.41 -12.42 -12.41  -8.80  -8.46  -3.18  -2.94
          2.45   2.54   5.12   6.21   8.62   9.25  12.01  12.38  13.86  14.40
         16.37  16.81  18.25  18.80  20.52  20.96  23.81  24.67  27.75  28.71
         29.79  29.94  34.53  35.50  37.12  38.76  39.80  41.73  46.32  47.08
         50.53  50.65  52.57  57.21  57.78  58.22  60.15  61.17  63.68  64.11
         66.36  67.64  69.34  70.91  84.10  87.51  88.87  90.05  92.87  94.28
         95.68  97.77  98.55 100.99 104.85 106.37 108.08 108.99 111.73 115.00
        118.31 119.52 122.36 122.78 127.57 129.22 130.59 132.69 134.92 136.55
        149.07 151.47 166.89 169.28 183.85 185.40 200.33 202.34
 413  1 -21.34 -21.29 -16.35 -16.32 -13.34 -13.32  -9.12  -8.74  -2.47  -2.28
          4.11   4.15   4.65   5.53   8.25   8.65   9.86  10.57  13.83  14.69
         16.35  16.77  17.88  19.06  19.92  20.29  24.62  24.97  28.87  29.83
         33.77  34.10  35.42  37.79  38.54  38.81  40.42  41.89  44.15  45.46
         48.94  49.33  54.97  55.89  57.98  59.33  60.76  61.04  64.40  65.52
         68.91  69.74  70.18  72.11  84.05  87.31  88.08  88.82  90.47  91.99
         93.08  95.72  96.37  98.75 105.68 108.06 110.83 111.34 112.19 114.22
        118.85 119.41 124.28 124.83 125.31 126.01 127.76 127.90 133.67 136.18
        156.98 159.95 164.29 164.95 180.39 182.86 196.42 196.91
 414  1 -21.47 -21.42 -15.59 -15.58 -14.07 -14.06  -9.24  -8.84  -2.13  -1.99
          4.23   5.07   6.23   6.25   6.78   6.95   8.97   9.98  14.41  15.15
         15.94  16.64  17.66  19.01  19.57  19.80  24.84  25.52  30.05  30.28
         34.63  34.87  37.60  38.38  39.94  41.25  42.22  42.99  43.84  44.06
         51.43  52.60  54.04  54.13  58.29  58.36  63.40  63.94  65.54  66.48
         70.05  71.85  73.87  73.98  80.42  83.83  88.04  88.42  89.08  90.34
         94.70  95.87  96.88  98.00  99.00 100.59 109.79 111.95 113.79 115.79
        118.92 119.45 120.89 122.05 123.92 124.99 126.47 127.77 132.51 132.73
        152.95 155.69 164.79 166.72 181.63 183.85 192.67 192.91
 415  1 -21.34 -21.29 -16.36 -16.32 -13.34 -13.32  -9.12  -8.74  -2.47  -2.28
          4.12   4.17   4.65   5.53   8.26   8.64   9.84  10.55  13.85  14.71
         16.35  16.77  17.85  19.01  19.95  20.31  24.61  24.92  28.97  29.93
         33.75  34.10  35.28  37.62  38.51  38.78  40.45  41.97  44.14  45.46
         48.92  49.31  54.98  55.91  58.04  59.32  60.77  61.06  64.24  65.51
         68.89  69.74  70.11  72.10  83.99  87.41  88.10  88.78  90.47  91.99
         92.85  95.71  96.24  98.68 105.15 108.06 110.55 111.49 112.23 113.96
        118.80 119.50 124.20 124.65 125.36 126.14 127.82 127.90 133.28 135.79
        156.81 159.72 164.30 164.91 180.73 182.89 196.32 196.96
 416  1 -20.95 -20.90 -17.45 -17.41 -12.42 -12.40  -8.80  -8.47  -3.18  -2.94
          2.46   2.55   5.12   6.21   8.64   9.24  11.99  12.35  13.87  14.41
         16.39  16.83  18.24  18.84  20.45  20.87  23.78  24.69  27.78  28.81
         29.78  30.11  34.43  35.46  36.95  38.52  39.81  41.72  46.49  47.23
         50.44  50.55  52.63  57.15  57.84  58.26  60.15  61.16  63.57  64.08
         66.32  67.52  69.32  70.85  84.00  87.50  88.78  90.02  92.81  94.24
         95.59  97.88  98.26 100.74 104.55 106.14 107.79 108.95 111.89 114.79
        118.38 119.71 122.25 122.58 127.56 129.03 130.42 132.73 134.91 136.45
        149.03 151.37 166.82 169.33 184.02 185.75 200.26 202.27
 417  1 -20.35 -20.31 -18.37 -18.34 -12.08 -12.06  -8.36  -8.11  -3.81  -3.60
          1.80   1.88   5.92   6.89   8.03   8.86  13.88  14.15  14.16  14.28
         16.76  17.23  17.43  17.99  20.07  20.72  24.94  25.22  26.06  27.14
         28.12  30.90  33.36  33.66  34.86  37.50  42.20  45.25  46.66  47.67
         49.19  51.55  52.50  52.76  58.56  59.21  61.97  63.15  63.21  63.76
         63.82  64.66  68.72  70.09  84.65  87.33  91.09  92.72  93.59  95.77
         98.38  98.51  99.90 100.12 103.32 106.22 107.77 110.87 114.43 115.83
        116.00 117.99 119.71 120.42 124.74 125.78 131.68 132.12 135.15 138.10
        143.24 145.26 169.94 173.00 185.24 186.48 202.12 204.90
 418  1 -19.80 -19.78 -18.78 -18.76 -12.56 -12.54  -7.98  -7.80  -4.09  -3.93
          2.39   2.48   6.52   6.68   7.78   8.42  12.30  12.98  14.29  14.59
         16.64  17.14  18.29  18.47  19.88  20.43  23.65  24.52  27.66  28.23
         29.45  29.69  33.80  34.60  36.28  38.29  39.72  42.03  47.31  48.61
         51.07  51.90  52.36  57.29  57.96  58.23  58.84  60.70  64.41  64.74
         66.22  66.52  69.98  70.14  84.79  86.06  89.04  90.55  93.47  95.31
         95.58  97.77  97.95  99.32 104.84 106.55 108.02 109.89 113.25 114.51
        117.01 119.03 124.42 124.67 125.62 126.59 130.66 133.29 134.16 136.93
        145.70 147.71 169.66 170.83 183.04 184.62 203.66 206.30
 419  1 -19.98 -19.94 -18.05 -18.02 -13.65 -13.63  -7.86  -7.61  -3.96  -3.81
          4.00   4.12   5.76   6.14   7.92   8.60  10.57  11.32  13.61  14.09
         17.21  17.39  17.73  18.08  19.07  19.70  24.35  24.84  28.34  29.53
         32.96  33.25  34.55  36.55  38.24  39.36  40.08  41.97  46.12  46.62
         49.68  49.95  54.78  55.70  56.42  58.19  60.38  60.69  64.82  65.25
         67.69  68.17  72.53  73.28  83.92  85.95  87.62  88.71  90.57  92.18
         93.91  94.63  96.19  97.19 102.51 103.81 107.79 108.09 114.42 115.52
        119.94 120.72 122.25 122.97 126.85 127.33 131.14 132.08 140.20 142.39
        155.84 157.79 170.02 170.22 180.71 182.42 200.06 201.60
 420  1 -20.20 -20.15 -16.98 -16.95 -14.86 -14.83  -7.88  -7.56  -3.70  -3.54
          5.03   5.26   6.26   6.45   7.68   8.27   8.97   9.95  13.59  14.19
         16.46  17.08  17.51  17.85  18.68  18.95  24.67  25.79  30.12  30.41
         33.72  35.01  37.53  38.17  40.23  40.83  42.32  43.31  46.43  46.80
         50.53  51.53  53.35  54.88  55.80  57.82  64.20  64.96  66.72  67.54
         68.49  70.00  75.54  75.84  83.56  86.13  86.94  87.93  90.28  90.98
         93.39  94.41  96.58  97.86 105.04 105.32 106.00 109.49 113.89 115.28
        117.42 118.09 120.37 120.49 121.71 125.24 134.45 135.30 143.96 145.15
        160.38 163.07 168.69 169.57 183.53 185.33 192.88 192.96
 421  1 -20.20 -20.15 -16.98 -16.95 -14.86 -14.84  -7.88  -7.56  -3.70  -3.54
          5.03   5.26   6.27   6.44   7.65   8.29   8.98   9.97  13.57  14.17
         16.47  17.16  17.50  17.84  18.67  18.92  24.67  25.81  30.06  30.43
         33.70  34.96  37.67  38.32  40.18  40.81  42.31  43.28  46.43  46.80
         50.57  51.51  53.31  54.81  55.83  57.84  64.21  65.01  66.73  67.49
         68.43  70.03  75.53  75.82  83.74  86.22  86.84  87.88  90.24  90.91
         93.42  94.43  96.39  97.87 104.93 105.50 106.18 109.77 113.90 115.09
        117.49 118.22 120.37 120.48 121.68 125.17 135.21 135.75 143.97 145.12
        160.46 163.10 168.67 169.55 183.52 185.13 192.85 193.12
 422  1 -19.98 -19.94 -18.05 -18.02 -13.65 -13.63  -7.86  -7.61  -3.97  -3.80
          3.99   4.11   5.76   6.15   7.89   8.62  10.57  11.37  13.58  14.05
         17.23  17.43  17.73  18.13  19.06  19.66  24.34  24.89  28.24  29.47
         32.95  33.27  34.61  36.80  38.24  39.38  40.13  41.99  45.98  46.51
         49.71  49.96  54.79  55.73  56.46  58.19  60.43  60.70  64.96  65.14
         67.63  68.15  72.55  73.32  84.10  86.08  87.62  88.76  90.42  92.15
         93.87  94.84  96.03  97.57 102.65 103.94 107.91 108.25 114.49 115.53
        119.88 120.62 122.18 122.97 126.75 127.25 131.47 132.50 140.32 142.72
        155.94 157.86 169.98 170.20 180.54 182.17 200.19 201.61
 423  1 -19.80 -19.77 -18.78 -18.76 -12.56 -12.55  -7.98  -7.79  -4.10  -3.92
          2.38   2.47   6.52   6.70   7.74   8.44  12.30  13.02  14.27  14.57
         16.63  17.13  18.26  18.43  19.98  20.54  23.69  24.50  27.51  28.23
         29.47  29.53  33.84  34.67  36.45  38.54  39.72  42.04  47.08  48.41
         51.14  52.00  52.36  57.28  58.08  58.21  58.84  60.80  64.42  64.71
         66.32  66.63  69.97  70.16  84.94  86.22  89.15  90.56  93.36  95.30
         95.88  97.88  97.94  99.46 104.97 106.72 108.18 110.24 113.28 114.50
        116.96 118.97 124.51 124.78 125.43 126.50 130.53 133.25 134.29 137.12
        145.80 147.68 169.68 170.71 182.82 184.17 203.69 206.37
siesta: Fermi energy =      -5.945998 eV

siesta: Program's energy decomposition (eV):
siesta: Ebs     =      -236.508566
siesta: Eions   =      1035.253114
siesta: Ena     =       233.461144
siesta: Ekin    =       442.666100
siesta: Enl     =       -46.256512
siesta: DEna    =       -22.709966
siesta: DUscf   =         1.946786
siesta: DUext   =         0.000000
siesta: Exc     =      -204.576696
siesta: eta*DQ  =         0.000000
siesta: Emadel  =         0.000000
siesta: Emeta   =         0.000000
siesta: Emolmec =        -0.410635
siesta: Ekinion =         0.000000
siesta: Eharris =      -631.133621
siesta: Etot    =      -631.132893
siesta: FreeEng =      -631.132893

siesta: Final energy (eV):
siesta:  Band Struct. =    -236.508566
siesta:       Kinetic =     442.666100
siesta:       Hartree =     198.351704
siesta:    Ext. field =       0.000000
siesta:   Exch.-corr. =    -204.576696
siesta:  Ion-electron =    -824.264334
siesta:       Ion-ion =    -242.899032
siesta:       Ekinion =       0.000000
siesta:         Total =    -631.132893

siesta: Stress tensor (static) (eV/Ang**3):
siesta:     0.000086    0.000012   -0.000000
siesta:     0.000012    0.000090    0.000000
siesta:    -0.000000    0.000000   -0.000065

siesta: Constrained stress tensor (static) (eV/Ang**3):
siesta:     0.000086    0.000012   -0.000000
siesta:     0.000012    0.000090    0.000000
siesta:    -0.000000    0.000000   -0.000065

siesta: Cell volume =         36.520274 Ang**3

siesta: Pressure (static):
siesta:                Solid            Molecule  Units
siesta:          -0.00000041         -0.00000012  Ry/Bohr**3
siesta:          -0.00003719         -0.00001122  eV/Ang**3
siesta:          -0.05958390         -0.01797875  kBar
(Free)E+ p_basis*V_orbitals  =        -628.293016
(Free)Eharris+ p_basis*V_orbitals  =        -628.293743
>> End of run:  10-JUN-2018  21:46:15
Job completed
