Siesta Version  : siesta-4.1-1033
Architecture    : x86_64-linux-n-62-18-18
Compiler version: GNU Fortran (GCC) 7.3.0
Compiler flags  : mpifort -m64 -fPIC -O3 -march=native -ftree-vectorize -fexpensive-optimizatioons -funroll-loops -fprefetch-loop-arrays -fno-second-underscore  -flto
PP flags        : -I/zdata/groups/common/nicpa/2018-feb/generic/build-tools/1.0/include -I/zdatta/groups/common/nicpa/2018-feb/generic/gcc/7.3.0/include -I/zdata/groups/common/nicpa/2018-feb/generic/gcc/7.3.0/include -I/zdata/groups/common/nicpa/2018-feb/XeonE5-2665/zlib/1.2.11/gnu-7.3.0/include -I/zdata/groups/common/nicpa/2018-feb/generic/numactl/2.0.11/include -I/zdata/groups/common/nicpa/2018-feb/XeonE5-2665/libxml2/2.9.7/gnu-7.3.0/include -I/zdata/groups/common/nicpa/2018-feb/XeonE5-2665/hwloc/1.11.9/gnu-7.3.0/include -I/zdata/groups/common/nicpa/2018-feb/XeonE5-2665/openmpi/3.0.0/gnu-7.3.0/include -I/zdata/groups/common/nicpa/2018-feb/XeonE5-2665/szip/2.1.1/gnu-7.3.0/include -I/zdata/groups/common/nicpa/2018-feb/XeonE5-2665/hdf5/1.8.18/gnu-7.3.0/include -I/zdata/groups/common/nicpa/2018-feb/XeonE5-2665/pnetcdf/1.8.1/gnu-7.3.0/include -I/zdata/groups/common/nicpa/2018-feb/XeonE5-2665/netcdf/4.6.0/gnu-7.3.0/include -I/zdata/groups/common/nicpa/2018-feb/XeonE5-2665/flook/0.7.0/gnu-7.3.0/include -I/zdata/groups/common/nicpa/2018-feb/XeonE5-2665/parmetis/4.0.3/gnu-7.3.0/include -I/zdata/groups/common/nicpa/2018-feb/XeonE5-2665/scalapack/204/gnu-7.3.0/include -I/zdata/groups/common/nicpa/2018-feb/XeonE5-2665/openblas/0.2.20/gnu-7.3.0/include -I/zdata/groups/common/nicpa/2018-feb/XeonE5-2665/scotch/6.0.4/gnu-7.3.0/include -I/zdata/groups/common/nicpa/2018-feb/XeonE5-2665/mumps/5.1.2/gnu-7.3.0/include -I/zdata/groups/common/nicpa/2018-feb/XeonE5-2665/fftw/3.3.7/gnu-7.3.0/include -I/zdata/groups/common/nicpa/2018-feb/XeonE5-2665/elpa/2017.05.003/gnu-7.3.0/include/elpa -DSIESTA__ELPA -DMPI -D1 -DFC_HAVE_ABORT -DCDF -DCDF4 -DSIESTA__FLOOK  -DNCDF -DNCDF_4 -DNCDF_PARALLEL -DSIESTA__METIS -DSIESTA__MUMPS -DTS_NOCHECKS -DSIESTA__MRRR
Libraries       : libncdf.a libfdict.a -lnetcdff -lnetcdf -lpnetcdf -lhdf5_hl -lhdf5 -lz  -lzmuumps -lmumps_common -lesmumps -lscotch -lscotcherr -lpord -lparmetis -lmetis -lelpa -lscalapack -lopenblas  -L/zdata/groups/common/nicpa/2018-feb/XeonE5-2665/flook/0.7.0/gnu-7.3.0/lib -Wl,-rpath=/zdata/groups/common/nicpa/2018-feb/XeonE5-2665/flook/0.7.0/gnu-7.3.0/lib -lflookall -ldl  -flto -fuse-linker-plugin  -lmetis
PARALLEL version
NetCDF support
NetCDF-4 support
NetCDF-4 MPI-IO support
METIS ordering support

* Running on 8 nodes in parallel
>> Start of run:   5-NOV-2018   9:58:01

                           ***********************       
                           *  WELCOME TO SIESTA  *       
                           ***********************       

reinit: Reading from ../graphite_c6_full.fdf

reinit: -----------------------------------------------------------------------
reinit: System Name: 
reinit: -----------------------------------------------------------------------
reinit: System Label: graphite_c6_full
reinit: -----------------------------------------------------------------------
Reading two-body potentials
C6 - two-body potential between 1 and 1

initatom: Reading input for the pseudopotentials and atomic orbitals ----------
Species number:   1 Atomic number:    6 Label: C.pbe

Ground state valence configuration:   2s02  2p02
Reading pseudopotential information in formatted form from C.pbe.psf

Valence configuration for pseudopotential generation:
2s( 2.00) rc: 1.49
2p( 2.00) rc: 1.52
3d( 0.00) rc: 1.52
relmxkb: Read Max KB Ang. Momentum=    2 for species C.pbe

<basis_specs>
===============================================================================
C.pbe                Z=   6    Mass=  12.010        Charge= 0.17977+309
Lmxo=1 Lmxkb= 2    BasisType=split      Semic=F
L=0  Nsemic=0  Cnfigmx=2
          n=1  nzeta=3  polorb=0
            splnorm:   0.30000    
               vcte:    50.000    
               rinn:  -0.80000    
               qcoe:    0.0000    
               qyuk:    0.0000    
               qwid:   0.10000E-01
                rcs:    0.0000      0.0000      0.0000    
            lambdas:    1.0000      1.0000      1.0000    
L=1  Nsemic=0  Cnfigmx=2
          n=1  nzeta=3  polorb=2
            splnorm:   0.30000    
               vcte:    50.000    
               rinn:  -0.80000    
               qcoe:    0.0000    
               qyuk:    0.0000    
               qwid:   0.10000E-01
                rcs:    0.0000      0.0000      0.0000    
            lambdas:    1.0000      1.0000      1.0000    
-------------------------------------------------------------------------------
L=0  Nkbl=1  erefs: 0.17977+309
L=1  Nkbl=1  erefs: 0.17977+309
L=2  Nkbl=1  erefs: 0.17977+309
===============================================================================
</basis_specs>

atom: Called for C.pbe                 (Z =   6)

read_vps: Pseudopotential generation method:
read_vps: ATM 3.2.2 Troullier-Martins                       
Total valence charge:    4.00000

read_vps: Pseudopotential includes a core correction:
read_vps: Pseudo-core for xc-correction

xc_check: Exchange-correlation functional:
xc_check: GGA Perdew, Burke & Ernzerhof 1996
V l=0 = -2*Zval/r beyond r=  1.4666
V l=1 = -2*Zval/r beyond r=  1.5038
V l=2 = -2*Zval/r beyond r=  1.5038
All V_l potentials equal beyond r=  1.5038
This should be close to max(r_c) in ps generation
All pots = -2*Zval/r beyond r=  1.5038

VLOCAL1: 99.0% of the norm of Vloc inside     19.196 Ry
VLOCAL1: 99.9% of the norm of Vloc inside     43.748 Ry
atom: Maximum radius for 4*pi*r*r*local-pseudopot. charge    1.81396
atom: Maximum radius for r*vlocal+2*Zval:    1.56123
GHOST: No ghost state for L =  0
GHOST: No ghost state for L =  1
GHOST: No ghost state for L =  2

KBgen: Kleinman-Bylander projectors: 
   l= 0   rc=  1.682861   el= -1.009802   Ekb=  5.530688   kbcos=  0.309203
   l= 1   rc=  1.682861   el= -0.388707   Ekb= -3.901042   kbcos= -0.358653
   l= 2   rc=  1.769164   el=  0.001971   Ekb= -0.965319   kbcos= -0.008918

KBgen: Total number of  Kleinman-Bylander projectors:    9
atom: -------------------------------------------------------------------------

atom: SANKEY-TYPE ORBITALS:
atom: Selected multiple-zeta basis: split     

SPLIT: Orbitals with angular momentum L= 0

SPLIT: Basis orbitals for state 2s

SPLIT: PAO cut-off radius determined from an
SPLIT: energy shift=  0.002500 Ry

   izeta = 1
                 lambda =    1.000000
                     rc =    5.249652
                 energy =   -1.006063
                kinetic =    0.848579
    potential(screened) =   -1.854641
       potential(ionic) =   -5.411046

   izeta = 2
                 rmatch =    2.917126
              splitnorm =    0.300000
                 energy =   -0.692240
                kinetic =    1.629846
    potential(screened) =   -2.322086
       potential(ionic) =   -6.217211

   izeta = 3
                 rmatch =    3.475094
              splitnorm =    0.150000
                 energy =   -0.875985
                kinetic =    1.293480
    potential(screened) =   -2.169465
       potential(ionic) =   -5.963906

SPLIT: Orbitals with angular momentum L= 1

SPLIT: Basis orbitals for state 2p

SPLIT: PAO cut-off radius determined from an
SPLIT: energy shift=  0.002500 Ry

   izeta = 1
                 lambda =    1.000000
                     rc =    6.574363
                 energy =   -0.384946
                kinetic =    2.366548
    potential(screened) =   -2.751494
       potential(ionic) =   -6.161480

   izeta = 2
                 rmatch =    2.917126
              splitnorm =    0.300000
                 energy =   -0.050508
                kinetic =    4.454985
    potential(screened) =   -4.505493
       potential(ionic) =   -8.466771

   izeta = 3
                 rmatch =    3.699245
              splitnorm =    0.150000
                 energy =   -0.256687
                kinetic =    3.508828
    potential(screened) =   -3.765515
       potential(ionic) =   -7.552009

POLgen: Perturbative polarization orbital with L=  2

POLgen: Polarization orbital for state 2p

   izeta = 1
                     rc =    6.574363
                 energy =    1.044923
                kinetic =    2.180482
    potential(screened) =   -1.135559
       potential(ionic) =   -3.902866

POLgen: Polarization orbital for state 2p

   izeta = 2
                 rmatch =    3.937853
              splitnorm =    0.300000
                 energy =    1.980112
                kinetic =    3.916515
    potential(screened) =   -1.936403
       potential(ionic) =   -5.266232
atom: Total number of Sankey-type orbitals: 22

atm_pop: Valence configuration (for local Pseudopot. screening):
 2s( 2.00)                                                            
 2p( 2.00)                                                            
Vna: chval, zval:    4.00000   4.00000

Vna:  Cut-off radius for the neutral-atom potential:   6.574363
comcore: Pseudo-core radius Rcore=  1.791422

atom: _________________________________________________________________________

prinput: Basis input ----------------------------------------------------------

PAO.BasisType split     

%block ChemicalSpeciesLabel
    1    6 C.pbe                   # Species index, atomic number, species label
%endblock ChemicalSpeciesLabel

%block PAO.Basis                 # Define Basis set
C.pbe                 2                    # Species label, number of l-shells
 n=2   0   3                         # n, l, Nzeta 
   5.250      2.917      3.475   
   1.000      1.000      1.000   
 n=2   1   3 P   2                   # n, l, Nzeta, Polarization, NzetaPol
   6.574      2.917      3.699   
   1.000      1.000      1.000   
%endblock PAO.Basis

prinput: ----------------------------------------------------------------------

Dumping basis to NetCDF file C.pbe.ion.nc
coor:   Atomic-coordinates input format  =     Fractional

siesta: Atomic coordinates (Bohr) and species
siesta:      0.00000   0.00000   0.00000  1        1
siesta:      0.00000   0.00000   6.33814  1        2
siesta:     -0.00000   2.68504   0.00000  1        3
siesta:      2.32531   1.34252   6.33814  1        4

siesta: System type = bulk      

initatomlists: Number of atoms, orbitals, and projectors:      4    88    36

siesta: ******************** Simulation parameters ****************************
siesta:
siesta: The following are some of the parameters of the simulation.
siesta: A complete list of the parameters used, including default values,
siesta: can be found in file out.fdf
siesta:
redata: Spin configuration                          = none
redata: Number of spin components                   = 1
redata: Time-Reversal Symmetry                      = T
redata: Spin-spiral                                 = F
redata: Long output                                 =   T
redata: Number of Atomic Species                    =        1
redata: Charge density info will appear in .RHO file
redata: Write Mulliken Pop.                         = Atomic and Orbital charges
redata: Matel table size (NRTAB)                    =     1024
redata: Mesh Cutoff                                 =   300.0000 Ry
redata: Net charge of the system                    =     0.0000 |e|
redata: Min. number of SCF Iter                     =        0
redata: Max. number of SCF Iter                     =     1000
redata: SCF convergence failure will abort job
redata: SCF mix quantity                            = Hamiltonian
redata: Mix DM or H after convergence               =   F
redata: Recompute H after scf cycle                 =   F
redata: Mix DM in first SCF step                    =   T
redata: Write Pulay info on disk                    =   F
redata: New DM Mixing Weight                        =     0.3000
redata: New DM Occupancy tolerance                  = 0.000000000001
redata: No kicks to SCF
redata: DM Mixing Weight for Kicks                  =     0.5000
redata: Require Harris convergence for SCF          =   F
redata: Harris energy tolerance for SCF             =     0.000100 eV
redata: Require DM convergence for SCF              =   T
redata: DM tolerance for SCF                        =     0.000100
redata: Require EDM convergence for SCF             =   F
redata: EDM tolerance for SCF                       =     0.001000 eV
redata: Require H convergence for SCF               =   T
redata: Hamiltonian tolerance for SCF               =     0.001000 eV
redata: Require (free) Energy convergence for SCF   =   F
redata: (free) Energy tolerance for SCF             =     0.000100 eV
redata: Using Saved Data (generic)                  =   T
redata: Use continuation files for DM               =   T
redata: Neglect nonoverlap interactions             =   F
redata: Method of Calculation                       = Diagonalization
redata: Electronic Temperature                      =     0.0000 K
redata: Fix the spin of the system                  =   F
redata: Dynamics option                             = CG coord. optimization
redata: Variable cell                               =   T
redata: Use continuation files for CG               =   T
redata: Max atomic displ per move                   =     0.1058 Ang
redata: Maximum number of CG moves                  =      100
redata: Force tolerance                             =     0.0100 eV/Ang
redata: Stress tolerance                            =     0.0200 GPa
mix.SCF: Pulay mixing                            = Pulay
mix.SCF:    Variant                              = stable
mix.SCF:    History steps                        = 5
mix.SCF:    Linear mixing weight                 =     0.300000
mix.SCF:    Mixing weight                        =     0.300000
mix.SCF:    SVD condition                        = 0.1000E-07
redata: Save all siesta data in one NC              =   F
redata: ***********************************************************************

%block SCF.Mixers
  Pulay
%endblock SCF.Mixers

%block SCF.Mixer.Pulay
  # Mixing method
  method pulay
  variant stable

  # Mixing options
  weight 0.3000
  weight.linear 0.3000
  history 5
%endblock SCF.Mixer.Pulay

DM_history_depth set to one: no extrapolation allowed by default for geometry relaxation
Size of DM history Fstack: 1
Total number of electrons:    16.000000
Total ionic charge:    16.000000

* ProcessorY, Blocksize:    2  11


* Orbital distribution balance (max,min):    11    11

 Kpoints in:          490 . Kpoints trimmed:          490

siesta: k-point coordinates (Bohr**-1) and weights:
siesta:    1   -0.530767   -0.250722   -0.198266       0.002041
siesta:    2   -0.434264   -0.195006   -0.198266       0.002041
siesta:    3   -0.337761   -0.139290   -0.198266       0.002041
siesta:    4   -0.241258   -0.083574   -0.198266       0.002041
siesta:    5   -0.144755   -0.027858   -0.198266       0.002041
siesta:    6   -0.048252    0.027858   -0.198266       0.002041
siesta:    7    0.048252    0.083574   -0.198266       0.002041
siesta:    8    0.144755    0.139290   -0.198266       0.002041
siesta:    9    0.241258    0.195006   -0.198266       0.002041
siesta:   10    0.337761    0.250722   -0.198266       0.002041
siesta:   11    0.434264    0.306438   -0.198266       0.002041
siesta:   12    0.530767    0.362155   -0.198266       0.002041
siesta:   13    0.627270    0.417871   -0.198266       0.002041
siesta:   14   -0.627270   -0.306438   -0.198266       0.002041
siesta:   15   -0.530767   -0.139290   -0.198266       0.002041
siesta:   16   -0.434264   -0.083574   -0.198266       0.002041
siesta:   17   -0.337761   -0.027858   -0.198266       0.002041
siesta:   18   -0.241258    0.027858   -0.198266       0.002041
siesta:   19   -0.144755    0.083574   -0.198266       0.002041
siesta:   20   -0.048252    0.139290   -0.198266       0.002041
siesta:   21    0.048252    0.195006   -0.198266       0.002041
siesta:   22    0.144755    0.250722   -0.198266       0.002041
siesta:   23    0.241258    0.306438   -0.198266       0.002041
siesta:   24    0.337761    0.362155   -0.198266       0.002041
siesta:   25    0.434264    0.417871   -0.198266       0.002041
siesta:   26    0.530767    0.473587   -0.198266       0.002041
siesta:   27    0.627270    0.529303   -0.198266       0.002041
siesta:   28   -0.627270   -0.195006   -0.198266       0.002041
siesta:   29   -0.530767   -0.027858   -0.198266       0.002041
siesta:   30   -0.434264    0.027858   -0.198266       0.002041
siesta:   31   -0.337761    0.083574   -0.198266       0.002041
siesta:   32   -0.241258    0.139290   -0.198266       0.002041
siesta:   33   -0.144755    0.195006   -0.198266       0.002041
siesta:   34   -0.048252    0.250722   -0.198266       0.002041
siesta:   35    0.048252    0.306438   -0.198266       0.002041
siesta:   36    0.144755    0.362155   -0.198266       0.002041
siesta:   37    0.241258    0.417871   -0.198266       0.002041
siesta:   38    0.337761    0.473587   -0.198266       0.002041
siesta:   39    0.434264    0.529303   -0.198266       0.002041
siesta:   40    0.530767    0.585019   -0.198266       0.002041
siesta:   41    0.627270    0.640735   -0.198266       0.002041
siesta:   42   -0.627270   -0.083574   -0.198266       0.002041
siesta:   43   -0.530767    0.083574   -0.198266       0.002041
siesta:   44   -0.434264    0.139290   -0.198266       0.002041
siesta:   45   -0.337761    0.195006   -0.198266       0.002041
siesta:   46   -0.241258    0.250722   -0.198266       0.002041
siesta:   47   -0.144755    0.306438   -0.198266       0.002041
siesta:   48   -0.048252    0.362155   -0.198266       0.002041
siesta:   49    0.048252    0.417871   -0.198266       0.002041
siesta:   50    0.144755    0.473587   -0.198266       0.002041
siesta:   51    0.241258    0.529303   -0.198266       0.002041
siesta:   52    0.337761    0.585019   -0.198266       0.002041
siesta:   53    0.434264    0.640735   -0.198266       0.002041
siesta:   54    0.530767    0.696451   -0.198266       0.002041
siesta:   55    0.627270    0.752167   -0.198266       0.002041
siesta:   56   -0.627270    0.027858   -0.198266       0.002041
siesta:   57   -0.530767    0.195006   -0.198266       0.002041
siesta:   58   -0.434264    0.250722   -0.198266       0.002041
siesta:   59   -0.337761    0.306438   -0.198266       0.002041
siesta:   60   -0.241258    0.362155   -0.198266       0.002041
siesta:   61   -0.144755    0.417871   -0.198266       0.002041
siesta:   62   -0.048252    0.473587   -0.198266       0.002041
siesta:   63    0.048252    0.529303   -0.198266       0.002041
siesta:   64    0.144755    0.585019   -0.198266       0.002041
siesta:   65    0.241258    0.640735   -0.198266       0.002041
siesta:   66    0.337761    0.696451   -0.198266       0.002041
siesta:   67    0.434264    0.752167   -0.198266       0.002041
siesta:   68    0.530767    0.807883   -0.198266       0.002041
siesta:   69    0.627270    0.863599   -0.198266       0.002041
siesta:   70   -0.627270    0.139290   -0.198266       0.002041
siesta:   71   -0.530767    0.306438   -0.198266       0.002041
siesta:   72   -0.434264    0.362155   -0.198266       0.002041
siesta:   73   -0.337761    0.417871   -0.198266       0.002041
siesta:   74   -0.241258    0.473587   -0.198266       0.002041
siesta:   75   -0.144755    0.529303   -0.198266       0.002041
siesta:   76   -0.048252    0.585019   -0.198266       0.002041
siesta:   77    0.048252    0.640735   -0.198266       0.002041
siesta:   78    0.144755    0.696451   -0.198266       0.002041
siesta:   79    0.241258    0.752167   -0.198266       0.002041
siesta:   80    0.337761    0.807883   -0.198266       0.002041
siesta:   81    0.434264    0.863599   -0.198266       0.002041
siesta:   82    0.530767    0.919315   -0.198266       0.002041
siesta:   83    0.627270    0.975031   -0.198266       0.002041
siesta:   84   -0.627270    0.250722   -0.198266       0.002041
siesta:   85   -0.530767    0.417871   -0.198266       0.002041
siesta:   86   -0.434264    0.473587   -0.198266       0.002041
siesta:   87   -0.337761    0.529303   -0.198266       0.002041
siesta:   88   -0.241258    0.585019   -0.198266       0.002041
siesta:   89   -0.144755    0.640735   -0.198266       0.002041
siesta:   90   -0.048252    0.696451   -0.198266       0.002041
siesta:   91    0.048252    0.752167   -0.198266       0.002041
siesta:   92    0.144755    0.807883   -0.198266       0.002041
siesta:   93    0.241258    0.863599   -0.198266       0.002041
siesta:   94    0.337761    0.919315   -0.198266       0.002041
siesta:   95    0.434264    0.975031   -0.198266       0.002041
siesta:   96    0.530767    1.030747   -0.198266       0.002041
siesta:   97    0.627270    1.086464   -0.198266       0.002041
siesta:   98   -0.627270    0.362155   -0.198266       0.002041
siesta:   99   -0.530767   -0.250722   -0.099133       0.002041
siesta:  100   -0.434264   -0.195006   -0.099133       0.002041
siesta:  101   -0.337761   -0.139290   -0.099133       0.002041
siesta:  102   -0.241258   -0.083574   -0.099133       0.002041
siesta:  103   -0.144755   -0.027858   -0.099133       0.002041
siesta:  104   -0.048252    0.027858   -0.099133       0.002041
siesta:  105    0.048252    0.083574   -0.099133       0.002041
siesta:  106    0.144755    0.139290   -0.099133       0.002041
siesta:  107    0.241258    0.195006   -0.099133       0.002041
siesta:  108    0.337761    0.250722   -0.099133       0.002041
siesta:  109    0.434264    0.306438   -0.099133       0.002041
siesta:  110    0.530767    0.362155   -0.099133       0.002041
siesta:  111    0.627270    0.417871   -0.099133       0.002041
siesta:  112   -0.627270   -0.306438   -0.099133       0.002041
siesta:  113   -0.530767   -0.139290   -0.099133       0.002041
siesta:  114   -0.434264   -0.083574   -0.099133       0.002041
siesta:  115   -0.337761   -0.027858   -0.099133       0.002041
siesta:  116   -0.241258    0.027858   -0.099133       0.002041
siesta:  117   -0.144755    0.083574   -0.099133       0.002041
siesta:  118   -0.048252    0.139290   -0.099133       0.002041
siesta:  119    0.048252    0.195006   -0.099133       0.002041
siesta:  120    0.144755    0.250722   -0.099133       0.002041
siesta:  121    0.241258    0.306438   -0.099133       0.002041
siesta:  122    0.337761    0.362155   -0.099133       0.002041
siesta:  123    0.434264    0.417871   -0.099133       0.002041
siesta:  124    0.530767    0.473587   -0.099133       0.002041
siesta:  125    0.627270    0.529303   -0.099133       0.002041
siesta:  126   -0.627270   -0.195006   -0.099133       0.002041
siesta:  127   -0.530767   -0.027858   -0.099133       0.002041
siesta:  128   -0.434264    0.027858   -0.099133       0.002041
siesta:  129   -0.337761    0.083574   -0.099133       0.002041
siesta:  130   -0.241258    0.139290   -0.099133       0.002041
siesta:  131   -0.144755    0.195006   -0.099133       0.002041
siesta:  132   -0.048252    0.250722   -0.099133       0.002041
siesta:  133    0.048252    0.306438   -0.099133       0.002041
siesta:  134    0.144755    0.362155   -0.099133       0.002041
siesta:  135    0.241258    0.417871   -0.099133       0.002041
siesta:  136    0.337761    0.473587   -0.099133       0.002041
siesta:  137    0.434264    0.529303   -0.099133       0.002041
siesta:  138    0.530767    0.585019   -0.099133       0.002041
siesta:  139    0.627270    0.640735   -0.099133       0.002041
siesta:  140   -0.627270   -0.083574   -0.099133       0.002041
siesta:  141   -0.530767    0.083574   -0.099133       0.002041
siesta:  142   -0.434264    0.139290   -0.099133       0.002041
siesta:  143   -0.337761    0.195006   -0.099133       0.002041
siesta:  144   -0.241258    0.250722   -0.099133       0.002041
siesta:  145   -0.144755    0.306438   -0.099133       0.002041
siesta:  146   -0.048252    0.362155   -0.099133       0.002041
siesta:  147    0.048252    0.417871   -0.099133       0.002041
siesta:  148    0.144755    0.473587   -0.099133       0.002041
siesta:  149    0.241258    0.529303   -0.099133       0.002041
siesta:  150    0.337761    0.585019   -0.099133       0.002041
siesta:  151    0.434264    0.640735   -0.099133       0.002041
siesta:  152    0.530767    0.696451   -0.099133       0.002041
siesta:  153    0.627270    0.752167   -0.099133       0.002041
siesta:  154   -0.627270    0.027858   -0.099133       0.002041
siesta:  155   -0.530767    0.195006   -0.099133       0.002041
siesta:  156   -0.434264    0.250722   -0.099133       0.002041
siesta:  157   -0.337761    0.306438   -0.099133       0.002041
siesta:  158   -0.241258    0.362155   -0.099133       0.002041
siesta:  159   -0.144755    0.417871   -0.099133       0.002041
siesta:  160   -0.048252    0.473587   -0.099133       0.002041
siesta:  161    0.048252    0.529303   -0.099133       0.002041
siesta:  162    0.144755    0.585019   -0.099133       0.002041
siesta:  163    0.241258    0.640735   -0.099133       0.002041
siesta:  164    0.337761    0.696451   -0.099133       0.002041
siesta:  165    0.434264    0.752167   -0.099133       0.002041
siesta:  166    0.530767    0.807883   -0.099133       0.002041
siesta:  167    0.627270    0.863599   -0.099133       0.002041
siesta:  168   -0.627270    0.139290   -0.099133       0.002041
siesta:  169   -0.530767    0.306438   -0.099133       0.002041
siesta:  170   -0.434264    0.362155   -0.099133       0.002041
siesta:  171   -0.337761    0.417871   -0.099133       0.002041
siesta:  172   -0.241258    0.473587   -0.099133       0.002041
siesta:  173   -0.144755    0.529303   -0.099133       0.002041
siesta:  174   -0.048252    0.585019   -0.099133       0.002041
siesta:  175    0.048252    0.640735   -0.099133       0.002041
siesta:  176    0.144755    0.696451   -0.099133       0.002041
siesta:  177    0.241258    0.752167   -0.099133       0.002041
siesta:  178    0.337761    0.807883   -0.099133       0.002041
siesta:  179    0.434264    0.863599   -0.099133       0.002041
siesta:  180    0.530767    0.919315   -0.099133       0.002041
siesta:  181    0.627270    0.975031   -0.099133       0.002041
siesta:  182   -0.627270    0.250722   -0.099133       0.002041
siesta:  183   -0.530767    0.417871   -0.099133       0.002041
siesta:  184   -0.434264    0.473587   -0.099133       0.002041
siesta:  185   -0.337761    0.529303   -0.099133       0.002041
siesta:  186   -0.241258    0.585019   -0.099133       0.002041
siesta:  187   -0.144755    0.640735   -0.099133       0.002041
siesta:  188   -0.048252    0.696451   -0.099133       0.002041
siesta:  189    0.048252    0.752167   -0.099133       0.002041
siesta:  190    0.144755    0.807883   -0.099133       0.002041
siesta:  191    0.241258    0.863599   -0.099133       0.002041
siesta:  192    0.337761    0.919315   -0.099133       0.002041
siesta:  193    0.434264    0.975031   -0.099133       0.002041
siesta:  194    0.530767    1.030747   -0.099133       0.002041
siesta:  195    0.627270    1.086464   -0.099133       0.002041
siesta:  196   -0.627270    0.362155   -0.099133       0.002041
siesta:  197   -0.530767   -0.250722    0.000000       0.002041
siesta:  198   -0.434264   -0.195006    0.000000       0.002041
siesta:  199   -0.337761   -0.139290    0.000000       0.002041
siesta:  200   -0.241258   -0.083574    0.000000       0.002041
siesta:  201   -0.144755   -0.027858    0.000000       0.002041
siesta:  202   -0.048252    0.027858    0.000000       0.002041
siesta:  203    0.048252    0.083574    0.000000       0.002041
siesta:  204    0.144755    0.139290    0.000000       0.002041
siesta:  205    0.241258    0.195006    0.000000       0.002041
siesta:  206    0.337761    0.250722    0.000000       0.002041
siesta:  207    0.434264    0.306438    0.000000       0.002041
siesta:  208    0.530767    0.362155    0.000000       0.002041
siesta:  209    0.627270    0.417871    0.000000       0.002041
siesta:  210   -0.627270   -0.306438    0.000000       0.002041
siesta:  211   -0.530767   -0.139290    0.000000       0.002041
siesta:  212   -0.434264   -0.083574    0.000000       0.002041
siesta:  213   -0.337761   -0.027858    0.000000       0.002041
siesta:  214   -0.241258    0.027858    0.000000       0.002041
siesta:  215   -0.144755    0.083574    0.000000       0.002041
siesta:  216   -0.048252    0.139290    0.000000       0.002041
siesta:  217    0.048252    0.195006    0.000000       0.002041
siesta:  218    0.144755    0.250722    0.000000       0.002041
siesta:  219    0.241258    0.306438    0.000000       0.002041
siesta:  220    0.337761    0.362155    0.000000       0.002041
siesta:  221    0.434264    0.417871    0.000000       0.002041
siesta:  222    0.530767    0.473587    0.000000       0.002041
siesta:  223    0.627270    0.529303    0.000000       0.002041
siesta:  224   -0.627270   -0.195006    0.000000       0.002041
siesta:  225   -0.530767   -0.027858    0.000000       0.002041
siesta:  226   -0.434264    0.027858    0.000000       0.002041
siesta:  227   -0.337761    0.083574    0.000000       0.002041
siesta:  228   -0.241258    0.139290    0.000000       0.002041
siesta:  229   -0.144755    0.195006    0.000000       0.002041
siesta:  230   -0.048252    0.250722    0.000000       0.002041
siesta:  231    0.048252    0.306438    0.000000       0.002041
siesta:  232    0.144755    0.362155    0.000000       0.002041
siesta:  233    0.241258    0.417871    0.000000       0.002041
siesta:  234    0.337761    0.473587    0.000000       0.002041
siesta:  235    0.434264    0.529303    0.000000       0.002041
siesta:  236    0.530767    0.585019    0.000000       0.002041
siesta:  237    0.627270    0.640735    0.000000       0.002041
siesta:  238   -0.627270   -0.083574    0.000000       0.002041
siesta:  239   -0.530767    0.083574    0.000000       0.002041
siesta:  240   -0.434264    0.139290    0.000000       0.002041
siesta:  241   -0.337761    0.195006    0.000000       0.002041
siesta:  242   -0.241258    0.250722    0.000000       0.002041
siesta:  243   -0.144755    0.306438    0.000000       0.002041
siesta:  244   -0.048252    0.362155    0.000000       0.002041
siesta:  245    0.048252    0.417871    0.000000       0.002041
siesta:  246    0.144755    0.473587    0.000000       0.002041
siesta:  247    0.241258    0.529303    0.000000       0.002041
siesta:  248    0.337761    0.585019    0.000000       0.002041
siesta:  249    0.434264    0.640735    0.000000       0.002041
siesta:  250    0.530767    0.696451    0.000000       0.002041
siesta:  251    0.627270    0.752167    0.000000       0.002041
siesta:  252   -0.627270    0.027858    0.000000       0.002041
siesta:  253   -0.530767    0.195006    0.000000       0.002041
siesta:  254   -0.434264    0.250722    0.000000       0.002041
siesta:  255   -0.337761    0.306438    0.000000       0.002041
siesta:  256   -0.241258    0.362155    0.000000       0.002041
siesta:  257   -0.144755    0.417871    0.000000       0.002041
siesta:  258   -0.048252    0.473587    0.000000       0.002041
siesta:  259    0.048252    0.529303    0.000000       0.002041
siesta:  260    0.144755    0.585019    0.000000       0.002041
siesta:  261    0.241258    0.640735    0.000000       0.002041
siesta:  262    0.337761    0.696451    0.000000       0.002041
siesta:  263    0.434264    0.752167    0.000000       0.002041
siesta:  264    0.530767    0.807883    0.000000       0.002041
siesta:  265    0.627270    0.863599    0.000000       0.002041
siesta:  266   -0.627270    0.139290    0.000000       0.002041
siesta:  267   -0.530767    0.306438    0.000000       0.002041
siesta:  268   -0.434264    0.362155    0.000000       0.002041
siesta:  269   -0.337761    0.417871    0.000000       0.002041
siesta:  270   -0.241258    0.473587    0.000000       0.002041
siesta:  271   -0.144755    0.529303    0.000000       0.002041
siesta:  272   -0.048252    0.585019    0.000000       0.002041
siesta:  273    0.048252    0.640735    0.000000       0.002041
siesta:  274    0.144755    0.696451    0.000000       0.002041
siesta:  275    0.241258    0.752167    0.000000       0.002041
siesta:  276    0.337761    0.807883    0.000000       0.002041
siesta:  277    0.434264    0.863599    0.000000       0.002041
siesta:  278    0.530767    0.919315    0.000000       0.002041
siesta:  279    0.627270    0.975031    0.000000       0.002041
siesta:  280   -0.627270    0.250722    0.000000       0.002041
siesta:  281   -0.530767    0.417871    0.000000       0.002041
siesta:  282   -0.434264    0.473587    0.000000       0.002041
siesta:  283   -0.337761    0.529303    0.000000       0.002041
siesta:  284   -0.241258    0.585019    0.000000       0.002041
siesta:  285   -0.144755    0.640735    0.000000       0.002041
siesta:  286   -0.048252    0.696451    0.000000       0.002041
siesta:  287    0.048252    0.752167    0.000000       0.002041
siesta:  288    0.144755    0.807883    0.000000       0.002041
siesta:  289    0.241258    0.863599    0.000000       0.002041
siesta:  290    0.337761    0.919315    0.000000       0.002041
siesta:  291    0.434264    0.975031    0.000000       0.002041
siesta:  292    0.530767    1.030747    0.000000       0.002041
siesta:  293    0.627270    1.086464    0.000000       0.002041
siesta:  294   -0.627270    0.362155    0.000000       0.002041
siesta:  295   -0.530767   -0.250722    0.099133       0.002041
siesta:  296   -0.434264   -0.195006    0.099133       0.002041
siesta:  297   -0.337761   -0.139290    0.099133       0.002041
siesta:  298   -0.241258   -0.083574    0.099133       0.002041
siesta:  299   -0.144755   -0.027858    0.099133       0.002041
siesta:  300   -0.048252    0.027858    0.099133       0.002041
siesta:  301    0.048252    0.083574    0.099133       0.002041
siesta:  302    0.144755    0.139290    0.099133       0.002041
siesta:  303    0.241258    0.195006    0.099133       0.002041
siesta:  304    0.337761    0.250722    0.099133       0.002041
siesta:  305    0.434264    0.306438    0.099133       0.002041
siesta:  306    0.530767    0.362155    0.099133       0.002041
siesta:  307    0.627270    0.417871    0.099133       0.002041
siesta:  308   -0.627270   -0.306438    0.099133       0.002041
siesta:  309   -0.530767   -0.139290    0.099133       0.002041
siesta:  310   -0.434264   -0.083574    0.099133       0.002041
siesta:  311   -0.337761   -0.027858    0.099133       0.002041
siesta:  312   -0.241258    0.027858    0.099133       0.002041
siesta:  313   -0.144755    0.083574    0.099133       0.002041
siesta:  314   -0.048252    0.139290    0.099133       0.002041
siesta:  315    0.048252    0.195006    0.099133       0.002041
siesta:  316    0.144755    0.250722    0.099133       0.002041
siesta:  317    0.241258    0.306438    0.099133       0.002041
siesta:  318    0.337761    0.362155    0.099133       0.002041
siesta:  319    0.434264    0.417871    0.099133       0.002041
siesta:  320    0.530767    0.473587    0.099133       0.002041
siesta:  321    0.627270    0.529303    0.099133       0.002041
siesta:  322   -0.627270   -0.195006    0.099133       0.002041
siesta:  323   -0.530767   -0.027858    0.099133       0.002041
siesta:  324   -0.434264    0.027858    0.099133       0.002041
siesta:  325   -0.337761    0.083574    0.099133       0.002041
siesta:  326   -0.241258    0.139290    0.099133       0.002041
siesta:  327   -0.144755    0.195006    0.099133       0.002041
siesta:  328   -0.048252    0.250722    0.099133       0.002041
siesta:  329    0.048252    0.306438    0.099133       0.002041
siesta:  330    0.144755    0.362155    0.099133       0.002041
siesta:  331    0.241258    0.417871    0.099133       0.002041
siesta:  332    0.337761    0.473587    0.099133       0.002041
siesta:  333    0.434264    0.529303    0.099133       0.002041
siesta:  334    0.530767    0.585019    0.099133       0.002041
siesta:  335    0.627270    0.640735    0.099133       0.002041
siesta:  336   -0.627270   -0.083574    0.099133       0.002041
siesta:  337   -0.530767    0.083574    0.099133       0.002041
siesta:  338   -0.434264    0.139290    0.099133       0.002041
siesta:  339   -0.337761    0.195006    0.099133       0.002041
siesta:  340   -0.241258    0.250722    0.099133       0.002041
siesta:  341   -0.144755    0.306438    0.099133       0.002041
siesta:  342   -0.048252    0.362155    0.099133       0.002041
siesta:  343    0.048252    0.417871    0.099133       0.002041
siesta:  344    0.144755    0.473587    0.099133       0.002041
siesta:  345    0.241258    0.529303    0.099133       0.002041
siesta:  346    0.337761    0.585019    0.099133       0.002041
siesta:  347    0.434264    0.640735    0.099133       0.002041
siesta:  348    0.530767    0.696451    0.099133       0.002041
siesta:  349    0.627270    0.752167    0.099133       0.002041
siesta:  350   -0.627270    0.027858    0.099133       0.002041
siesta:  351   -0.530767    0.195006    0.099133       0.002041
siesta:  352   -0.434264    0.250722    0.099133       0.002041
siesta:  353   -0.337761    0.306438    0.099133       0.002041
siesta:  354   -0.241258    0.362155    0.099133       0.002041
siesta:  355   -0.144755    0.417871    0.099133       0.002041
siesta:  356   -0.048252    0.473587    0.099133       0.002041
siesta:  357    0.048252    0.529303    0.099133       0.002041
siesta:  358    0.144755    0.585019    0.099133       0.002041
siesta:  359    0.241258    0.640735    0.099133       0.002041
siesta:  360    0.337761    0.696451    0.099133       0.002041
siesta:  361    0.434264    0.752167    0.099133       0.002041
siesta:  362    0.530767    0.807883    0.099133       0.002041
siesta:  363    0.627270    0.863599    0.099133       0.002041
siesta:  364   -0.627270    0.139290    0.099133       0.002041
siesta:  365   -0.530767    0.306438    0.099133       0.002041
siesta:  366   -0.434264    0.362155    0.099133       0.002041
siesta:  367   -0.337761    0.417871    0.099133       0.002041
siesta:  368   -0.241258    0.473587    0.099133       0.002041
siesta:  369   -0.144755    0.529303    0.099133       0.002041
siesta:  370   -0.048252    0.585019    0.099133       0.002041
siesta:  371    0.048252    0.640735    0.099133       0.002041
siesta:  372    0.144755    0.696451    0.099133       0.002041
siesta:  373    0.241258    0.752167    0.099133       0.002041
siesta:  374    0.337761    0.807883    0.099133       0.002041
siesta:  375    0.434264    0.863599    0.099133       0.002041
siesta:  376    0.530767    0.919315    0.099133       0.002041
siesta:  377    0.627270    0.975031    0.099133       0.002041
siesta:  378   -0.627270    0.250722    0.099133       0.002041
siesta:  379   -0.530767    0.417871    0.099133       0.002041
siesta:  380   -0.434264    0.473587    0.099133       0.002041
siesta:  381   -0.337761    0.529303    0.099133       0.002041
siesta:  382   -0.241258    0.585019    0.099133       0.002041
siesta:  383   -0.144755    0.640735    0.099133       0.002041
siesta:  384   -0.048252    0.696451    0.099133       0.002041
siesta:  385    0.048252    0.752167    0.099133       0.002041
siesta:  386    0.144755    0.807883    0.099133       0.002041
siesta:  387    0.241258    0.863599    0.099133       0.002041
siesta:  388    0.337761    0.919315    0.099133       0.002041
siesta:  389    0.434264    0.975031    0.099133       0.002041
siesta:  390    0.530767    1.030747    0.099133       0.002041
siesta:  391    0.627270    1.086464    0.099133       0.002041
siesta:  392   -0.627270    0.362155    0.099133       0.002041
siesta:  393   -0.530767   -0.250722    0.198266       0.002041
siesta:  394   -0.434264   -0.195006    0.198266       0.002041
siesta:  395   -0.337761   -0.139290    0.198266       0.002041
siesta:  396   -0.241258   -0.083574    0.198266       0.002041
siesta:  397   -0.144755   -0.027858    0.198266       0.002041
siesta:  398   -0.048252    0.027858    0.198266       0.002041
siesta:  399    0.048252    0.083574    0.198266       0.002041
siesta:  400    0.144755    0.139290    0.198266       0.002041
siesta:  401    0.241258    0.195006    0.198266       0.002041
siesta:  402    0.337761    0.250722    0.198266       0.002041
siesta:  403    0.434264    0.306438    0.198266       0.002041
siesta:  404    0.530767    0.362155    0.198266       0.002041
siesta:  405    0.627270    0.417871    0.198266       0.002041
siesta:  406   -0.627270   -0.306438    0.198266       0.002041
siesta:  407   -0.530767   -0.139290    0.198266       0.002041
siesta:  408   -0.434264   -0.083574    0.198266       0.002041
siesta:  409   -0.337761   -0.027858    0.198266       0.002041
siesta:  410   -0.241258    0.027858    0.198266       0.002041
siesta:  411   -0.144755    0.083574    0.198266       0.002041
siesta:  412   -0.048252    0.139290    0.198266       0.002041
siesta:  413    0.048252    0.195006    0.198266       0.002041
siesta:  414    0.144755    0.250722    0.198266       0.002041
siesta:  415    0.241258    0.306438    0.198266       0.002041
siesta:  416    0.337761    0.362155    0.198266       0.002041
siesta:  417    0.434264    0.417871    0.198266       0.002041
siesta:  418    0.530767    0.473587    0.198266       0.002041
siesta:  419    0.627270    0.529303    0.198266       0.002041
siesta:  420   -0.627270   -0.195006    0.198266       0.002041
siesta:  421   -0.530767   -0.027858    0.198266       0.002041
siesta:  422   -0.434264    0.027858    0.198266       0.002041
siesta:  423   -0.337761    0.083574    0.198266       0.002041
siesta:  424   -0.241258    0.139290    0.198266       0.002041
siesta:  425   -0.144755    0.195006    0.198266       0.002041
siesta:  426   -0.048252    0.250722    0.198266       0.002041
siesta:  427    0.048252    0.306438    0.198266       0.002041
siesta:  428    0.144755    0.362155    0.198266       0.002041
siesta:  429    0.241258    0.417871    0.198266       0.002041
siesta:  430    0.337761    0.473587    0.198266       0.002041
siesta:  431    0.434264    0.529303    0.198266       0.002041
siesta:  432    0.530767    0.585019    0.198266       0.002041
siesta:  433    0.627270    0.640735    0.198266       0.002041
siesta:  434   -0.627270   -0.083574    0.198266       0.002041
siesta:  435   -0.530767    0.083574    0.198266       0.002041
siesta:  436   -0.434264    0.139290    0.198266       0.002041
siesta:  437   -0.337761    0.195006    0.198266       0.002041
siesta:  438   -0.241258    0.250722    0.198266       0.002041
siesta:  439   -0.144755    0.306438    0.198266       0.002041
siesta:  440   -0.048252    0.362155    0.198266       0.002041
siesta:  441    0.048252    0.417871    0.198266       0.002041
siesta:  442    0.144755    0.473587    0.198266       0.002041
siesta:  443    0.241258    0.529303    0.198266       0.002041
siesta:  444    0.337761    0.585019    0.198266       0.002041
siesta:  445    0.434264    0.640735    0.198266       0.002041
siesta:  446    0.530767    0.696451    0.198266       0.002041
siesta:  447    0.627270    0.752167    0.198266       0.002041
siesta:  448   -0.627270    0.027858    0.198266       0.002041
siesta:  449   -0.530767    0.195006    0.198266       0.002041
siesta:  450   -0.434264    0.250722    0.198266       0.002041
siesta:  451   -0.337761    0.306438    0.198266       0.002041
siesta:  452   -0.241258    0.362155    0.198266       0.002041
siesta:  453   -0.144755    0.417871    0.198266       0.002041
siesta:  454   -0.048252    0.473587    0.198266       0.002041
siesta:  455    0.048252    0.529303    0.198266       0.002041
siesta:  456    0.144755    0.585019    0.198266       0.002041
siesta:  457    0.241258    0.640735    0.198266       0.002041
siesta:  458    0.337761    0.696451    0.198266       0.002041
siesta:  459    0.434264    0.752167    0.198266       0.002041
siesta:  460    0.530767    0.807883    0.198266       0.002041
siesta:  461    0.627270    0.863599    0.198266       0.002041
siesta:  462   -0.627270    0.139290    0.198266       0.002041
siesta:  463   -0.530767    0.306438    0.198266       0.002041
siesta:  464   -0.434264    0.362155    0.198266       0.002041
siesta:  465   -0.337761    0.417871    0.198266       0.002041
siesta:  466   -0.241258    0.473587    0.198266       0.002041
siesta:  467   -0.144755    0.529303    0.198266       0.002041
siesta:  468   -0.048252    0.585019    0.198266       0.002041
siesta:  469    0.048252    0.640735    0.198266       0.002041
siesta:  470    0.144755    0.696451    0.198266       0.002041
siesta:  471    0.241258    0.752167    0.198266       0.002041
siesta:  472    0.337761    0.807883    0.198266       0.002041
siesta:  473    0.434264    0.863599    0.198266       0.002041
siesta:  474    0.530767    0.919315    0.198266       0.002041
siesta:  475    0.627270    0.975031    0.198266       0.002041
siesta:  476   -0.627270    0.250722    0.198266       0.002041
siesta:  477   -0.530767    0.417871    0.198266       0.002041
siesta:  478   -0.434264    0.473587    0.198266       0.002041
siesta:  479   -0.337761    0.529303    0.198266       0.002041
siesta:  480   -0.241258    0.585019    0.198266       0.002041
siesta:  481   -0.144755    0.640735    0.198266       0.002041
siesta:  482   -0.048252    0.696451    0.198266       0.002041
siesta:  483    0.048252    0.752167    0.198266       0.002041
siesta:  484    0.144755    0.807883    0.198266       0.002041
siesta:  485    0.241258    0.863599    0.198266       0.002041
siesta:  486    0.337761    0.919315    0.198266       0.002041
siesta:  487    0.434264    0.975031    0.198266       0.002041
siesta:  488    0.530767    1.030747    0.198266       0.002041
siesta:  489    0.627270    1.086464    0.198266       0.002041
siesta:  490   -0.627270    0.362155    0.198266       0.002041

siesta: k-grid: Number of k-points =   490
siesta: k-grid: Cutoff (effective) =    16.770 Ang
siesta: k-grid: Supercell and displacements
siesta: k-grid:    0  14   0      0.500
siesta: k-grid:   14   0   0      0.500
siesta: k-grid:    0   0   5      0.000

diag: Algorithm                                     = D&C
diag: Parallel over k                               =   F
diag: Use parallel 2D distribution                  =   T
diag: Parallel block-size                           = 11
diag: Parallel distribution                         =     2 x     4
diag: Used triangular part                          = Lower
diag: Absolute tolerance                            =  0.100E-15
diag: Orthogonalization factor                      =  0.100E-05
diag: Memory factor                                 =  1.0000

superc: Internal auxiliary supercell:     9 x     9 x     3  =     243
superc: Number of atoms, orbitals, and projectors:    972  21384   8748


ts: **************************************************************
ts: Save H and S matrices                           =    F
ts: Save DM and EDM matrices                        =    F
ts: Fix Hartree potential                           =    F
ts: Only save the overlap matrix S                  =    F
ts: **************************************************************

************************ Begin: TS CHECKS AND WARNINGS ************************
************************ End: TS CHECKS AND WARNINGS **************************


                     ====================================
                        Begin CG opt. move =      0
                     ====================================

outcoor: Atomic coordinates (fractional):                   
    0.00000000    0.00000000    0.00000000   1       1  C.pbe
    0.00000000    0.00000000    0.50000000   1       2  C.pbe
    0.33333333    0.66666667    0.00000000   1       3  C.pbe
    0.66666667    0.33333333    0.50000000   1       4  C.pbe

superc: Internal auxiliary supercell:     9 x     9 x     3  =     243
superc: Number of atoms, orbitals, and projectors:    972  21384   8748

outcell: Unit cell vectors (Ang):
        2.461000    0.000000    0.000000
       -1.230500    2.131289    0.000000
        0.000000    0.000000    6.708000

outcell: Cell vector modules (Ang)   :    2.461000    2.461000    6.708000
outcell: Cell angles (23,13,12) (deg):     90.0000     90.0000    120.0000
outcell: Cell volume (Ang**3)        :     35.1841
<dSpData1D:S at geom step 0
  <sparsity:sparsity for geom step 0
    nrows_g=88 nrows=11 sparsity=3.4712 nnzs=26881, refcount: 7>
  <dData1D:(new from dSpData1D) n=26881, refcount: 1>
refcount: 1>
new_DM -- step:     1
Initializing Density Matrix...

Attempting to read DM from file... Failed...
DM filled with atomic data:
<dSpData2D:DM initialized from atoms
  <sparsity:sparsity for geom step 0
    nrows_g=88 nrows=11 sparsity=3.4712 nnzs=26881, refcount: 8>
  <dData2D:DM n=26881 m=1, refcount: 1>
refcount: 1>
No. of atoms with KB's overlaping orbs in proc 0. Max # of overlaps:      51     583
New grid distribution:   1
           1       1:   12    1:    6    1:    9
           2       1:   12    1:    6   10:   18
           3       1:   12    1:    6   19:   27
           4       1:   12    1:    6   28:   36
           5       1:   12    7:   12    1:    9
           6       1:   12    7:   12   10:   18
           7       1:   12    7:   12   19:   27
           8       1:   12    7:   12   28:   36

InitMesh: MESH =    24 x    24 x    72 =       41472
InitMesh: (bp) =    12 x    12 x    36 =        5184
InitMesh: Mesh cutoff (required, used) =   300.000   318.405 Ry
ExtMesh (bp) on 0 =    92 x    86 x    85 =      672520
New grid distribution:   2
           1       1:   12    1:    6    1:    9
           2       1:   12    1:    6   10:   18
           3       1:   12    1:    6   19:   27
           4       1:   12    1:    6   28:   36
           5       1:   12    7:   12    1:    9
           6       1:   12    7:   12   10:   18
           7       1:   12    7:   12   19:   27
           8       1:   12    7:   12   28:   36
New grid distribution:   3
           1       1:   12    1:    6    1:    9
           2       1:   12    1:    6   10:   18
           3       1:   12    1:    6   19:   27
           4       1:   12    1:    6   28:   36
           5       1:   12    7:   12    1:    9
           6       1:   12    7:   12   10:   18
           7       1:   12    7:   12   19:   27
           8       1:   12    7:   12   28:   36
Setting up quadratic distribution...
ExtMesh (bp) on 0 =    92 x    86 x    85 =      672520
PhiOnMesh: Number of (b)points on node 0 =                  648
PhiOnMesh: nlist on node 0 =               149917

stepf: Fermi-Dirac step function

siesta: Program's energy decomposition (eV):
siesta: Ebs     =      -224.313846
siesta: Eions   =      1035.253114
siesta: Ena     =       233.316080
siesta: Ekin    =       462.219493
siesta: Enl     =       -50.982227
siesta: Eso     =         0.000000
siesta: Eldau   =         0.000000
siesta: DEna    =       -34.728064
siesta: DUscf   =         3.454202
siesta: DUext   =         0.000000
siesta: Enegf   =         0.000000
siesta: Exc     =      -208.142008
siesta: eta*DQ  =         0.000000
siesta: Emadel  =         0.000000
siesta: Emeta   =         0.000000
siesta: Emolmec =        -0.425283
siesta: Ekinion =         0.000000
siesta: Eharris =      -621.928055
siesta: Etot    =      -630.540921
siesta: FreeEng =      -630.540921

        iscf     Eharris(eV)        E_KS(eV)     FreeEng(eV)     dDmax    Ef(eV) dHmax(eV)
   scf:    1     -621.928055     -630.540921     -630.540921  1.524667 -6.842663  3.438837
timer: Routine,Calls,Time,% = IterSCF        1      12.666  81.45
   scf:    2     -631.278938     -630.924575     -630.924575  0.071422 -6.374034  1.964185
   scf:    3     -631.264600     -631.124549     -631.124549  0.112808 -5.674026  0.037927
   scf:    4     -631.124327     -631.124460     -631.124460  0.009096 -5.721941  0.042117
   scf:    5     -631.124749     -631.124628     -631.124628  0.001323 -5.707876  0.000571
   scf:    6     -631.124628     -631.124628     -631.124628  0.000156 -5.708478  0.001313
   scf:    7     -631.124628     -631.124628     -631.124628  0.000053 -5.708096  0.000450

SCF Convergence by DM+H criterion
max |DM_out - DM_in|         :     0.0000531517
max |H_out - H_in|      (eV) :     0.0004501223
SCF cycle converged after 7 iterations

Using DM_out to compute the final energy and forces
No. of atoms with KB's overlaping orbs in proc 0. Max # of overlaps:      51     583

grdsam: Reading %block Grid.CellSampling
grdsam: Grid-cell sampling: 0 / 1
grdsam: Grid-cell sampling: 1 / 1
New grid distribution:   1
           1       1:   12    1:    6    1:    9
           2       1:   12    1:    6   10:   18
           3       1:   12    1:    6   19:   27
           4       1:   12    1:    6   28:   36
           5       1:   12    7:   12    1:    9
           6       1:   12    7:   12   10:   18
           7       1:   12    7:   12   19:   27
           8       1:   12    7:   12   28:   36

InitMesh: MESH =    24 x    24 x    72 =       41472
InitMesh: (bp) =    12 x    12 x    36 =        5184
InitMesh: Mesh cutoff (required, used) =   300.000   318.405 Ry
ExtMesh (bp) on 0 =    92 x    86 x    85 =      672520
New grid distribution:   2
           1       1:   12    1:    6    1:    9
           2       1:   12    1:    6   10:   18
           3       1:   12    1:    6   19:   27
           4       1:   12    1:    6   28:   36
           5       1:   12    7:   12    1:    9
           6       1:   12    7:   12   10:   18
           7       1:   12    7:   12   19:   27
           8       1:   12    7:   12   28:   36
New grid distribution:   3
           1       1:   12    1:    6    1:    9
           2       1:   12    1:    6   10:   18
           3       1:   12    1:    6   19:   27
           4       1:   12    1:    6   28:   36
           5       1:   12    7:   12    1:    9
           6       1:   12    7:   12   10:   18
           7       1:   12    7:   12   19:   27
           8       1:   12    7:   12   28:   36
Setting up quadratic distribution...
ExtMesh (bp) on 0 =    92 x    86 x    85 =      672520
PhiOnMesh: Number of (b)points on node 0 =                  648
PhiOnMesh: nlist on node 0 =               149052

grdsam: Max (sampled force - avg. force):   0.002187   0.001263  -0.000000 eV/Ang
grdsam: Standard deviation of sampled force:   0.002159   0.001246   0.000000 eV/Ang
grdsam: Max (sampled stress - avg. stress):   2.638867 kbar

New grid distribution:   1
           1       1:   12    1:    6    1:    9
           2       1:   12    1:    6   10:   18
           3       1:   12    1:    6   19:   27
           4       1:   12    1:    6   28:   36
           5       1:   12    7:   12    1:    9
           6       1:   12    7:   12   10:   18
           7       1:   12    7:   12   19:   27
           8       1:   12    7:   12   28:   36

InitMesh: MESH =    24 x    24 x    72 =       41472
InitMesh: (bp) =    12 x    12 x    36 =        5184
InitMesh: Mesh cutoff (required, used) =   300.000   318.405 Ry
ExtMesh (bp) on 0 =    92 x    86 x    85 =      672520
New grid distribution:   2
           1       1:   12    1:    6    1:    9
           2       1:   12    1:    6   10:   18
           3       1:   12    1:    6   19:   27
           4       1:   12    1:    6   28:   36
           5       1:   12    7:   12    1:    9
           6       1:   12    7:   12   10:   18
           7       1:   12    7:   12   19:   27
           8       1:   12    7:   12   28:   36
New grid distribution:   3
           1       1:   12    1:    6    1:    9
           2       1:   12    1:    6   10:   18
           3       1:   12    1:    6   19:   27
           4       1:   12    1:    6   28:   36
           5       1:   12    7:   12    1:    9
           6       1:   12    7:   12   10:   18
           7       1:   12    7:   12   19:   27
           8       1:   12    7:   12   28:   36
Setting up quadratic distribution...
ExtMesh (bp) on 0 =    92 x    86 x    85 =      672520
PhiOnMesh: Number of (b)points on node 0 =                  648
PhiOnMesh: nlist on node 0 =               149917

MM-Stress (kbar):       21.25       21.25       18.07        0.00        0.00       -0.00

siesta: E_KS(eV) =             -631.1252

siesta: E_KS - E_eggbox =      -631.1252

siesta: Atomic forces (eV/Ang):
     1    0.031030   -0.017915   -0.000000
     2   -0.031030    0.017915   -0.000000
     3   -0.034113    0.019695    0.000000
     4    0.034113   -0.019695    0.000000
----------------------------------------
   Tot    0.000000   -0.000000   -0.000000
----------------------------------------
   Max    0.034113
   Res    0.021739    sqrt( Sum f_i^2 / 3N )
----------------------------------------
   Max    0.034113    constrained

Stress-tensor-Voigt (kbar):      -18.79      -21.62       -9.32       -2.45       -0.00        0.00
(Free)E + p*V (eV/cell)     -630.7612
Target enthalpy (eV/cell)     -631.1252

siesta: Stress tensor (static) (eV/Ang**3):
        -0.011726   -0.001531    0.000000
        -0.001531   -0.013494   -0.000000
         0.000000   -0.000000   -0.005816

siesta: Pressure (static):         16.57526174  kBar

siesta: Stress tensor (total) (eV/Ang**3):
        -0.011726   -0.001531    0.000000
        -0.001531   -0.013494   -0.000000
         0.000000   -0.000000   -0.005816

siesta: Pressure (total):         16.57526174  kBar

mulliken: Atomic and Orbital Populations:

Species: C.pbe               
Atom  Qatom  Qorb
               2s      2s      2s      2py     2pz     2px     2py     2pz     
               2px     2py     2pz     2px     2Pdxy   2Pdyz   2Pdz2   2Pdxz   
               2Pdx2-y22Pdxy   2Pdyz   2Pdz2   2Pdxz   2Pdx2-y2
   1  3.999   0.994   0.160   0.021   0.742   0.706   0.742   0.263   0.066
              0.263  -0.089   0.145  -0.089   0.029   0.038  -0.051   0.039

              0.029  -0.014   0.002   0.014   0.002  -0.014
   2  3.999   0.994   0.160   0.021   0.742   0.706   0.742   0.263   0.066
              0.263  -0.089   0.145  -0.089   0.029   0.038  -0.051   0.039

              0.029  -0.014   0.002   0.014   0.002  -0.014
   3  4.001   1.002   0.152   0.026   0.740   0.704   0.740   0.260   0.065
              0.260  -0.085   0.152  -0.085   0.032   0.043  -0.069   0.043

              0.032  -0.015   0.001   0.018   0.001  -0.015
   4  4.001   1.002   0.152   0.026   0.740   0.704   0.740   0.260   0.065
              0.260  -0.085   0.152  -0.085   0.032   0.043  -0.069   0.043

              0.032  -0.015   0.001   0.018   0.001  -0.015

mulliken: Qtot =       16.000

cgvc: No target stress found, assuming hydrostatic MD.TargetPressure.

cgvc: Target stress (kBar)
cgvc:        -0.000       0.000       0.000
cgvc:         0.000      -0.000       0.000
cgvc:         0.000       0.000      -0.000

cgvc: WARNING: CG file not found

                     ====================================
                        Begin CG opt. move =      1
                     ====================================

outcoor: Atomic coordinates (fractional):                   
    0.00825645   -0.00825637   -0.00000000   1       1  C.pbe
   -0.00825645    0.00825637    0.50000000   1       2  C.pbe
    0.32425635    0.67574357    0.00000000   1       3  C.pbe
    0.67574365    0.32425643    0.50000000   1       4  C.pbe
 Kpoints in:          455 . Kpoints trimmed:          423

siesta: k-point coordinates (Bohr**-1) and weights:
siesta:    1   -0.616397   -0.354731   -0.197209       0.002367
siesta:    2   -0.513664   -0.295609   -0.197209       0.002367
siesta:    3   -0.410931   -0.236487   -0.197209       0.002367
siesta:    4   -0.308198   -0.177365   -0.197209       0.002367
siesta:    5   -0.205466   -0.118244   -0.197209       0.002367
siesta:    6   -0.102733   -0.059122   -0.197209       0.002367
siesta:    7   -0.000000    0.000000   -0.197209       0.002367
siesta:    8    0.102733    0.059122   -0.197209       0.002367
siesta:    9    0.205466    0.118244   -0.197209       0.002367
siesta:   10    0.308198    0.177365   -0.197209       0.002367
siesta:   11    0.410931    0.236487   -0.197209       0.002367
siesta:   12    0.513664    0.295609   -0.197209       0.002367
siesta:   13    0.616397    0.354731   -0.197209       0.002367
siesta:   14   -0.616562   -0.236201   -0.197209       0.002367
siesta:   15   -0.513829   -0.177079   -0.197209       0.002367
siesta:   16   -0.411097   -0.117957   -0.197209       0.002367
siesta:   17   -0.308364   -0.058835   -0.197209       0.002367
siesta:   18   -0.205631    0.000287   -0.197209       0.002367
siesta:   19   -0.102898    0.059408   -0.197209       0.002367
siesta:   20   -0.000165    0.118530   -0.197209       0.002367
siesta:   21    0.102567    0.177652   -0.197209       0.002367
siesta:   22    0.205300    0.236774   -0.197209       0.002367
siesta:   23    0.308033    0.295896   -0.197209       0.002367
siesta:   24    0.410766    0.355017   -0.197209       0.002367
siesta:   25    0.513499    0.414139   -0.197209       0.002367
siesta:   26    0.616231    0.473261   -0.197209       0.002367
siesta:   27   -0.616728   -0.117671   -0.197209       0.002367
siesta:   28   -0.513995   -0.058549   -0.197209       0.002367
siesta:   29   -0.411262    0.000573   -0.197209       0.002367
siesta:   30   -0.308529    0.059695   -0.197209       0.002367
siesta:   31   -0.205796    0.118817   -0.197209       0.002367
siesta:   32   -0.103064    0.177938   -0.197209       0.002367
siesta:   33   -0.000331    0.237060   -0.197209       0.002367
siesta:   34    0.102402    0.296182   -0.197209       0.002367
siesta:   35    0.205135    0.355304   -0.197209       0.002367
siesta:   36    0.307868    0.414426   -0.197209       0.002367
siesta:   37    0.410600    0.473547   -0.197209       0.002367
siesta:   38    0.513333    0.532669   -0.197209       0.002367
siesta:   39    0.616066    0.591791   -0.197209       0.002367
siesta:   40   -0.616893    0.000860   -0.197209       0.002367
siesta:   41   -0.514160    0.059981   -0.197209       0.002367
siesta:   42   -0.411427    0.119103   -0.197209       0.002367
siesta:   43   -0.308695    0.178225   -0.197209       0.002367
siesta:   44   -0.205962    0.237347   -0.197209       0.002367
siesta:   45   -0.103229    0.296469   -0.197209       0.002367
siesta:   46   -0.000496    0.355590   -0.197209       0.002367
siesta:   47    0.102237    0.414712   -0.197209       0.002367
siesta:   48    0.204969    0.473834   -0.197209       0.002367
siesta:   49    0.307702    0.532956   -0.197209       0.002367
siesta:   50    0.410435    0.592078   -0.197209       0.002367
siesta:   51    0.513168    0.651199   -0.197209       0.002367
siesta:   52    0.615901    0.710321   -0.197209       0.002367
siesta:   53   -0.617058    0.119390   -0.197209       0.002367
siesta:   54   -0.514326    0.178511   -0.197209       0.002367
siesta:   55   -0.411593    0.237633   -0.197209       0.002367
siesta:   56   -0.308860    0.296755   -0.197209       0.002367
siesta:   57   -0.206127    0.355877   -0.197209       0.002367
siesta:   58   -0.103394    0.414999   -0.197209       0.002367
siesta:   59   -0.000662    0.474120   -0.197209       0.002367
siesta:   60    0.102071    0.533242   -0.197209       0.002367
siesta:   61    0.204804    0.592364   -0.197209       0.002367
siesta:   62    0.307537    0.651486   -0.197209       0.002367
siesta:   63    0.410270    0.710608   -0.197209       0.002367
siesta:   64    0.513002    0.769729   -0.197209       0.002367
siesta:   65    0.615735    0.828851   -0.197209       0.002367
siesta:   66   -0.617224    0.237920   -0.197209       0.002367
siesta:   67   -0.514491    0.297042   -0.197209       0.002367
siesta:   68   -0.411758    0.356163   -0.197209       0.002367
siesta:   69   -0.309025    0.415285   -0.197209       0.002367
siesta:   70   -0.206293    0.474407   -0.197209       0.002367
siesta:   71   -0.103560    0.533529   -0.197209       0.002367
siesta:   72   -0.000827    0.592651   -0.197209       0.002367
siesta:   73    0.101906    0.651772   -0.197209       0.002367
siesta:   74    0.204639    0.710894   -0.197209       0.002367
siesta:   75    0.307371    0.770016   -0.197209       0.002367
siesta:   76    0.410104    0.829138   -0.197209       0.002367
siesta:   77    0.512837    0.888260   -0.197209       0.002367
siesta:   78    0.615570    0.947381   -0.197209       0.002367
siesta:   79   -0.617389    0.356450   -0.197209       0.002367
siesta:   80   -0.514656    0.415572   -0.197209       0.002367
siesta:   81   -0.411924    0.474693   -0.197209       0.002367
siesta:   82   -0.309191    0.533815   -0.197209       0.002367
siesta:   83   -0.206458    0.592937   -0.197209       0.002367
siesta:   84   -0.103725    0.652059   -0.197209       0.002367
siesta:   85   -0.000992    0.711181   -0.197209       0.002367
siesta:   86    0.101740    0.770302   -0.197209       0.002367
siesta:   87    0.204473    0.829424   -0.197209       0.002367
siesta:   88    0.307206    0.888546   -0.197209       0.002367
siesta:   89    0.409939    0.947668   -0.197209       0.002367
siesta:   90    0.512671    1.006790   -0.197209       0.002367
siesta:   91    0.615404    1.065912   -0.197209       0.002367
siesta:   92   -0.616397   -0.354731   -0.098604       0.002367
siesta:   93   -0.513664   -0.295609   -0.098604       0.002367
siesta:   94   -0.410931   -0.236487   -0.098604       0.002367
siesta:   95   -0.308198   -0.177365   -0.098604       0.002367
siesta:   96   -0.205466   -0.118244   -0.098604       0.002367
siesta:   97   -0.102733   -0.059122   -0.098604       0.002367
siesta:   98   -0.000000    0.000000   -0.098604       0.002367
siesta:   99    0.102733    0.059122   -0.098604       0.002367
siesta:  100    0.205466    0.118244   -0.098604       0.002367
siesta:  101    0.308198    0.177365   -0.098604       0.002367
siesta:  102    0.410931    0.236487   -0.098604       0.002367
siesta:  103    0.513664    0.295609   -0.098604       0.002367
siesta:  104    0.616397    0.354731   -0.098604       0.002367
siesta:  105   -0.616562   -0.236201   -0.098604       0.002367
siesta:  106   -0.513829   -0.177079   -0.098604       0.002367
siesta:  107   -0.411097   -0.117957   -0.098604       0.002367
siesta:  108   -0.308364   -0.058835   -0.098604       0.002367
siesta:  109   -0.205631    0.000287   -0.098604       0.002367
siesta:  110   -0.102898    0.059408   -0.098604       0.002367
siesta:  111   -0.000165    0.118530   -0.098604       0.002367
siesta:  112    0.102567    0.177652   -0.098604       0.002367
siesta:  113    0.205300    0.236774   -0.098604       0.002367
siesta:  114    0.308033    0.295896   -0.098604       0.002367
siesta:  115    0.410766    0.355017   -0.098604       0.002367
siesta:  116    0.513499    0.414139   -0.098604       0.002367
siesta:  117    0.616231    0.473261   -0.098604       0.002367
siesta:  118   -0.616728   -0.117671   -0.098604       0.002367
siesta:  119   -0.513995   -0.058549   -0.098604       0.002367
siesta:  120   -0.411262    0.000573   -0.098604       0.002367
siesta:  121   -0.308529    0.059695   -0.098604       0.002367
siesta:  122   -0.205796    0.118817   -0.098604       0.002367
siesta:  123   -0.103064    0.177938   -0.098604       0.002367
siesta:  124   -0.000331    0.237060   -0.098604       0.002367
siesta:  125    0.102402    0.296182   -0.098604       0.002367
siesta:  126    0.205135    0.355304   -0.098604       0.002367
siesta:  127    0.307868    0.414426   -0.098604       0.002367
siesta:  128    0.410600    0.473547   -0.098604       0.002367
siesta:  129    0.513333    0.532669   -0.098604       0.002367
siesta:  130    0.616066    0.591791   -0.098604       0.002367
siesta:  131   -0.616893    0.000860   -0.098604       0.002367
siesta:  132   -0.514160    0.059981   -0.098604       0.002367
siesta:  133   -0.411427    0.119103   -0.098604       0.002367
siesta:  134   -0.308695    0.178225   -0.098604       0.002367
siesta:  135   -0.205962    0.237347   -0.098604       0.002367
siesta:  136   -0.103229    0.296469   -0.098604       0.002367
siesta:  137   -0.000496    0.355590   -0.098604       0.002367
siesta:  138    0.102237    0.414712   -0.098604       0.002367
siesta:  139    0.204969    0.473834   -0.098604       0.002367
siesta:  140    0.307702    0.532956   -0.098604       0.002367
siesta:  141    0.410435    0.592078   -0.098604       0.002367
siesta:  142    0.513168    0.651199   -0.098604       0.002367
siesta:  143    0.615901    0.710321   -0.098604       0.002367
siesta:  144   -0.617058    0.119390   -0.098604       0.002367
siesta:  145   -0.514326    0.178511   -0.098604       0.002367
siesta:  146   -0.411593    0.237633   -0.098604       0.002367
siesta:  147   -0.308860    0.296755   -0.098604       0.002367
siesta:  148   -0.206127    0.355877   -0.098604       0.002367
siesta:  149   -0.103394    0.414999   -0.098604       0.002367
siesta:  150   -0.000662    0.474120   -0.098604       0.002367
siesta:  151    0.102071    0.533242   -0.098604       0.002367
siesta:  152    0.204804    0.592364   -0.098604       0.002367
siesta:  153    0.307537    0.651486   -0.098604       0.002367
siesta:  154    0.410270    0.710608   -0.098604       0.002367
siesta:  155    0.513002    0.769729   -0.098604       0.002367
siesta:  156    0.615735    0.828851   -0.098604       0.002367
siesta:  157   -0.617224    0.237920   -0.098604       0.002367
siesta:  158   -0.514491    0.297042   -0.098604       0.002367
siesta:  159   -0.411758    0.356163   -0.098604       0.002367
siesta:  160   -0.309025    0.415285   -0.098604       0.002367
siesta:  161   -0.206293    0.474407   -0.098604       0.002367
siesta:  162   -0.103560    0.533529   -0.098604       0.002367
siesta:  163   -0.000827    0.592651   -0.098604       0.002367
siesta:  164    0.101906    0.651772   -0.098604       0.002367
siesta:  165    0.204639    0.710894   -0.098604       0.002367
siesta:  166    0.307371    0.770016   -0.098604       0.002367
siesta:  167    0.410104    0.829138   -0.098604       0.002367
siesta:  168    0.512837    0.888260   -0.098604       0.002367
siesta:  169    0.615570    0.947381   -0.098604       0.002367
siesta:  170   -0.617389    0.356450   -0.098604       0.002367
siesta:  171   -0.514656    0.415572   -0.098604       0.002367
siesta:  172   -0.411924    0.474693   -0.098604       0.002367
siesta:  173   -0.309191    0.533815   -0.098604       0.002367
siesta:  174   -0.206458    0.592937   -0.098604       0.002367
siesta:  175   -0.103725    0.652059   -0.098604       0.002367
siesta:  176   -0.000992    0.711181   -0.098604       0.002367
siesta:  177    0.101740    0.770302   -0.098604       0.002367
siesta:  178    0.204473    0.829424   -0.098604       0.002367
siesta:  179    0.307206    0.888546   -0.098604       0.002367
siesta:  180    0.409939    0.947668   -0.098604       0.002367
siesta:  181    0.512671    1.006790   -0.098604       0.002367
siesta:  182    0.615404    1.065912   -0.098604       0.002367
siesta:  183   -0.616397   -0.354731    0.000000       0.002367
siesta:  184   -0.513664   -0.295609    0.000000       0.002367
siesta:  185   -0.410931   -0.236487    0.000000       0.002367
siesta:  186   -0.308198   -0.177365    0.000000       0.002367
siesta:  187   -0.205466   -0.118244    0.000000       0.002367
siesta:  188   -0.102733   -0.059122    0.000000       0.002367
siesta:  189    0.000000    0.000000    0.000000       0.001183
siesta:  190   -0.616562   -0.236201    0.000000       0.002367
siesta:  191   -0.513829   -0.177079    0.000000       0.002367
siesta:  192   -0.411097   -0.117957    0.000000       0.002367
siesta:  193   -0.308364   -0.058835    0.000000       0.002367
siesta:  194   -0.205631    0.000287   -0.000000       0.002367
siesta:  195   -0.102898    0.059408   -0.000000       0.002367
siesta:  196   -0.000165    0.118530   -0.000000       0.002367
siesta:  197    0.102567    0.177652   -0.000000       0.002367
siesta:  198    0.205300    0.236774   -0.000000       0.002367
siesta:  199    0.308033    0.295896   -0.000000       0.002367
siesta:  200    0.410766    0.355017   -0.000000       0.002367
siesta:  201    0.513499    0.414139   -0.000000       0.002367
siesta:  202    0.616231    0.473261   -0.000000       0.002367
siesta:  203   -0.616728   -0.117671    0.000000       0.002367
siesta:  204   -0.513995   -0.058549    0.000000       0.002367
siesta:  205   -0.411262    0.000573   -0.000000       0.002367
siesta:  206   -0.308529    0.059695   -0.000000       0.002367
siesta:  207   -0.205796    0.118817   -0.000000       0.002367
siesta:  208   -0.103064    0.177938   -0.000000       0.002367
siesta:  209   -0.000331    0.237060   -0.000000       0.002367
siesta:  210    0.102402    0.296182   -0.000000       0.002367
siesta:  211    0.205135    0.355304   -0.000000       0.002367
siesta:  212    0.307868    0.414426   -0.000000       0.002367
siesta:  213    0.410600    0.473547   -0.000000       0.002367
siesta:  214    0.513333    0.532669   -0.000000       0.002367
siesta:  215    0.616066    0.591791   -0.000000       0.002367
siesta:  216   -0.616893    0.000860   -0.000000       0.002367
siesta:  217   -0.514160    0.059981   -0.000000       0.002367
siesta:  218   -0.411427    0.119103   -0.000000       0.002367
siesta:  219   -0.308695    0.178225   -0.000000       0.002367
siesta:  220   -0.205962    0.237347   -0.000000       0.002367
siesta:  221   -0.103229    0.296469   -0.000000       0.002367
siesta:  222   -0.000496    0.355590   -0.000000       0.002367
siesta:  223    0.102237    0.414712   -0.000000       0.002367
siesta:  224    0.204969    0.473834   -0.000000       0.002367
siesta:  225    0.307702    0.532956   -0.000000       0.002367
siesta:  226    0.410435    0.592078   -0.000000       0.002367
siesta:  227    0.513168    0.651199   -0.000000       0.002367
siesta:  228    0.615901    0.710321   -0.000000       0.002367
siesta:  229   -0.617058    0.119390   -0.000000       0.002367
siesta:  230   -0.514326    0.178511   -0.000000       0.002367
siesta:  231   -0.411593    0.237633   -0.000000       0.002367
siesta:  232   -0.308860    0.296755   -0.000000       0.002367
siesta:  233   -0.206127    0.355877   -0.000000       0.002367
siesta:  234   -0.103394    0.414999   -0.000000       0.002367
siesta:  235   -0.000662    0.474120   -0.000000       0.002367
siesta:  236    0.102071    0.533242   -0.000000       0.002367
siesta:  237    0.204804    0.592364   -0.000000       0.002367
siesta:  238    0.307537    0.651486   -0.000000       0.002367
siesta:  239    0.410270    0.710608   -0.000000       0.002367
siesta:  240    0.513002    0.769729   -0.000000       0.002367
siesta:  241    0.615735    0.828851   -0.000000       0.002367
siesta:  242   -0.617224    0.237920   -0.000000       0.002367
siesta:  243   -0.514491    0.297042   -0.000000       0.002367
siesta:  244   -0.411758    0.356163   -0.000000       0.002367
siesta:  245   -0.309025    0.415285   -0.000000       0.002367
siesta:  246   -0.206293    0.474407   -0.000000       0.002367
siesta:  247   -0.103560    0.533529   -0.000000       0.002367
siesta:  248   -0.000827    0.592651   -0.000000       0.002367
siesta:  249    0.101906    0.651772   -0.000000       0.002367
siesta:  250    0.204639    0.710894   -0.000000       0.002367
siesta:  251    0.307371    0.770016   -0.000000       0.002367
siesta:  252    0.410104    0.829138   -0.000000       0.002367
siesta:  253    0.512837    0.888260   -0.000000       0.002367
siesta:  254    0.615570    0.947381   -0.000000       0.002367
siesta:  255   -0.617389    0.356450   -0.000000       0.002367
siesta:  256   -0.514656    0.415572   -0.000000       0.002367
siesta:  257   -0.411924    0.474693   -0.000000       0.002367
siesta:  258   -0.309191    0.533815   -0.000000       0.002367
siesta:  259   -0.206458    0.592937   -0.000000       0.002367
siesta:  260   -0.103725    0.652059   -0.000000       0.002367
siesta:  261   -0.000992    0.711181   -0.000000       0.002367
siesta:  262    0.101740    0.770302   -0.000000       0.002367
siesta:  263    0.204473    0.829424   -0.000000       0.002367
siesta:  264    0.307206    0.888546   -0.000000       0.002367
siesta:  265    0.409939    0.947668   -0.000000       0.002367
siesta:  266    0.512671    1.006790   -0.000000       0.002367
siesta:  267    0.615404    1.065912   -0.000000       0.002367
siesta:  268   -0.616562   -0.236201    0.098604       0.002367
siesta:  269   -0.513829   -0.177079    0.098604       0.002367
siesta:  270   -0.411097   -0.117957    0.098604       0.002367
siesta:  271   -0.308364   -0.058835    0.098604       0.002367
siesta:  272   -0.205631    0.000287    0.098604       0.002367
siesta:  273   -0.102898    0.059408    0.098604       0.002367
siesta:  274   -0.000165    0.118530    0.098604       0.002367
siesta:  275    0.102567    0.177652    0.098604       0.002367
siesta:  276    0.205300    0.236774    0.098604       0.002367
siesta:  277    0.308033    0.295896    0.098604       0.002367
siesta:  278    0.410766    0.355017    0.098604       0.002367
siesta:  279    0.513499    0.414139    0.098604       0.002367
siesta:  280    0.616231    0.473261    0.098604       0.002367
siesta:  281   -0.616728   -0.117671    0.098604       0.002367
siesta:  282   -0.513995   -0.058549    0.098604       0.002367
siesta:  283   -0.411262    0.000573    0.098604       0.002367
siesta:  284   -0.308529    0.059695    0.098604       0.002367
siesta:  285   -0.205796    0.118817    0.098604       0.002367
siesta:  286   -0.103064    0.177938    0.098604       0.002367
siesta:  287   -0.000331    0.237060    0.098604       0.002367
siesta:  288    0.102402    0.296182    0.098604       0.002367
siesta:  289    0.205135    0.355304    0.098604       0.002367
siesta:  290    0.307868    0.414426    0.098604       0.002367
siesta:  291    0.410600    0.473547    0.098604       0.002367
siesta:  292    0.513333    0.532669    0.098604       0.002367
siesta:  293    0.616066    0.591791    0.098604       0.002367
siesta:  294   -0.616893    0.000860    0.098604       0.002367
siesta:  295   -0.514160    0.059981    0.098604       0.002367
siesta:  296   -0.411427    0.119103    0.098604       0.002367
siesta:  297   -0.308695    0.178225    0.098604       0.002367
siesta:  298   -0.205962    0.237347    0.098604       0.002367
siesta:  299   -0.103229    0.296469    0.098604       0.002367
siesta:  300   -0.000496    0.355590    0.098604       0.002367
siesta:  301    0.102237    0.414712    0.098604       0.002367
siesta:  302    0.204969    0.473834    0.098604       0.002367
siesta:  303    0.307702    0.532956    0.098604       0.002367
siesta:  304    0.410435    0.592078    0.098604       0.002367
siesta:  305    0.513168    0.651199    0.098604       0.002367
siesta:  306    0.615901    0.710321    0.098604       0.002367
siesta:  307   -0.617058    0.119390    0.098604       0.002367
siesta:  308   -0.514326    0.178511    0.098604       0.002367
siesta:  309   -0.411593    0.237633    0.098604       0.002367
siesta:  310   -0.308860    0.296755    0.098604       0.002367
siesta:  311   -0.206127    0.355877    0.098604       0.002367
siesta:  312   -0.103394    0.414999    0.098604       0.002367
siesta:  313   -0.000662    0.474120    0.098604       0.002367
siesta:  314    0.102071    0.533242    0.098604       0.002367
siesta:  315    0.204804    0.592364    0.098604       0.002367
siesta:  316    0.307537    0.651486    0.098604       0.002367
siesta:  317    0.410270    0.710608    0.098604       0.002367
[...]
          2.46   2.54   5.08   6.16   8.61   9.21  11.97  12.32  13.82  14.35
         16.33  16.77  18.15  18.74  20.37  20.78  23.69  24.56  27.72  28.62
         29.72  29.86  34.25  35.31  36.84  38.33  39.52  41.42  46.13  46.90
         50.32  50.46  52.25  56.84  57.52  57.95  59.86  60.96  63.46  63.90
         66.10  67.26  68.89  70.47  83.54  87.03  88.61  89.78  92.30  93.59
         94.97  97.24  97.85 100.24 104.35 105.70 107.85 108.56 111.44 114.45
        118.14 119.37 122.06 122.58 127.17 128.61 130.12 132.59 134.68 136.17
        148.93 151.19 166.79 169.25 182.91 184.92 200.30 202.20
 399  1 -21.71 -21.66 -16.58 -16.54 -11.79 -11.78  -9.57  -9.19  -2.22  -1.98
          1.93   2.00   4.24   5.54   9.50  10.15  12.37  12.38  13.39  13.75
         16.93  17.31  17.56  18.57  20.84  21.08  24.72  25.83  26.01  27.94
         28.98  31.01  35.16  35.21  35.82  38.04  41.37  43.85  46.12  46.79
         47.04  50.31  50.71  52.49  58.14  58.65  58.84  59.14  63.04  64.52
         64.65  66.34  69.16  71.91  84.18  87.66  90.98  92.14  92.68  93.32
         93.59  94.19  94.95  96.83 102.23 104.36 106.97 110.16 111.13 111.49
        117.76 121.87 124.65 125.52 130.32 131.46 132.69 135.71 138.87 140.50
        142.00 144.91 166.08 169.71 184.17 186.11 200.11 202.13
 400  1 -22.25 -22.19 -15.55 -15.52 -11.99 -11.98 -10.12  -9.72  -1.26  -1.05
          2.65   2.70   3.62   4.90   9.12   9.46  11.23  11.51  13.13  13.40
         16.61  16.92  18.37  19.13  21.25  21.62  24.19  25.04  28.51  29.47
         30.66  30.86  35.78  37.40  37.93  38.44  40.09  41.08  44.47  45.81
         48.37  48.87  52.68  54.90  56.01  56.60  59.38  59.84  63.34  64.60
         66.19  67.17  70.95  72.93  84.03  87.47  88.14  88.65  91.02  92.26
         94.47  95.86  98.00 100.16 101.55 103.42 105.97 107.91 110.53 113.20
        116.05 121.19 124.24 124.93 128.92 130.21 132.76 133.54 134.08 137.46
        151.68 153.47 164.87 166.81 179.41 182.12 200.67 202.32
 401  1 -22.51 -22.46 -14.54 -14.53 -12.69 -12.68 -10.41  -9.99  -0.57  -0.43
          3.12   4.16   4.52   4.68   7.06   7.18  10.59  11.21  13.21  13.50
         16.86  17.07  17.81  19.36  20.95  21.34  25.08  25.14  29.66  30.08
         34.51  35.07  36.19  37.55  38.38  39.51  40.61  42.01  43.40  44.06
         48.25  49.58  53.57  54.23  55.96  56.46  59.80  60.75  65.24  65.56
         67.81  68.07  72.88  73.92  80.48  82.82  86.32  88.34  89.99  90.56
         93.90  95.80  97.66  97.76  99.51 100.86 105.48 107.49 110.64 111.72
        115.24 116.44 117.32 119.86 124.82 125.84 127.94 128.88 132.83 134.93
        150.56 151.65 167.14 168.78 174.00 176.49 198.54 199.49
 402  1 -22.51 -22.46 -14.54 -14.53 -12.69 -12.68 -10.41  -9.99  -0.57  -0.43
          3.12   4.16   4.52   4.68   7.06   7.18  10.59  11.21  13.21  13.50
         16.86  17.07  17.81  19.36  20.95  21.34  25.08  25.14  29.66  30.08
         34.51  35.07  36.19  37.55  38.38  39.51  40.61  42.01  43.40  44.06
         48.25  49.58  53.57  54.22  55.96  56.46  59.80  60.75  65.24  65.56
         67.81  68.07  72.88  73.92  80.48  82.82  86.31  88.34  89.99  90.56
         93.91  95.80  97.65  97.76  99.50 100.86 105.48 107.49 110.64 111.72
        115.24 116.45 117.32 119.86 124.82 125.84 127.94 128.88 132.84 134.93
        150.56 151.65 167.14 168.78 174.00 176.50 198.54 199.49
 403  1 -22.25 -22.19 -15.55 -15.52 -11.99 -11.98 -10.12  -9.72  -1.26  -1.05
          2.65   2.70   3.62   4.90   9.12   9.46  11.23  11.51  13.13  13.40
         16.61  16.92  18.37  19.13  21.25  21.62  24.19  25.04  28.51  29.47
         30.66  30.86  35.78  37.40  37.93  38.44  40.09  41.08  44.47  45.81
         48.37  48.87  52.68  54.90  56.01  56.60  59.38  59.84  63.34  64.60
         66.19  67.17  70.95  72.93  84.03  87.47  88.14  88.65  91.02  92.26
         94.47  95.86  98.00 100.16 101.56 103.42 105.97 107.91 110.53 113.20
        116.04 121.19 124.24 124.92 128.91 130.21 132.76 133.54 134.08 137.46
        151.68 153.47 164.86 166.81 179.41 182.13 200.68 202.33
 404  1 -21.71 -21.66 -16.58 -16.54 -11.79 -11.78  -9.57  -9.19  -2.22  -1.98
          1.93   2.00   4.24   5.54   9.50  10.15  12.37  12.38  13.39  13.75
         16.93  17.31  17.56  18.57  20.84  21.08  24.72  25.83  26.01  27.94
         28.98  31.01  35.16  35.21  35.82  38.04  41.37  43.85  46.11  46.79
         47.04  50.31  50.71  52.49  58.14  58.65  58.84  59.14  63.04  64.52
         64.65  66.34  69.17  71.91  84.19  87.66  90.98  92.14  92.68  93.32
         93.59  94.19  94.95  96.84 102.23 104.37 106.97 110.16 111.13 111.49
        117.76 121.87 124.64 125.52 130.32 131.46 132.69 135.70 138.87 140.50
        142.00 144.92 166.08 169.71 184.17 186.11 200.12 202.14
 405  1 -20.93 -20.89 -17.43 -17.40 -12.40 -12.39  -8.78  -8.46  -3.17  -2.93
          2.46   2.54   5.08   6.16   8.61   9.21  11.97  12.32  13.82  14.35
         16.33  16.77  18.15  18.74  20.37  20.78  23.69  24.56  27.72  28.62
         29.72  29.86  34.25  35.31  36.85  38.34  39.52  41.42  46.13  46.90
         50.32  50.46  52.25  56.84  57.52  57.95  59.85  60.96  63.46  63.90
         66.10  67.26  68.89  70.47  83.54  87.03  88.61  89.78  92.30  93.60
         94.97  97.24  97.85 100.24 104.35 105.71 107.85 108.56 111.44 114.44
        118.14 119.37 122.06 122.58 127.17 128.61 130.12 132.59 134.69 136.17
        148.93 151.19 166.79 169.25 182.91 184.92 200.31 202.22
 406  1 -19.96 -19.92 -18.03 -18.00 -13.63 -13.61  -7.85  -7.60  -3.95  -3.80
          3.99   4.11   5.74   6.13   7.88   8.56  10.53  11.30  13.55  14.01
         17.16  17.36  17.65  18.03  18.95  19.57  24.17  24.71  28.20  29.34
         32.81  33.16  34.32  36.37  38.03  39.11  39.97  41.81  45.83  46.35
         49.61  49.88  54.51  55.42  56.20  57.93  60.20  60.44  64.49  64.69
         67.44  67.93  72.36  73.07  83.62  85.69  87.33  88.55  90.14  91.82
         93.32  94.48  95.37  96.92 102.54 103.86 107.23 107.58 114.21 115.35
        119.67 120.46 122.06 122.60 126.37 127.08 131.05 131.97 139.75 142.04
        155.74 157.55 169.94 170.19 179.85 181.82 200.09 201.51
 407  1 -19.07 -19.05 -18.15 -18.13 -15.06 -15.04  -6.95  -6.78  -4.54  -4.54
          5.20   5.21   6.22   6.40   7.96   8.73   9.62  10.58  13.07  13.19
         16.29  16.53  16.80  17.85  18.83  18.85  24.47  25.72  29.89  30.23
         33.11  34.76  37.28  37.88  40.08  40.19  43.57  43.94  47.96  47.97
         49.38  50.01  51.04  53.91  54.91  56.97  62.74  64.24  67.19  67.58
         68.23  68.49  76.78  77.13  82.99  84.83  85.43  86.19  89.96  90.13
         93.69  94.26  98.21 100.10 100.73 103.84 104.94 105.23 114.10 114.15
        116.86 117.21 118.69 120.27 121.86 124.40 139.46 140.41 150.40 152.63
        161.70 163.94 176.28 176.54 180.63 181.86 194.44 194.82
 408  1 -18.91 -18.88 -17.66 -17.64 -15.96 -15.95  -6.54  -6.30  -4.96  -4.80
          4.89   4.91   7.45   8.13   8.24   8.60   8.83   9.92  12.69  12.98
         15.72  15.85  16.70  17.08  19.11  19.13  24.60  26.05  30.86  30.92
         33.19  34.19  38.68  39.11  41.05  41.86  43.29  43.32  45.97  46.09
         49.53  50.28  51.78  54.63  55.55  56.05  64.96  65.14  67.21  67.41
         75.30  75.58  78.78  78.87  82.46  83.91  84.49  84.94  93.14  94.37
         94.85  95.02  99.54 100.92 102.42 102.99 109.23 110.33 111.75 112.02
        115.40 115.47 119.14 119.69 121.09 124.55 143.31 148.00 154.99 155.29
        164.94 165.75 178.08 179.08 185.06 186.07 186.68 187.91
 409  1 -19.07 -19.05 -18.15 -18.13 -15.06 -15.04  -6.95  -6.78  -4.54  -4.54
          5.20   5.21   6.22   6.40   7.96   8.73   9.62  10.58  13.07  13.19
         16.29  16.53  16.80  17.85  18.83  18.85  24.47  25.72  29.89  30.23
         33.11  34.76  37.28  37.88  40.08  40.19  43.57  43.94  47.97  47.97
         49.38  50.01  51.04  53.91  54.91  56.97  62.74  64.24  67.18  67.58
         68.23  68.49  76.78  77.13  82.99  84.83  85.43  86.19  89.96  90.12
         93.69  94.26  98.21 100.10 100.74 103.84 104.94 105.23 114.10 114.15
        116.86 117.21 118.69 120.27 121.86 124.40 139.46 140.40 150.40 152.63
        161.70 163.94 176.28 176.54 180.63 181.85 194.43 194.82
 410  1 -19.96 -19.92 -18.03 -18.00 -13.63 -13.61  -7.85  -7.60  -3.96  -3.80
          3.99   4.11   5.74   6.13   7.88   8.56  10.53  11.30  13.55  14.01
         17.16  17.36  17.65  18.03  18.95  19.57  24.18  24.71  28.20  29.34
         32.81  33.15  34.32  36.37  38.03  39.11  39.97  41.80  45.83  46.35
         49.61  49.88  54.51  55.42  56.20  57.93  60.20  60.44  64.50  64.69
         67.44  67.93  72.36  73.07  83.62  85.68  87.33  88.55  90.14  91.82
         93.32  94.48  95.37  96.92 102.54 103.86 107.22 107.58 114.21 115.36
        119.67 120.46 122.06 122.60 126.37 127.08 131.04 131.97 139.75 142.04
        155.74 157.56 169.94 170.19 179.85 181.82 200.08 201.50
 411  1 -20.33 -20.29 -18.36 -18.32 -12.06 -12.05  -8.34  -8.09  -3.80  -3.59
          1.79   1.87   5.88   6.85   7.98   8.82  13.82  14.14  14.14  14.21
         16.77  17.10  17.31  17.97  20.00  20.64  24.85  25.15  25.90  27.04
         27.89  30.57  33.31  33.58  34.67  37.27  41.89  44.93  46.21  47.30
         48.83  51.39  52.10  52.35  58.33  58.88  61.61  63.10  63.17  63.65
         63.75  64.41  68.21  69.65  84.32  87.09  90.33  92.15  92.87  94.74
         98.08  98.09  99.17  99.48 102.96 106.02 107.81 110.46 114.29 115.30
        115.73 117.39 119.36 120.32 124.63 125.46 131.23 132.03 134.99 137.69
        143.29 145.13 169.91 172.81 183.88 185.32 202.19 204.90
 412  1 -20.93 -20.89 -17.43 -17.40 -12.40 -12.39  -8.78  -8.45  -3.17  -2.94
          2.46   2.54   5.08   6.16   8.61   9.21  11.97  12.32  13.82  14.35
         16.33  16.77  18.15  18.74  20.37  20.78  23.69  24.56  27.72  28.62
         29.72  29.86  34.25  35.31  36.84  38.33  39.52  41.42  46.13  46.90
         50.32  50.46  52.25  56.84  57.52  57.95  59.85  60.96  63.46  63.90
         66.10  67.26  68.89  70.47  83.54  87.03  88.61  89.78  92.30  93.59
         94.97  97.24  97.85 100.24 104.35 105.70 107.85 108.56 111.44 114.45
        118.14 119.37 122.06 122.58 127.17 128.61 130.12 132.59 134.68 136.17
        148.93 151.19 166.79 169.25 182.91 184.92 200.30 202.20
 413  1 -21.32 -21.27 -16.34 -16.31 -13.33 -13.31  -9.10  -8.73  -2.46  -2.27
          4.11   4.15   4.62   5.49   8.25   8.63   9.82  10.52  13.79  14.64
         16.32  16.73  17.74  18.91  19.81  20.18  24.48  24.81  28.83  29.74
         33.65  33.98  35.08  37.44  38.33  38.60  40.30  41.76  43.96  45.22
         48.80  49.19  54.69  55.67  57.75  59.10  60.53  60.80  64.03  65.21
         68.57  69.39  69.90  71.75  83.47  86.86  87.85  88.58  90.04  91.50
         92.67  95.17  96.12  98.39 105.19 107.63 110.51 111.27 111.83 113.76
        118.58 119.26 124.04 124.27 124.91 125.53 127.68 127.84 132.96 135.36
        156.70 159.51 164.11 164.66 180.23 182.41 196.21 196.82
 414  1 -21.45 -21.40 -15.58 -15.56 -14.06 -14.04  -9.21  -8.83  -2.12  -1.99
          4.20   5.04   6.22   6.25   6.78   6.94   8.94   9.94  14.36  15.08
         15.92  16.62  17.52  18.88  19.43  19.68  24.71  25.36  29.94  30.13
         34.38  34.73  37.40  38.11  39.74  41.13  42.08  42.76  43.77  43.93
         51.36  52.46  53.80  53.83  57.99  58.08  63.11  63.82  65.27  66.10
         69.71  71.64  73.62  73.76  79.97  83.31  87.89  88.04  88.73  90.12
         94.07  95.36  96.75  97.49  98.44 100.13 109.38 111.86 113.64 115.67
        118.66 119.21 120.70 121.73 123.77 124.57 125.85 127.15 131.98 132.37
        152.71 155.12 164.60 166.11 181.75 183.64 192.52 192.54
 415  1 -21.32 -21.27 -16.34 -16.31 -13.33 -13.31  -9.10  -8.73  -2.46  -2.27
          4.11   4.15   4.62   5.49   8.25   8.63   9.82  10.52  13.79  14.64
         16.32  16.73  17.74  18.92  19.81  20.18  24.48  24.81  28.83  29.74
         33.65  33.99  35.08  37.44  38.33  38.60  40.30  41.76  43.96  45.22
         48.80  49.19  54.69  55.66  57.75  59.10  60.53  60.80  64.03  65.21
         68.57  69.39  69.90  71.75  83.47  86.86  87.85  88.58  90.04  91.50
         92.67  95.17  96.12  98.39 105.19 107.64 110.51 111.27 111.83 113.76
        118.58 119.26 124.04 124.28 124.91 125.53 127.68 127.84 132.96 135.36
        156.70 159.51 164.10 164.66 180.23 182.41 196.22 196.83
 416  1 -20.93 -20.89 -17.43 -17.40 -12.40 -12.39  -8.78  -8.46  -3.17  -2.93
          2.46   2.54   5.08   6.16   8.61   9.21  11.97  12.32  13.82  14.35
         16.33  16.77  18.15  18.74  20.37  20.78  23.69  24.56  27.72  28.62
         29.72  29.85  34.25  35.31  36.85  38.34  39.53  41.42  46.13  46.90
         50.32  50.46  52.25  56.84  57.52  57.95  59.85  60.96  63.46  63.90
         66.10  67.26  68.89  70.47  83.54  87.03  88.61  89.78  92.30  93.60
         94.97  97.24  97.85 100.24 104.35 105.71 107.85 108.57 111.44 114.45
        118.14 119.37 122.06 122.58 127.17 128.61 130.12 132.59 134.69 136.17
        148.93 151.19 166.79 169.25 182.91 184.92 200.31 202.22
 417  1 -20.33 -20.29 -18.36 -18.32 -12.06 -12.05  -8.34  -8.09  -3.80  -3.59
          1.79   1.87   5.88   6.85   7.98   8.82  13.82  14.14  14.14  14.21
         16.77  17.10  17.31  17.97  20.00  20.64  24.85  25.15  25.90  27.04
         27.89  30.57  33.31  33.58  34.67  37.28  41.89  44.93  46.21  47.29
         48.83  51.39  52.10  52.35  58.33  58.88  61.61  63.10  63.17  63.65
         63.75  64.41  68.21  69.65  84.32  87.09  90.33  92.15  92.87  94.74
         98.08  98.09  99.17  99.48 102.96 106.02 107.81 110.46 114.29 115.30
        115.73 117.39 119.36 120.32 124.63 125.47 131.23 132.03 134.99 137.69
        143.29 145.13 169.91 172.81 183.88 185.32 202.21 204.92
 418  1 -19.79 -19.76 -18.76 -18.74 -12.54 -12.53  -7.96  -7.79  -4.08  -3.92
          2.38   2.47   6.50   6.66   7.73   8.37  12.25  12.94  14.25  14.54
         16.58  17.09  18.20  18.38  19.82  20.35  23.57  24.38  27.48  28.14
         29.36  29.44  33.60  34.46  36.16  38.08  39.43  41.70  46.93  48.24
         50.92  51.78  52.04  56.90  57.80  57.91  58.53  60.54  64.18  64.44
         66.03  66.37  69.66  69.80  84.51  85.81  88.78  90.10  92.67  94.93
         95.01  97.02  97.59  98.64 104.41 106.38 107.84 109.17 113.14 114.44
        116.49 118.66 124.38 124.75 125.19 126.07 130.35 133.13 133.89 136.65
        145.71 147.52 169.67 170.76 181.71 183.59 203.73 206.24
 419  1 -19.96 -19.92 -18.03 -18.00 -13.63 -13.61  -7.85  -7.60  -3.96  -3.80
          3.99   4.11   5.74   6.13   7.88   8.56  10.53  11.30  13.55  14.01
         17.17  17.36  17.65  18.03  18.95  19.57  24.18  24.71  28.20  29.34
         32.81  33.16  34.32  36.37  38.03  39.11  39.97  41.81  45.83  46.35
         49.61  49.88  54.52  55.42  56.20  57.93  60.20  60.44  64.50  64.69
         67.44  67.93  72.36  73.07  83.62  85.68  87.33  88.55  90.14  91.82
         93.32  94.49  95.37  96.92 102.54 103.86 107.23 107.58 114.22 115.36
        119.67 120.46 122.07 122.60 126.37 127.08 131.05 131.97 139.75 142.04
        155.74 157.55 169.94 170.18 179.85 181.82 200.09 201.51
 420  1 -20.18 -20.13 -16.97 -16.94 -14.84 -14.82  -7.87  -7.55  -3.69  -3.53
          5.02   5.26   6.25   6.43   7.65   8.26   8.94   9.91  13.52  14.12
         16.40  17.04  17.41  17.78  18.58  18.84  24.48  25.60  29.96  30.23
         33.45  34.76  37.39  37.97  40.07  40.68  42.19  43.06  46.38  46.76
         50.44  51.36  53.08  54.57  55.54  57.56  63.79  64.56  66.44  67.18
         68.26  69.79  75.36  75.64  83.41  85.75  86.37  87.59  89.94  90.79
         93.29  94.22  96.08  97.53 105.01 105.28 105.96 108.75 113.70 114.98
        117.33 118.01 120.24 120.39 121.36 124.51 133.94 134.47 143.53 144.83
        160.19 162.52 168.57 169.44 183.45 184.97 192.81 192.91
 421  1 -20.18 -20.13 -16.97 -16.94 -14.84 -14.82  -7.87  -7.55  -3.69  -3.53
          5.02   5.26   6.25   6.43   7.65   8.26   8.94   9.91  13.52  14.12
         16.40  17.04  17.41  17.78  18.59  18.84  24.48  25.60  29.96  30.23
         33.45  34.76  37.39  37.97  40.07  40.68  42.19  43.06  46.38  46.76
         50.43  51.36  53.08  54.57  55.54  57.56  63.78  64.56  66.44  67.18
         68.26  69.79  75.36  75.64  83.41  85.75  86.37  87.59  89.94  90.79
         93.29  94.21  96.09  97.53 105.01 105.28 105.96 108.75 113.70 114.98
        117.33 118.01 120.24 120.39 121.36 124.51 133.94 134.47 143.53 144.83
        160.19 162.52 168.58 169.44 183.45 184.97 192.81 192.90
 422  1 -19.96 -19.92 -18.03 -18.00 -13.63 -13.61  -7.85  -7.60  -3.96  -3.80
          3.99   4.11   5.74   6.13   7.88   8.56  10.53  11.30  13.55  14.01
         17.17  17.36  17.65  18.03  18.95  19.57  24.18  24.71  28.20  29.34
         32.81  33.15  34.32  36.37  38.03  39.11  39.97  41.80  45.83  46.35
         49.61  49.88  54.52  55.42  56.20  57.93  60.20  60.44  64.49  64.69
         67.44  67.93  72.36  73.07  83.62  85.68  87.33  88.55  90.14  91.82
         93.32  94.48  95.37  96.92 102.54 103.86 107.22 107.58 114.22 115.36
        119.67 120.46 122.06 122.60 126.37 127.08 131.04 131.97 139.75 142.04
        155.74 157.55 169.94 170.18 179.85 181.82 200.08 201.50
 423  1 -19.79 -19.76 -18.76 -18.74 -12.54 -12.53  -7.96  -7.79  -4.08  -3.92
          2.38   2.47   6.50   6.66   7.73   8.37  12.25  12.94  14.25  14.54
         16.59  17.09  18.20  18.38  19.82  20.35  23.57  24.38  27.48  28.14
         29.36  29.44  33.60  34.46  36.16  38.08  39.43  41.70  46.94  48.24
         50.92  51.78  52.04  56.90  57.80  57.91  58.53  60.54  64.18  64.44
         66.03  66.37  69.66  69.80  84.51  85.81  88.78  90.10  92.67  94.93
         95.00  97.02  97.59  98.63 104.41 106.38 107.84 109.17 113.14 114.44
        116.49 118.66 124.37 124.75 125.19 126.07 130.35 133.13 133.89 136.65
        145.71 147.52 169.67 170.76 181.71 183.59 203.72 206.23
siesta: Fermi energy =      -5.937244 eV

siesta: Program's energy decomposition (eV):
siesta: Ebs     =      -236.262732
siesta: Eions   =      1035.253114
siesta: Ena     =       233.502219
siesta: Ekin    =       442.408209
siesta: Enl     =       -46.184144
siesta: Eso     =         0.000000
siesta: Eldau   =         0.000000
siesta: DEna    =       -22.626267
siesta: DUscf   =         1.938086
siesta: DUext   =         0.000000
siesta: Enegf   =         0.000000
siesta: Exc     =      -204.508660
siesta: eta*DQ  =         0.000000
siesta: Emadel  =         0.000000
siesta: Emeta   =         0.000000
siesta: Emolmec =        -0.407959
siesta: Ekinion =         0.000000
siesta: Eharris =      -631.131076
siesta: Etot    =      -631.131630
siesta: FreeEng =      -631.131630

siesta: Final energy (eV):
siesta:  Band Struct. =    -236.262732
siesta:       Kinetic =     442.408209
siesta:       Hartree =     200.921755
siesta:       Eldau   =       0.000000
siesta:       Eso     =       0.000000
siesta:    Ext. field =       0.000000
siesta:       Enegf   =       0.000000
siesta:   Exch.-corr. =    -204.508660
siesta:  Ion-electron =    -828.993267
siesta:       Ion-ion =    -240.551707
siesta:       Ekinion =       0.000000
siesta:         Total =    -631.131630
siesta:         Fermi =      -5.937244

siesta: Stress tensor (static) (eV/Ang**3):
siesta:    -0.000012    0.000067    0.000000
siesta:     0.000067    0.000046    0.000000
siesta:     0.000000   -0.000000   -0.000007

siesta: Constrained stress tensor (static) (eV/Ang**3):
siesta:    -0.000012    0.000067    0.000000
siesta:     0.000067    0.000046   -0.000000
siesta:     0.000000   -0.000000   -0.000007

siesta: Cell volume =         36.775385 Ang**3

siesta: Pressure (static):
siesta:                Solid            Molecule  Units
siesta:          -0.00000010         -0.00000006  Ry/Bohr**3
siesta:          -0.00000892         -0.00000560  eV/Ang**3
siesta:          -0.01429614         -0.00897277  kBar
(Free)E+ p_basis*V_orbitals  =        -628.291753
(Free)Eharris+ p_basis*V_orbitals  =        -628.291199
>> End of run:   5-NOV-2018  10:48:51
Job completed
