Siesta Version: siesta-2.0-release
Architecture  : intel9-mkl8
Compiler flags: ifort -u -xP -O3 -mp1
SERIAL version

* Running in serial mode
>> Start of run:  24-FEB-2006  12:54:00

                           ***********************       
                           *  WELCOME TO SIESTA  *       
                           ***********************       

reinit: Reading from standard input
************************** Dump of input data file ****************************
SystemName          Water molecule, using order-N method
SystemLabel         h2o_orderN
NumberOfAtoms       3
NumberOfSpecies     2
MeshCutoff  50 Ry
%block ChemicalSpeciesLabel
 1  8  O      # Species index, atomic number, species label
 2  1  H
%endblock ChemicalSpeciesLabel
AtomicCoordinatesFormat  Ang
%block AtomicCoordinatesAndAtomicSpecies
 0.000  0.000  0.000  1
 0.757  0.586  0.000  2
-0.757  0.586  0.000  2
%endblock AtomicCoordinatesAndAtomicSpecies
SolutionMethod   ordern
************************** End of input data file *****************************

reinit: -----------------------------------------------------------------------
reinit: System Name: Water molecule, using order-N method                       
reinit: -----------------------------------------------------------------------
reinit: System Label: h2o_orderN                                                  
reinit: -----------------------------------------------------------------------

initatom: Reading input for the pseudopotentials and atomic orbitals ----------
 Species number:            1  Label: O Atomic number:           8
 Species number:            2  Label: H Atomic number:           1
Ground state valence configuration:   2s02  2p04
Reading pseudopotential information in formatted form from O.psf
Ground state valence configuration:   1s01
Reading pseudopotential information in formatted form from H.psf
For O, standard SIESTA heuristics set lmxkb to 3
 (one more than the basis l, including polarization orbitals).
Use PS.lmax or PS.KBprojectors blocks to override.
For H, standard SIESTA heuristics set lmxkb to 2
 (one more than the basis l, including polarization orbitals).
Use PS.lmax or PS.KBprojectors blocks to override.

<basis_specs>
===============================================================================
O                    Z=   8    Mass=  16.000        Charge=  0.0000    
Lmxo=1 Lmxkb=3     BasisType=split      Semic=F
L=0  Nsemic=0  Cnfigmx=2
          n=1  nzeta=2  polorb=0
               vcte:    0.0000    
               rinn:    0.0000    
                rcs:    0.0000      0.0000    
            lambdas:    1.0000      1.0000    
L=1  Nsemic=0  Cnfigmx=2
          n=1  nzeta=2  polorb=1
               vcte:    0.0000    
               rinn:    0.0000    
                rcs:    0.0000      0.0000    
            lambdas:    1.0000      1.0000    
-------------------------------------------------------------------------------
L=0  Nkbl=1  erefs: 0.17977+309
L=1  Nkbl=1  erefs: 0.17977+309
L=2  Nkbl=1  erefs: 0.17977+309
L=3  Nkbl=1  erefs: 0.17977+309
===============================================================================
</basis_specs>

atom: Called for O   (Z =   8)

read_vps: Pseudopotential generation method:
read_vps: ATM3      Troullier-Martins                       

read_vps: Valence configuration (pseudopotential and basis set generation):
2s( 2.00) rc: 1.14
2p( 4.00) rc: 1.14
3d( 0.00) rc: 1.14
4f( 0.00) rc: 1.14
Total valence charge:    6.00000

xc_check: Exchange-correlation functional:
xc_check: Ceperley-Alder
V l=0 = -2*Zval/r beyond r=  1.1278
V l=1 = -2*Zval/r beyond r=  1.1278
V l=2 = -2*Zval/r beyond r=  1.1278
V l=3 = -2*Zval/r beyond r=  1.1138
All V_l potentials equal beyond r=  1.1278
This should be close to max(r_c) in ps generation
All pots = -2*Zval/r beyond r=  1.1278

VLOCAL1: 99.0% of the norm of Vloc inside     34.126 Ry
VLOCAL1: 99.9% of the norm of Vloc inside     77.774 Ry
atom: Maximum radius for 4*pi*r*r*local-pseudopot. charge    1.37759
atom: Maximum radius for r*vlocal+2*Zval:    1.18566
GHOST: No ghost state for L =  0
GHOST: No ghost state for L =  1
GHOST: No ghost state for L =  2
GHOST: No ghost state for L =  3

KBgen: Kleinman-Bylander projectors: 
   l= 0   rc=  1.294105   el= -1.742414   Ekb=  9.135903   kbcos=  0.326910
   l= 1   rc=  1.294105   el= -0.676589   Ekb= -8.124878   kbcos= -0.395047
   l= 2   rc=  1.448233   el=  0.002386   Ekb= -2.039267   kbcos= -0.003484
   l= 3   rc=  1.561052   el=  0.003508   Ekb= -0.799141   kbcos= -0.000344

KBgen: Total number of  Kleinman-Bylander projectors:   16
atom: -------------------------------------------------------------------------

atom: SANKEY-TYPE ORBITALS:
atom: Selected multiple-zeta basis: split     

SPLIT: Orbitals with angular momentum L= 0

SPLIT: Basis orbitals for state 2s

SPLIT: PAO cut-off radius determined from an
SPLIT: energy shift=  0.020000 Ry

   izeta = 1
                 lambda =    1.000000
                     rc =    3.305093
                 energy =   -1.723766
                kinetic =    1.614911
    potential(screened) =   -3.338677
       potential(ionic) =  -11.304675

   izeta = 2
                 rmatch =    2.510382
              splitnorm =    0.150000
                 energy =   -1.471081
                kinetic =    2.446738
    potential(screened) =   -3.917818
       potential(ionic) =  -12.476310

SPLIT: Orbitals with angular momentum L= 1

SPLIT: Basis orbitals for state 2p

SPLIT: PAO cut-off radius determined from an
SPLIT: energy shift=  0.020000 Ry

   izeta = 1
                 lambda =    1.000000
                     rc =    3.937239
                 energy =   -0.658841
                kinetic =    5.005986
    potential(screened) =   -5.664827
       potential(ionic) =  -13.452360

   izeta = 2
                 rmatch =    2.541963
              splitnorm =    0.150000
                 energy =   -0.367387
                kinetic =    7.530138
    potential(screened) =   -7.897525
       potential(ionic) =  -16.611418

POLgen: Perturbative polarization orbital with L=  2

POLgen: Polarization orbital for state 2p

   izeta = 1
                     rc =    3.937239
                 energy =    2.398520
                kinetic =    4.716729
    potential(screened) =   -2.318209
       potential(ionic) =   -8.603170
atom: Total number of Sankey-type orbitals: 13

atm_pop: Valence configuration(local Pseudopot. screening):
 2s( 2.00)                                                            
 2p( 4.00)                                                            
Vna: chval, zval:    6.00000   6.00000

Vna:  Cut-off radius for the neutral-atom potential:   3.937239

atom: _________________________________________________________________________

<basis_specs>
===============================================================================
H                    Z=   1    Mass=  1.0100        Charge=  0.0000    
Lmxo=0 Lmxkb=2     BasisType=split      Semic=F
L=0  Nsemic=0  Cnfigmx=1
          n=1  nzeta=2  polorb=1
               vcte:    0.0000    
               rinn:    0.0000    
                rcs:    0.0000      0.0000    
            lambdas:    1.0000      1.0000    
-------------------------------------------------------------------------------
L=0  Nkbl=1  erefs: 0.17977+309
L=1  Nkbl=1  erefs: 0.17977+309
L=2  Nkbl=1  erefs: 0.17977+309
===============================================================================
</basis_specs>

atom: Called for H   (Z =   1)

read_vps: Pseudopotential generation method:
read_vps: ATM3      Troullier-Martins                       

read_vps: Valence configuration (pseudopotential and basis set generation):
1s( 1.00) rc: 1.25
2p( 0.00) rc: 1.25
3d( 0.00) rc: 1.25
Total valence charge:    1.00000

xc_check: Exchange-correlation functional:
xc_check: Ceperley-Alder
V l=0 = -2*Zval/r beyond r=  1.2343
V l=1 = -2*Zval/r beyond r=  1.2189
V l=2 = -2*Zval/r beyond r=  1.2189
All V_l potentials equal beyond r=  1.2343
This should be close to max(r_c) in ps generation
All pots = -2*Zval/r beyond r=  1.2343

VLOCAL1: 99.0% of the norm of Vloc inside     28.493 Ry
VLOCAL1: 99.9% of the norm of Vloc inside     64.935 Ry
atom: Maximum radius for 4*pi*r*r*local-pseudopot. charge    1.45251
atom: Maximum radius for r*vlocal+2*Zval:    1.21892
GHOST: No ghost state for L =  0
GHOST: No ghost state for L =  1
GHOST: No ghost state for L =  2

KBgen: Kleinman-Bylander projectors: 
   l= 0   rc=  1.364359   el= -0.467325   Ekb= -2.005361   kbcos= -0.336422
   l= 1   rc=  1.434438   el=  0.001430   Ekb= -0.501708   kbcos= -0.021697
   l= 2   rc=  1.470814   el=  0.002365   Ekb= -0.190555   kbcos= -0.002281

KBgen: Total number of  Kleinman-Bylander projectors:    9
atom: -------------------------------------------------------------------------

atom: SANKEY-TYPE ORBITALS:
atom: Selected multiple-zeta basis: split     

SPLIT: Orbitals with angular momentum L= 0

SPLIT: Basis orbitals for state 1s

SPLIT: PAO cut-off radius determined from an
SPLIT: energy shift=  0.020000 Ry

   izeta = 1
                 lambda =    1.000000
                     rc =    4.828263
                 energy =   -0.449375
                kinetic =    0.929372
    potential(screened) =   -1.378747
       potential(ionic) =   -1.915047

   izeta = 2
                 rmatch =    3.854947
              splitnorm =    0.150000
                 energy =   -0.335649
                kinetic =    1.505971
    potential(screened) =   -1.841620
       potential(ionic) =   -2.413776

POLgen: Perturbative polarization orbital with L=  1

POLgen: Polarization orbital for state 1s

   izeta = 1
                     rc =    4.828263
                 energy =    0.706972
                kinetic =    1.396397
    potential(screened) =   -0.689424
       potential(ionic) =   -1.169792
atom: Total number of Sankey-type orbitals:  5

atm_pop: Valence configuration(local Pseudopot. screening):
 1s( 1.00)                                                            
Vna: chval, zval:    1.00000   1.00000

Vna:  Cut-off radius for the neutral-atom potential:   4.828263

atom: _________________________________________________________________________

prinput: Basis input ----------------------------------------------------------

PAO.BasisType split     

%block ChemicalSpeciesLabel
    1    8 O                       # Species index, atomic number, species label
    2    1 H                       # Species index, atomic number, species label
%endblock ChemicalSpeciesLabel

%block PAO.Basis                 # Define Basis set
O           2                    # Species label, number of l-shells
 n=2   0   2                         # n, l, Nzeta 
   3.305      2.510   
   1.000      1.000   
 n=2   1   2 P   1                   # n, l, Nzeta, Polarization, NzetaPol
   3.937      2.542   
   1.000      1.000   
H           1                    # Species label, number of l-shells
 n=1   0   2 P   1                   # n, l, Nzeta, Polarization, NzetaPol
   4.828      3.855   
   1.000      1.000   
%endblock PAO.Basis

prinput: ----------------------------------------------------------------------


siesta: ******************** Simulation parameters ****************************
siesta:
siesta: The following are some of the parameters of the simulation.
siesta: A complete list of the parameters used, including default values,
siesta: can be found in file out.fdf
siesta:
coor:   Atomic-coordinates input format  =     Cartesian coordinates
coor:                                          (in Angstroms)
redata: Number of spin components        =     1
redata: Long output                      =     F
redata: Number of Atomic Species         =     2
redata: Charge density info will appear in .RHO file
redata: Write Mulliken Pop.              =     NO
redata: Mesh Cutoff                      =    50.0000  Ry
redata: Net charge of the system         =     0.0000 |e|
redata: Max. number of SCF Iter          =    50
redata: Mixing is linear
redata: Mix DM in first SCF step ?       =     F
redata: Write Pulay info on disk?        =     F
redata: New DM Mixing Weight             =     0.2500
redata: New DM Occupancy tolerance       = 0.000000000001
redata: No kicks to SCF
redata: DM Mixing Weight for Kicks       =     0.5000
redata: DM Tolerance for SCF             =     0.000100
redata: Require Energy convergence for SCF =     F
redata: DM Energy tolerance for SCF      =     0.000100 eV
redata: Using Saved Data (generic)   =     F
redata: Use continuation files for DM    =     F
redata: Neglect nonoverlap interactions  =     F
redata: Method of Calculation            =     Order-N
redata: Fix the spin of the system       =     F
redata: Maximum number of iterations     =  1000
redata: Relative tolerance               =     0.10D-07
redata: Eta (Fermi level parameter)      =     0.0000  Ry
redata: Radius of LWFs                   =     9.5000  Bohr
redata: Use continuation files for LWF   =     F
redata: Method to build LWFs             =     kim          
redata: Dynamics option                  =     Verlet MD run
redata: Initial MD time step             =     1
redata:   Final MD time step             =     1
redata: Length of MD time step           =     1.0000  fs
redata: Initial Temperature of MD run    =     0.0000  K
redata: Perform a MD quench              =     F
redata: ***********************************************************************

siesta: Atomic coordinates (Bohr) and species
siesta:      0.00000   0.00000   0.00000  1        1
siesta:      1.43052   1.10738   0.00000  2        2
siesta:     -1.43052   1.10738   0.00000  2        3

initatomlists: Number of atoms, orbitals, and projectors:      3    23    34

siesta: Automatic unit cell vectors (Ang):
siesta:    7.286412    0.000000    0.000000
siesta:    0.000000    5.746952    0.000000
siesta:    0.000000    0.000000    5.621012

siesta: System type = molecule  

  Spatial decomposition data : 

  Cutoff =   2.8105 Angstroms

  Spatial decomposition cells (containing atoms) :

      Ncells    Cell min    Cell length
  x :      2      0.0000     13.7693
  y :      2      0.0000     10.8602
  z :      1      0.0000     10.6222


--------------------------------------------------------------------------------
 Cell   No. of atoms    Atom No.      x            y            z
--------------------------------------------------------------------------------
     3           1           3      12.3388      11.9676      10.6222
--------------------------------------------------------------------------------
     4           2           1      13.7693      10.8602      10.6222
                             2      15.1999      11.9676      10.6222
--------------------------------------------------------------------------------



* Maximum dynamic memory allocated =     1 MB

siesta:                 ==============================
                            Begin MD step =      1
                        ==============================

outcell: Unit cell vectors (Ang):
        7.286412    0.000000    0.000000
        0.000000    5.746952    0.000000
        0.000000    0.000000    5.621012

outcell: Cell vector modules (Ang)   :    7.286412    5.746952    5.621012
outcell: Cell angles (23,13,12) (deg):     90.0000     90.0000     90.0000
outcell: Cell volume (Ang**3)        :    235.3780

InitMesh: MESH =    32 x    30 x    24 =       23040
InitMesh: Mesh cutoff (required, used) =    50.000    50.384 Ry

* Maximum dynamic memory allocated =     3 MB

ordern: enum =      8.0000

ordern: ioptlwf =  1
cgwf: iter =    1      grad =        -315.323429      Eb(Ry) =      -1.263077
cgwf: iter =    2      grad =         -18.583933      Eb(Ry) =      -2.966278
cgwf: iter =    3      grad =          -6.814188      Eb(Ry) =      -3.403843
cgwf: iter =    4      grad =          -5.093102      Eb(Ry) =      -3.585051
cgwf: iter =    5      grad =          -6.676956      Eb(Ry) =      -3.741398
cgwf: iter =    6      grad =          -6.251973      Eb(Ry) =      -4.063419
cgwf: iter =    7      grad =          -4.286650      Eb(Ry) =      -4.204647
cgwf: iter =    8      grad =          -2.593038      Eb(Ry) =      -4.284092
cgwf: iter =    9      grad =          -0.914683      Eb(Ry) =      -4.341113
cgwf: iter =   10      grad =          -0.678147      Eb(Ry) =      -4.367601
cgwf: iter =   11      grad =          -0.484983      Eb(Ry) =      -4.384618
cgwf: iter =   12      grad =          -0.226591      Eb(Ry) =      -4.394145
cgwf: iter =   13      grad =          -0.195323      Eb(Ry) =      -4.403322
cgwf: iter =   14      grad =          -0.215702      Eb(Ry) =      -4.409623
cgwf: iter =   15      grad =          -0.209127      Eb(Ry) =      -4.415436
cgwf: iter =   16      grad =          -0.167473      Eb(Ry) =      -4.421392
cgwf: iter =   17      grad =          -0.245731      Eb(Ry) =      -4.430060
cgwf: iter =   18      grad =          -0.307626      Eb(Ry) =      -4.437090
cgwf: iter =   19      grad =          -0.381985      Eb(Ry) =      -4.447980
cgwf: iter =   20      grad =          -0.286557      Eb(Ry) =      -4.460743
cgwf: iter =   21      grad =          -0.281148      Eb(Ry) =      -4.471822
cgwf: iter =   22      grad =          -0.151294      Eb(Ry) =      -4.477385
cgwf: iter =   23      grad =          -0.080576      Eb(Ry) =      -4.480666
cgwf: iter =   24      grad =          -0.077357      Eb(Ry) =      -4.484635
cgwf: iter =   25      grad =          -0.086202      Eb(Ry) =      -4.487231
cgwf: iter =   26      grad =          -0.045867      Eb(Ry) =      -4.489026
cgwf: iter =   27      grad =          -0.025257      Eb(Ry) =      -4.490047
cgwf: iter =   28      grad =          -0.037893      Eb(Ry) =      -4.491674
cgwf: iter =   29      grad =          -0.041136      Eb(Ry) =      -4.492758
cgwf: iter =   30      grad =          -0.047520      Eb(Ry) =      -4.493953
cgwf: iter =   31      grad =          -0.032551      Eb(Ry) =      -4.495361
cgwf: iter =   32      grad =          -0.036707      Eb(Ry) =      -4.497104
cgwf: iter =   33      grad =          -0.022947      Eb(Ry) =      -4.498084
cgwf: iter =   34      grad =          -0.021208      Eb(Ry) =      -4.498551
cgwf: iter =   35      grad =          -0.016103      Eb(Ry) =      -4.499538
cgwf: iter =   36      grad =          -0.020458      Eb(Ry) =      -4.500246
cgwf: iter =   37      grad =          -0.014314      Eb(Ry) =      -4.501019
cgwf: iter =   38      grad =          -0.011872      Eb(Ry) =      -4.501307
cgwf: iter =   39      grad =          -0.009619      Eb(Ry) =      -4.501661
cgwf: iter =   40      grad =          -0.014082      Eb(Ry) =      -4.502132
cgwf: iter =   41      grad =          -0.011041      Eb(Ry) =      -4.502806
cgwf: iter =   42      grad =          -0.012581      Eb(Ry) =      -4.503134
cgwf: iter =   43      grad =          -0.012041      Eb(Ry) =      -4.503449
cgwf: iter =   44      grad =          -0.006239      Eb(Ry) =      -4.503809
cgwf: iter =   45      grad =          -0.012421      Eb(Ry) =      -4.504256
cgwf: iter =   46      grad =          -0.021162      Eb(Ry) =      -4.504797
cgwf: iter =   47      grad =          -0.013507      Eb(Ry) =      -4.505255
cgwf: iter =   48      grad =          -0.007325      Eb(Ry) =      -4.505607
cgwf: iter =   49      grad =          -0.005073      Eb(Ry) =      -4.505929
cgwf: iter =   50      grad =          -0.003414      Eb(Ry) =      -4.506071
cgwf: iter =   51      grad =          -0.003048      Eb(Ry) =      -4.506150
cgwf: iter =   52      grad =          -0.002047      Eb(Ry) =      -4.506227
cgwf: iter =   53      grad =          -0.002186      Eb(Ry) =      -4.506326
cgwf: iter =   54      grad =          -0.001657      Eb(Ry) =      -4.506406
cgwf: iter =   55      grad =          -0.002323      Eb(Ry) =      -4.506463
cgwf: iter =   56      grad =          -0.001056      Eb(Ry) =      -4.506506
cgwf: iter =   57      grad =          -0.002106      Eb(Ry) =      -4.506579
cgwf: iter =   58      grad =          -0.001790      Eb(Ry) =      -4.506661
cgwf: iter =   59      grad =          -0.002605      Eb(Ry) =      -4.506729
cgwf: iter =   60      grad =          -0.001129      Eb(Ry) =      -4.506777
cgwf: iter =   61      grad =          -0.001005      Eb(Ry) =      -4.506815
cgwf: iter =   62      grad =          -0.000647      Eb(Ry) =      -4.506857
cgwf: iter =   63      grad =          -0.000741      Eb(Ry) =      -4.506879
cgwf: iter =   64      grad =          -0.000709      Eb(Ry) =      -4.506898
cgwf: iter =   65      grad =          -0.000370      Eb(Ry) =      -4.506914
cgwf: iter =   66      grad =          -0.000215      Eb(Ry) =      -4.506931
cgwf: iter =   67      grad =          -0.000316      Eb(Ry) =      -4.506941
cgwf: iter =   68      grad =          -0.000392      Eb(Ry) =      -4.506950
cgwf: iter =   69      grad =          -0.000340      Eb(Ry) =      -4.506960
cgwf: iter =   70      grad =          -0.000444      Eb(Ry) =      -4.506980
cgwf: iter =   71      grad =          -0.000409      Eb(Ry) =      -4.506998
cgwf: iter =   72      grad =          -0.000444      Eb(Ry) =      -4.507011
cgwf: iter =   73      grad =          -0.000285      Eb(Ry) =      -4.507019
cgwf: iter =   74      grad =          -0.000328      Eb(Ry) =      -4.507032
cgwf: iter =   75      grad =          -0.000201      Eb(Ry) =      -4.507044
cgwf: iter =   76      grad =          -0.000143      Eb(Ry) =      -4.507051
cgwf: iter =   77      grad =          -0.000111      Eb(Ry) =      -4.507053
cgwf: iter =   78      grad =          -0.000075      Eb(Ry) =      -4.507058
cgwf: iter =   79      grad =          -0.000062      Eb(Ry) =      -4.507060
cgwf: iter =   80      grad =          -0.000073      Eb(Ry) =      -4.507063
cgwf: iter =   81      grad =          -0.000049      Eb(Ry) =      -4.507065
cgwf: iter =   82      grad =          -0.000038      Eb(Ry) =      -4.507066
cgwf: iter =   83      grad =          -0.000033      Eb(Ry) =      -4.507067
cgwf: iter =   84      grad =          -0.000047      Eb(Ry) =      -4.507069
cgwf: iter =   85      grad =          -0.000048      Eb(Ry) =      -4.507070
cgwf: iter =   86      grad =          -0.000066      Eb(Ry) =      -4.507072
cgwf: iter =   87      grad =          -0.000032      Eb(Ry) =      -4.507074
cgwf: iter =   88      grad =          -0.000052      Eb(Ry) =      -4.507076
cgwf: iter =   89      grad =          -0.000049      Eb(Ry) =      -4.507078
cgwf: iter =   90      grad =          -0.000027      Eb(Ry) =      -4.507079
cgwf: iter =   91      grad =          -0.000021      Eb(Ry) =      -4.507080
cgwf: iter =   92      grad =          -0.000017      Eb(Ry) =      -4.507081
cgwf: iter =   93      grad =          -0.000011      Eb(Ry) =      -4.507081
cgwf: iter =   94      grad =          -0.000006      Eb(Ry) =      -4.507081
cgwf: iter =   95      grad =          -0.000006      Eb(Ry) =      -4.507082
cgwf: iter =   96      grad =          -0.000005      Eb(Ry) =      -4.507082
cgwf: iter =   97      grad =          -0.000010      Eb(Ry) =      -4.507082
cgwf: iter =   98      grad =          -0.000013      Eb(Ry) =      -4.507082
cgwf: iter =   99      grad =          -0.000010      Eb(Ry) =      -4.507083
cgwf: iter =  100      grad =          -0.000006      Eb(Ry) =      -4.507083
cgwf: iter =  101      grad =          -0.000007      Eb(Ry) =      -4.507083
cgwf: iter =  102      grad =          -0.000009      Eb(Ry) =      -4.507084
cgwf: iter =  103      grad =          -0.000007      Eb(Ry) =      -4.507084
cgwf: iter =  104      grad =          -0.000004      Eb(Ry) =      -4.507084
cgwf: iter =  105      grad =          -0.000003      Eb(Ry) =      -4.507084
cgwf: iter =  106      grad =          -0.000003      Eb(Ry) =      -4.507084
cgwf: iter =  107      grad =          -0.000003      Eb(Ry) =      -4.507084
cgwf: iter =  108      grad =          -0.000002      Eb(Ry) =      -4.507085
cgwf: iter =  109      grad =          -0.000003      Eb(Ry) =      -4.507085
cgwf: iter =  110      grad =          -0.000004      Eb(Ry) =      -4.507085
cgwf: iter =  111      grad =          -0.000005      Eb(Ry) =      -4.507085
cgwf: iter =  112      grad =          -0.000002      Eb(Ry) =      -4.507085
cgwf: iter =  113      grad =          -0.000003      Eb(Ry) =      -4.507085
cgwf: iter =  114      grad =          -0.000003      Eb(Ry) =      -4.507085
cgwf: iter =  115      grad =          -0.000004      Eb(Ry) =      -4.507085
cgwf: iter =  116      grad =          -0.000001      Eb(Ry) =      -4.507085

cgwf:  CG tolerance reached

denmat: qtot (before DM normalization) =       8.0000
ordern: qtot (after  DM normalization) =       8.0000

siesta: Program's energy decomposition (eV):
siesta: Eions   =       815.854478
siesta: Ena     =       175.154321
siesta: Ekin    =       341.667405
siesta: Enl     =       -52.736757
siesta: DEna    =        -0.000001
siesta: DUscf   =         0.000000
siesta: DUext   =         0.000000
siesta: Exc     =      -109.951257
siesta: eta*DQ  =         0.000000
siesta: Emadel  =         0.000000
siesta: Ekinion =         0.000000
siesta: Eharris =      -466.430379
siesta: Etot    =      -461.720767
siesta: FreeEng =      -461.720767

siesta: iscf =    1
Eharris(eV) =       -466.4304  E_KS(eV) =       -461.7208  dDmax =  1.4373

timer: Routine,Calls,Time,% = IterSCF        1       2.181  68.28
elaps: Routine,Calls,Wall,% = IterSCF        1       2.184  54.92

ordern: enum =      8.0000
cgwf: iter =    1      grad =          -0.399278      Eb(Ry) =      -3.180384
cgwf: iter =    2      grad =          -0.686071      Eb(Ry) =      -3.221696
cgwf: iter =    3      grad =          -0.107803      Eb(Ry) =      -3.230056
cgwf: iter =    4      grad =          -0.072656      Eb(Ry) =      -3.235365
cgwf: iter =    5      grad =          -0.017127      Eb(Ry) =      -3.238119
cgwf: iter =    6      grad =          -0.005715      Eb(Ry) =      -3.238704
cgwf: iter =    7      grad =          -0.005413      Eb(Ry) =      -3.238828
cgwf: iter =    8      grad =          -0.001213      Eb(Ry) =      -3.239065
cgwf: iter =    9      grad =          -0.001395      Eb(Ry) =      -3.239238
cgwf: iter =   10      grad =          -0.001213      Eb(Ry) =      -3.239279
cgwf: iter =   11      grad =          -0.005121      Eb(Ry) =      -3.239370
cgwf: iter =   12      grad =          -0.001821      Eb(Ry) =      -3.239530
cgwf: iter =   13      grad =          -0.001580      Eb(Ry) =      -3.239597
cgwf: iter =   14      grad =          -0.000800      Eb(Ry) =      -3.239740
cgwf: iter =   15      grad =          -0.002591      Eb(Ry) =      -3.239793
cgwf: iter =   16      grad =          -0.000614      Eb(Ry) =      -3.239850
cgwf: iter =   17      grad =          -0.000427      Eb(Ry) =      -3.239868
cgwf: iter =   18      grad =          -0.000893      Eb(Ry) =      -3.239895
cgwf: iter =   19      grad =          -0.000263      Eb(Ry) =      -3.239910
cgwf: iter =   20      grad =          -0.000396      Eb(Ry) =      -3.239933
cgwf: iter =   21      grad =          -0.000430      Eb(Ry) =      -3.239950
cgwf: iter =   22      grad =          -0.000495      Eb(Ry) =      -3.239967
cgwf: iter =   23      grad =          -0.000429      Eb(Ry) =      -3.239980
cgwf: iter =   24      grad =          -0.000150      Eb(Ry) =      -3.240001
cgwf: iter =   25      grad =          -0.000181      Eb(Ry) =      -3.240007
cgwf: iter =   26      grad =          -0.000425      Eb(Ry) =      -3.240016
cgwf: iter =   27      grad =          -0.000151      Eb(Ry) =      -3.240027
cgwf: iter =   28      grad =          -0.000215      Eb(Ry) =      -3.240044
cgwf: iter =   29      grad =          -0.000391      Eb(Ry) =      -3.240053
cgwf: iter =   30      grad =          -0.000388      Eb(Ry) =      -3.240065
cgwf: iter =   31      grad =          -0.000146      Eb(Ry) =      -3.240082
cgwf: iter =   32      grad =          -0.000195      Eb(Ry) =      -3.240092
cgwf: iter =   33      grad =          -0.000117      Eb(Ry) =      -3.240096
cgwf: iter =   34      grad =          -0.000178      Eb(Ry) =      -3.240101
cgwf: iter =   35      grad =          -0.000116      Eb(Ry) =      -3.240109
cgwf: iter =   36      grad =          -0.000176      Eb(Ry) =      -3.240118
cgwf: iter =   37      grad =          -0.000119      Eb(Ry) =      -3.240122
cgwf: iter =   38      grad =          -0.000035      Eb(Ry) =      -3.240127
cgwf: iter =   39      grad =          -0.000051      Eb(Ry) =      -3.240130
cgwf: iter =   40      grad =          -0.000022      Eb(Ry) =      -3.240131
cgwf: iter =   41      grad =          -0.000014      Eb(Ry) =      -3.240132
cgwf: iter =   42      grad =          -0.000003      Eb(Ry) =      -3.240132
cgwf: iter =   43      grad =          -0.000010      Eb(Ry) =      -3.240132
cgwf: iter =   44      grad =          -0.000006      Eb(Ry) =      -3.240133
cgwf: iter =   45      grad =          -0.000004      Eb(Ry) =      -3.240133
cgwf: iter =   46      grad =          -0.000007      Eb(Ry) =      -3.240133
cgwf: iter =   47      grad =          -0.000007      Eb(Ry) =      -3.240133
cgwf: iter =   48      grad =          -0.000015      Eb(Ry) =      -3.240134
cgwf: iter =   49      grad =          -0.000023      Eb(Ry) =      -3.240135
cgwf: iter =   50      grad =          -0.000007      Eb(Ry) =      -3.240135
cgwf: iter =   51      grad =          -0.000008      Eb(Ry) =      -3.240135
cgwf: iter =   52      grad =          -0.000008      Eb(Ry) =      -3.240136
cgwf: iter =   53      grad =          -0.000002      Eb(Ry) =      -3.240136
cgwf: iter =   54      grad =          -0.000002      Eb(Ry) =      -3.240136
cgwf: iter =   55      grad =          -0.000002      Eb(Ry) =      -3.240136
cgwf: iter =   56      grad =          -0.000004      Eb(Ry) =      -3.240136
cgwf: iter =   57      grad =          -0.000007      Eb(Ry) =      -3.240136
cgwf: iter =   58      grad =          -0.000008      Eb(Ry) =      -3.240137
cgwf: iter =   59      grad =          -0.000006      Eb(Ry) =      -3.240137
cgwf: iter =   60      grad =          -0.000006      Eb(Ry) =      -3.240137
cgwf: iter =   61      grad =          -0.000013      Eb(Ry) =      -3.240137
cgwf: iter =   62      grad =          -0.000005      Eb(Ry) =      -3.240138
cgwf: iter =   63      grad =          -0.000003      Eb(Ry) =      -3.240138
cgwf: iter =   64      grad =          -0.000002      Eb(Ry) =      -3.240138
cgwf: iter =   65      grad =          -0.000001      Eb(Ry) =      -3.240138
cgwf: iter =   66      grad =          -0.000001      Eb(Ry) =      -3.240138
cgwf: iter =   67      grad =          -0.000001      Eb(Ry) =      -3.240138
cgwf: iter =   68      grad =          -0.000001      Eb(Ry) =      -3.240138

cgwf:  CG tolerance reached

denmat: qtot (before DM normalization) =       8.0000
ordern: qtot (after  DM normalization) =       8.0000

siesta: iscf =    2
Eharris(eV) =       -466.8692  E_KS(eV) =       -465.2432  dDmax =  0.1758


ordern: enum =      8.0000
cgwf: iter =    1      grad =          -0.082190      Eb(Ry) =      -3.657947
cgwf: iter =    2      grad =          -0.088665      Eb(Ry) =      -3.667902
cgwf: iter =    3      grad =          -0.015549      Eb(Ry) =      -3.668904
cgwf: iter =    4      grad =          -0.009486      Eb(Ry) =      -3.670034
cgwf: iter =    5      grad =          -0.001224      Eb(Ry) =      -3.670257
cgwf: iter =    6      grad =          -0.000477      Eb(Ry) =      -3.670291
cgwf: iter =    7      grad =          -0.000848      Eb(Ry) =      -3.670327
cgwf: iter =    8      grad =          -0.000406      Eb(Ry) =      -3.670357
cgwf: iter =    9      grad =          -0.000725      Eb(Ry) =      -3.670369
cgwf: iter =   10      grad =          -0.000257      Eb(Ry) =      -3.670401
cgwf: iter =   11      grad =          -0.000413      Eb(Ry) =      -3.670413
cgwf: iter =   12      grad =          -0.000880      Eb(Ry) =      -3.670429
cgwf: iter =   13      grad =          -0.000296      Eb(Ry) =      -3.670456
cgwf: iter =   14      grad =          -0.000165      Eb(Ry) =      -3.670463
cgwf: iter =   15      grad =          -0.000339      Eb(Ry) =      -3.670471
cgwf: iter =   16      grad =          -0.000100      Eb(Ry) =      -3.670477
cgwf: iter =   17      grad =          -0.000079      Eb(Ry) =      -3.670480
cgwf: iter =   18      grad =          -0.000268      Eb(Ry) =      -3.670498
cgwf: iter =   19      grad =          -0.000159      Eb(Ry) =      -3.670502
cgwf: iter =   20      grad =          -0.000119      Eb(Ry) =      -3.670508
cgwf: iter =   21      grad =          -0.000184      Eb(Ry) =      -3.670514
cgwf: iter =   22      grad =          -0.000222      Eb(Ry) =      -3.670524
cgwf: iter =   23      grad =          -0.000150      Eb(Ry) =      -3.670530
cgwf: iter =   24      grad =          -0.000128      Eb(Ry) =      -3.670535
cgwf: iter =   25      grad =          -0.000050      Eb(Ry) =      -3.670537
cgwf: iter =   26      grad =          -0.000049      Eb(Ry) =      -3.670539
cgwf: iter =   27      grad =          -0.000034      Eb(Ry) =      -3.670540
cgwf: iter =   28      grad =          -0.000041      Eb(Ry) =      -3.670541
cgwf: iter =   29      grad =          -0.000107      Eb(Ry) =      -3.670547
cgwf: iter =   30      grad =          -0.000080      Eb(Ry) =      -3.670550
cgwf: iter =   31      grad =          -0.000029      Eb(Ry) =      -3.670552
cgwf: iter =   32      grad =          -0.000078      Eb(Ry) =      -3.670554
cgwf: iter =   33      grad =          -0.000057      Eb(Ry) =      -3.670559
cgwf: iter =   34      grad =          -0.000153      Eb(Ry) =      -3.670564
cgwf: iter =   35      grad =          -0.000071      Eb(Ry) =      -3.670569
cgwf: iter =   36      grad =          -0.000091      Eb(Ry) =      -3.670571
cgwf: iter =   37      grad =          -0.000050      Eb(Ry) =      -3.670575
cgwf: iter =   38      grad =          -0.000023      Eb(Ry) =      -3.670576
cgwf: iter =   39      grad =          -0.000026      Eb(Ry) =      -3.670577
cgwf: iter =   40      grad =          -0.000029      Eb(Ry) =      -3.670578
cgwf: iter =   41      grad =          -0.000024      Eb(Ry) =      -3.670579
cgwf: iter =   42      grad =          -0.000010      Eb(Ry) =      -3.670580
cgwf: iter =   43      grad =          -0.000009      Eb(Ry) =      -3.670580
cgwf: iter =   44      grad =          -0.000007      Eb(Ry) =      -3.670581
cgwf: iter =   45      grad =          -0.000003      Eb(Ry) =      -3.670581
cgwf: iter =   46      grad =          -0.000003      Eb(Ry) =      -3.670581
cgwf: iter =   47      grad =          -0.000005      Eb(Ry) =      -3.670581
cgwf: iter =   48      grad =          -0.000002      Eb(Ry) =      -3.670581
cgwf: iter =   49      grad =          -0.000002      Eb(Ry) =      -3.670581
cgwf: iter =   50      grad =          -0.000002      Eb(Ry) =      -3.670581
cgwf: iter =   51      grad =          -0.000005      Eb(Ry) =      -3.670581
cgwf: iter =   52      grad =          -0.000026      Eb(Ry) =      -3.670582
cgwf: iter =   53      grad =          -0.000016      Eb(Ry) =      -3.670582
cgwf: iter =   54      grad =          -0.000008      Eb(Ry) =      -3.670583
cgwf: iter =   55      grad =          -0.000012      Eb(Ry) =      -3.670583
cgwf: iter =   56      grad =          -0.000014      Eb(Ry) =      -3.670584
cgwf: iter =   57      grad =          -0.000007      Eb(Ry) =      -3.670584
cgwf: iter =   58      grad =          -0.000006      Eb(Ry) =      -3.670584
cgwf: iter =   59      grad =          -0.000003      Eb(Ry) =      -3.670585
cgwf: iter =   60      grad =          -0.000005      Eb(Ry) =      -3.670585
cgwf: iter =   61      grad =          -0.000002      Eb(Ry) =      -3.670585
cgwf: iter =   62      grad =          -0.000001      Eb(Ry) =      -3.670585

cgwf:  CG tolerance reached

denmat: qtot (before DM normalization) =       8.0000
ordern: qtot (after  DM normalization) =       8.0000

siesta: iscf =    3
Eharris(eV) =       -465.9264  E_KS(eV) =       -465.4660  dDmax =  0.0513


ordern: enum =      8.0000
cgwf: iter =    1      grad =          -0.006596      Eb(Ry) =      -3.794986
cgwf: iter =    2      grad =          -0.008555      Eb(Ry) =      -3.795740
cgwf: iter =    3      grad =          -0.001289      Eb(Ry) =      -3.795835
cgwf: iter =    4      grad =          -0.001295      Eb(Ry) =      -3.795911
cgwf: iter =    5      grad =          -0.000090      Eb(Ry) =      -3.795944
cgwf: iter =    6      grad =          -0.000073      Eb(Ry) =      -3.795950
cgwf: iter =    7      grad =          -0.000066      Eb(Ry) =      -3.795953
cgwf: iter =    8      grad =          -0.000067      Eb(Ry) =      -3.795955
cgwf: iter =    9      grad =          -0.000072      Eb(Ry) =      -3.795957
cgwf: iter =   10      grad =          -0.000029      Eb(Ry) =      -3.795960
cgwf: iter =   11      grad =          -0.000039      Eb(Ry) =      -3.795964
cgwf: iter =   12      grad =          -0.000074      Eb(Ry) =      -3.795969
cgwf: iter =   13      grad =          -0.000031      Eb(Ry) =      -3.795970
cgwf: iter =   14      grad =          -0.000042      Eb(Ry) =      -3.795971
cgwf: iter =   15      grad =          -0.000022      Eb(Ry) =      -3.795974
cgwf: iter =   16      grad =          -0.000042      Eb(Ry) =      -3.795975
cgwf: iter =   17      grad =          -0.000028      Eb(Ry) =      -3.795977
cgwf: iter =   18      grad =          -0.000026      Eb(Ry) =      -3.795978
cgwf: iter =   19      grad =          -0.000005      Eb(Ry) =      -3.795979
cgwf: iter =   20      grad =          -0.000005      Eb(Ry) =      -3.795979
cgwf: iter =   21      grad =          -0.000010      Eb(Ry) =      -3.795980
cgwf: iter =   22      grad =          -0.000005      Eb(Ry) =      -3.795980
cgwf: iter =   23      grad =          -0.000005      Eb(Ry) =      -3.795980
cgwf: iter =   24      grad =          -0.000006      Eb(Ry) =      -3.795980
cgwf: iter =   25      grad =          -0.000007      Eb(Ry) =      -3.795981
cgwf: iter =   26      grad =          -0.000004      Eb(Ry) =      -3.795981
cgwf: iter =   27      grad =          -0.000002      Eb(Ry) =      -3.795982
cgwf: iter =   28      grad =          -0.000001      Eb(Ry) =      -3.795982

cgwf:  CG tolerance reached

denmat: qtot (before DM normalization) =       8.0000
ordern: qtot (after  DM normalization) =       8.0000

siesta: iscf =    4
Eharris(eV) =       -465.8473  E_KS(eV) =       -465.5660  dDmax =  0.0146


ordern: enum =      8.0000
cgwf: iter =    1      grad =          -0.000615      Eb(Ry) =      -3.833538
cgwf: iter =    2      grad =          -0.000325      Eb(Ry) =      -3.833611
cgwf: iter =    3      grad =          -0.000147      Eb(Ry) =      -3.833616
cgwf: iter =    4      grad =          -0.000068      Eb(Ry) =      -3.833624
cgwf: iter =    5      grad =          -0.000013      Eb(Ry) =      -3.833626
cgwf: iter =    6      grad =          -0.000007      Eb(Ry) =      -3.833626
cgwf: iter =    7      grad =          -0.000006      Eb(Ry) =      -3.833627
cgwf: iter =    8      grad =          -0.000005      Eb(Ry) =      -3.833627
cgwf: iter =    9      grad =          -0.000006      Eb(Ry) =      -3.833627
cgwf: iter =   10      grad =          -0.000005      Eb(Ry) =      -3.833627
cgwf: iter =   11      grad =          -0.000007      Eb(Ry) =      -3.833628
cgwf: iter =   12      grad =          -0.000004      Eb(Ry) =      -3.833628
cgwf: iter =   13      grad =          -0.000001      Eb(Ry) =      -3.833628
cgwf: iter =   14      grad =          -0.000003      Eb(Ry) =      -3.833629
cgwf: iter =   15      grad =          -0.000004      Eb(Ry) =      -3.833629
cgwf: iter =   16      grad =          -0.000003      Eb(Ry) =      -3.833629
cgwf: iter =   17      grad =          -0.000005      Eb(Ry) =      -3.833629
cgwf: iter =   18      grad =          -0.000001      Eb(Ry) =      -3.833629
cgwf: iter =   19      grad =          -0.000002      Eb(Ry) =      -3.833629
cgwf: iter =   20      grad =          -0.000002      Eb(Ry) =      -3.833630
cgwf: iter =   21      grad =          -0.000003      Eb(Ry) =      -3.833630
cgwf: iter =   22      grad =          -0.000001      Eb(Ry) =      -3.833630
cgwf: iter =   23      grad =          -0.000001      Eb(Ry) =      -3.833630
cgwf: iter =   24      grad =          -0.000001      Eb(Ry) =      -3.833630
cgwf: iter =   25      grad =          -0.000001      Eb(Ry) =      -3.833630
cgwf: iter =   26      grad =           0.000000      Eb(Ry) =      -3.833630

cgwf:  CG tolerance reached

denmat: qtot (before DM normalization) =       8.0000
ordern: qtot (after  DM normalization) =       8.0000

siesta: iscf =    5
Eharris(eV) =       -465.8398  E_KS(eV) =       -465.6349  dDmax =  0.0103


ordern: enum =      8.0000
cgwf: iter =    1      grad =          -0.000064      Eb(Ry) =      -3.844780
cgwf: iter =    2      grad =          -0.000130      Eb(Ry) =      -3.844786
cgwf: iter =    3      grad =          -0.000012      Eb(Ry) =      -3.844788
cgwf: iter =    4      grad =          -0.000013      Eb(Ry) =      -3.844788
cgwf: iter =    5      grad =          -0.000001      Eb(Ry) =      -3.844789
cgwf: iter =    6      grad =          -0.000001      Eb(Ry) =      -3.844789

cgwf:  CG tolerance reached

denmat: qtot (before DM normalization) =       8.0000
ordern: qtot (after  DM normalization) =       8.0000

siesta: iscf =    6
Eharris(eV) =       -465.8390  E_KS(eV) =       -465.6860  dDmax =  0.0070


ordern: enum =      8.0000
cgwf: iter =    1      grad =          -0.000009      Eb(Ry) =      -3.848193
cgwf: iter =    2      grad =          -0.000010      Eb(Ry) =      -3.848194
cgwf: iter =    3      grad =          -0.000002      Eb(Ry) =      -3.848194
cgwf: iter =    4      grad =          -0.000003      Eb(Ry) =      -3.848194
cgwf: iter =    5      grad =          -0.000001      Eb(Ry) =      -3.848194

cgwf:  CG tolerance reached

denmat: qtot (before DM normalization) =       8.0000
ordern: qtot (after  DM normalization) =       8.0000

siesta: iscf =    7
Eharris(eV) =       -465.8389  E_KS(eV) =       -465.7242  dDmax =  0.0052


ordern: enum =      8.0000
cgwf: iter =    1      grad =          -0.000002      Eb(Ry) =      -3.849123
cgwf: iter =    2      grad =          -0.000001      Eb(Ry) =      -3.849123

cgwf:  CG tolerance reached

denmat: qtot (before DM normalization) =       8.0000
ordern: qtot (after  DM normalization) =       8.0000

siesta: iscf =    8
Eharris(eV) =       -465.8388  E_KS(eV) =       -465.7529  dDmax =  0.0038


ordern: enum =      8.0000
cgwf: iter =    1      grad =           0.000000      Eb(Ry) =      -3.849582
cgwf: iter =    2      grad =          -0.000001      Eb(Ry) =      -3.849582

cgwf:  CG tolerance reached

denmat: qtot (before DM normalization) =       8.0000
ordern: qtot (after  DM normalization) =       8.0000

siesta: iscf =    9
Eharris(eV) =       -465.8388  E_KS(eV) =       -465.7743  dDmax =  0.0030


ordern: enum =      8.0000
cgwf: iter =    1      grad =           0.000000      Eb(Ry) =      -3.849611

cgwf:  CG tolerance reached

denmat: qtot (before DM normalization) =       8.0000
ordern: qtot (after  DM normalization) =       8.0000

siesta: iscf =   10
Eharris(eV) =       -465.8388  E_KS(eV) =       -465.7905  dDmax =  0.0022


ordern: enum =      8.0000
cgwf: iter =    1      grad =           0.000000      Eb(Ry) =      -3.849636

cgwf:  CG tolerance reached

denmat: qtot (before DM normalization) =       8.0000
ordern: qtot (after  DM normalization) =       8.0000

siesta: iscf =   11
Eharris(eV) =       -465.8388  E_KS(eV) =       -465.8025  dDmax =  0.0017


ordern: enum =      8.0000
cgwf: iter =    1      grad =           0.000000      Eb(Ry) =      -3.849652

cgwf:  CG tolerance reached

denmat: qtot (before DM normalization) =       8.0000
ordern: qtot (after  DM normalization) =       8.0000

siesta: iscf =   12
Eharris(eV) =       -465.8388  E_KS(eV) =       -465.8116  dDmax =  0.0012


ordern: enum =      8.0000
cgwf: iter =    1      grad =           0.000000      Eb(Ry) =      -3.849663

cgwf:  CG tolerance reached

denmat: qtot (before DM normalization) =       8.0000
ordern: qtot (after  DM normalization) =       8.0000

siesta: iscf =   13
Eharris(eV) =       -465.8388  E_KS(eV) =       -465.8184  dDmax =  0.0009


ordern: enum =      8.0000
cgwf: iter =    1      grad =          -0.000001      Eb(Ry) =      -3.849666

cgwf:  CG tolerance reached

denmat: qtot (before DM normalization) =       8.0000
ordern: qtot (after  DM normalization) =       8.0000

siesta: iscf =   14
Eharris(eV) =       -465.8388  E_KS(eV) =       -465.8235  dDmax =  0.0007


ordern: enum =      8.0000
cgwf: iter =    1      grad =           0.000000      Eb(Ry) =      -3.849672

cgwf:  CG tolerance reached

denmat: qtot (before DM normalization) =       8.0000
ordern: qtot (after  DM normalization) =       8.0000

siesta: iscf =   15
Eharris(eV) =       -465.8388  E_KS(eV) =       -465.8274  dDmax =  0.0005


ordern: enum =      8.0000
cgwf: iter =    1      grad =           0.000000      Eb(Ry) =      -3.849670

cgwf:  CG tolerance reached

denmat: qtot (before DM normalization) =       8.0000
ordern: qtot (after  DM normalization) =       8.0000

siesta: iscf =   16
Eharris(eV) =       -465.8388  E_KS(eV) =       -465.8302  dDmax =  0.0004


ordern: enum =      8.0000
cgwf: iter =    1      grad =           0.000000      Eb(Ry) =      -3.849673

cgwf:  CG tolerance reached

denmat: qtot (before DM normalization) =       8.0000
ordern: qtot (after  DM normalization) =       8.0000

siesta: iscf =   17
Eharris(eV) =       -465.8388  E_KS(eV) =       -465.8324  dDmax =  0.0003


ordern: enum =      8.0000
cgwf: iter =    1      grad =           0.000000      Eb(Ry) =      -3.849669

cgwf:  CG tolerance reached

denmat: qtot (before DM normalization) =       8.0000
ordern: qtot (after  DM normalization) =       8.0000

siesta: iscf =   18
Eharris(eV) =       -465.8388  E_KS(eV) =       -465.8340  dDmax =  0.0002


ordern: enum =      8.0000
cgwf: iter =    1      grad =           0.000000      Eb(Ry) =      -3.849670

cgwf:  CG tolerance reached

denmat: qtot (before DM normalization) =       8.0000
ordern: qtot (after  DM normalization) =       8.0000

siesta: iscf =   19
Eharris(eV) =       -465.8388  E_KS(eV) =       -465.8352  dDmax =  0.0002


ordern: enum =      8.0000
cgwf: iter =    1      grad =           0.000000      Eb(Ry) =      -3.849667

cgwf:  CG tolerance reached

denmat: qtot (before DM normalization) =       8.0000
ordern: qtot (after  DM normalization) =       8.0000

siesta: iscf =   20
Eharris(eV) =       -465.8388  E_KS(eV) =       -465.8361  dDmax =  0.0001


ordern: enum =      8.0000
cgwf: iter =    1      grad =           0.000000      Eb(Ry) =      -3.849670

cgwf:  CG tolerance reached

denmat: qtot (before DM normalization) =       8.0000
ordern: qtot (after  DM normalization) =       8.0000

siesta: iscf =   21
Eharris(eV) =       -465.8388  E_KS(eV) =       -465.8368  dDmax =  0.0001


ordern: enum =      8.0000
cgwf: iter =    1      grad =           0.000000      Eb(Ry) =      -3.849669

cgwf:  CG tolerance reached

denmat: qtot (before DM normalization) =       8.0000
ordern: qtot (after  DM normalization) =       8.0000

siesta: iscf =   22
Eharris(eV) =       -465.8388  E_KS(eV) =       -465.8373  dDmax =  0.0001


siesta: E_KS(eV) =             -465.8377

siesta: E_KS - E_eggbox =      -465.8377

siesta: Atomic forces (eV/Ang):
----------------------------------------
   Tot   -0.000023    0.055799   -0.000012
----------------------------------------
   Max    0.722903
   Res    0.403641    sqrt( Sum f_i^2 / 3N )
----------------------------------------
   Max    0.722903    constrained

Stress-tensor-Voigt (kbar):      -20.26       -3.73       22.43        0.00        0.00        0.00
Target enthalpy (eV/cell)     -465.8377

siesta: Stress tensor (static) (eV/Ang**3):
        -0.012645    0.000000    0.000000
         0.000000   -0.002326    0.000000
         0.000000    0.000000    0.013998

siesta: Pressure (static):          0.51937461  kBar

siesta: Stress tensor (total) (eV/Ang**3):
        -0.012645    0.000000    0.000000
         0.000000   -0.002326    0.000000
         0.000000    0.000000    0.013998

siesta: Pressure (total):          0.51937461  kBar

siesta: Temp_ion =       0.000 K

* Maximum dynamic memory allocated =     3 MB

siesta: Program's energy decomposition (eV):
siesta: Eions   =       815.854478
siesta: Ena     =       175.154321
siesta: Ekin    =       350.763279
siesta: Enl     =       -61.953348
siesta: DEna    =        -1.764782
siesta: DUscf   =         0.727363
siesta: DUext   =         0.000000
siesta: Exc     =      -112.910017
siesta: eta*DQ  =         0.000000
siesta: Emadel  =         0.000000
siesta: Ekinion =         0.000000
siesta: Eharris =      -465.838803
siesta: Etot    =      -465.837663
siesta: FreeEng =      -465.837663

siesta: Final energy (eV):
siesta:       Kinetic =     350.763279
siesta:       Hartree =     382.605274
siesta:    Ext. field =       0.000000
siesta:   Exch.-corr. =    -112.910017
siesta:  Ion-electron =   -1072.790327
siesta:       Ion-ion =     -13.505871
siesta:       Ekinion =       0.000000
siesta:         Total =    -465.837663

siesta: Atomic forces (eV/Ang):
siesta:      1   -0.000031   -0.510634   -0.000050
siesta:      2    0.722903    0.283209    0.000030
siesta:      3   -0.722895    0.283224    0.000008
siesta: ----------------------------------------
siesta:    Tot   -0.000023    0.055799   -0.000012

siesta: Stress tensor (static) (eV/Ang**3):
siesta:    -0.012645    0.000000    0.000000
siesta:     0.000000   -0.002326    0.000000
siesta:     0.000000    0.000000    0.013998

siesta: Cell volume =        235.378012 Ang**3

siesta: Pressure (static):
siesta:                Solid            Molecule  Units
siesta:           0.00000353         -0.00001813  Ry/Bohr**3
siesta:           0.00032416         -0.00166498  eV/Ang**3
siesta:           0.51937461         -2.66761441  kBar

siesta: Electric dipole (a.u.)  =    0.000000    0.558619   -0.000003
siesta: Electric dipole (Debye) =   -0.000001    1.419868   -0.000008

* Maximum dynamic memory allocated : Node    0 =     3 MB

* Maximum memory occured during MATEL                         

timer: CPU execution times:
timer:  Routine       Calls   Time/call    Tot.time        %
timer:  siesta            1       3.963       3.963   100.00
timer:  Setup             1       0.452       0.452    11.40
timer:  bands             1       0.000       0.000     0.00
timer:  writewave         1       0.001       0.001     0.03
timer:  KSV_init          1       0.000       0.000     0.00
timer:  IterMD            1       3.508       3.508    88.52
timer:  hsparse           2       0.001       0.003     0.08
timer:  overfsm           2       0.278       0.557    14.05
timer:  IterSCF          23       0.128       2.945    74.29
timer:  kinefsm           2       0.261       0.523    13.19
timer:  nlefsm            2       0.772       1.545    38.98
timer:  DHSCF            23       0.034       0.779    19.65
timer:  DHSCF1            1       0.015       0.015     0.38
timer:  DHSCF2            1       0.048       0.048     1.21
timer:  REORD           186       0.000       0.018     0.45
timer:  POISON           24       0.005       0.122     3.08
timer:  DHSCF3           23       0.029       0.661    16.68
timer:  rhoofd           23       0.010       0.219     5.52
timer:  cellXC           23       0.007       0.154     3.88
timer:  vmat             23       0.005       0.115     2.90
timer:  gradient        350       0.000       0.013     0.33
timer:  ener3           328       0.000       0.022     0.55
timer:  denmat           22       0.000       0.003     0.08
timer:  DHSCF4            1       0.053       0.053     1.34
timer:  dfscf             1       0.047       0.047     1.19
timer:  optical           1       0.000       0.000     0.00
  

elaps: ELAPSED times:
elaps:  Routine       Calls   Time/call    Tot.time        %
elaps:  siesta            1       4.833       4.833   100.00
elaps:  Setup             1       1.233       1.233    25.50
elaps:  bands             1       0.000       0.000     0.00
elaps:  writewave         1       0.000       0.000     0.01
elaps:  KSV_init          1       0.000       0.000     0.00
elaps:  IterMD            1       3.597       3.597    74.42
elaps:  hsparse           2       0.001       0.003     0.06
elaps:  overfsm           2       0.278       0.557    11.52
elaps:  IterSCF          23       0.132       3.027    62.62
elaps:  kinefsm           2       0.262       0.523    10.83
elaps:  nlefsm            2       0.772       1.544    31.95
elaps:  DHSCF            23       0.034       0.781    16.15
elaps:  DHSCF1            1       0.014       0.014     0.29
elaps:  DHSCF2            1       0.049       0.049     1.01
elaps:  REORD           186       0.000       0.021     0.44
elaps:  POISON           24       0.005       0.123     2.54
elaps:  DHSCF3           23       0.029       0.661    13.67
elaps:  rhoofd           23       0.009       0.218     4.51
elaps:  cellXC           23       0.007       0.152     3.14
elaps:  vmat             23       0.005       0.114     2.36
elaps:  gradient        350       0.000       0.017     0.35
elaps:  ener3           328       0.000       0.025     0.52
elaps:  denmat           22       0.000       0.002     0.04
elaps:  DHSCF4            1       0.053       0.053     1.10
elaps:  dfscf             1       0.047       0.047     0.97
elaps:  optical           1       0.000       0.000     0.00
  
>> End of run:  24-FEB-2006  12:54:05
