Siesta Version: siesta@uam.es--2006/siesta-devel--reference--2.1--patch-34
Architecture  : intel9 with Siesta libs
Compiler flags: ifort -w -O2 -mp
SERIAL version

* Running in serial mode
>> Start of run:  25-JAN-2007  17:37:01

                           ***********************       
                           *  WELCOME TO SIESTA  *       
                           ***********************       

reinit: Reading from standard input
************************** Dump of input data file ****************************
SystemName          Water molecule, using order-N method
SystemLabel         h2o_orderN
NumberOfAtoms       3
NumberOfSpecies     2
MeshCutoff  50 Ry
%block ChemicalSpeciesLabel
 1  8  O      # Species index, atomic number, species label
 2  1  H
%endblock ChemicalSpeciesLabel
AtomicCoordinatesFormat  Ang
%block AtomicCoordinatesAndAtomicSpecies
 0.000  0.000  0.000  1
 0.757  0.586  0.000  2
-0.757  0.586  0.000  2
%endblock AtomicCoordinatesAndAtomicSpecies
SolutionMethod   ordern
************************** End of input data file *****************************

reinit: -----------------------------------------------------------------------
reinit: System Name: Water molecule, using order-N method                       
reinit: -----------------------------------------------------------------------
reinit: System Label: h2o_orderN                                                  
reinit: -----------------------------------------------------------------------

initatom: Reading input for the pseudopotentials and atomic orbitals ----------
 Species number:            1  Label: O Atomic number:           8
 Species number:            2  Label: H Atomic number:           1
Ground state valence configuration:   2s02  2p04
Reading pseudopotential information in formatted form from O.psf

Valence configuration for pseudopotential generation:
2s( 2.00) rc: 1.14
2p( 4.00) rc: 1.14
3d( 0.00) rc: 1.14
4f( 0.00) rc: 1.14
Dumping pseudopotential information in formatted form in O.psdump
Ground state valence configuration:   1s01
Reading pseudopotential information in formatted form from H.psf

Valence configuration for pseudopotential generation:
1s( 1.00) rc: 1.25
2p( 0.00) rc: 1.25
3d( 0.00) rc: 1.25
4f( 0.00) rc: 1.25
Dumping pseudopotential information in formatted form in H.psdump
For O, standard SIESTA heuristics set lmxkb to 3
 (one more than the basis l, including polarization orbitals).
Use PS.lmax or PS.KBprojectors blocks to override.
For H, standard SIESTA heuristics set lmxkb to 2
 (one more than the basis l, including polarization orbitals).
Use PS.lmax or PS.KBprojectors blocks to override.

<basis_specs>
===============================================================================
O                    Z=   8    Mass=  16.000        Charge= 0.17977+309
Lmxo=1 Lmxkb=3     BasisType=split      Semic=F
L=0  Nsemic=0  Cnfigmx=2
          n=1  nzeta=2  polorb=0
            splnorm:   0.15000    
               vcte:    0.0000    
               rinn:    0.0000    
                rcs:    0.0000      0.0000    
            lambdas:    1.0000      1.0000    
L=1  Nsemic=0  Cnfigmx=2
          n=1  nzeta=2  polorb=1
            splnorm:   0.15000    
               vcte:    0.0000    
               rinn:    0.0000    
                rcs:    0.0000      0.0000    
            lambdas:    1.0000      1.0000    
-------------------------------------------------------------------------------
L=0  Nkbl=1  erefs: 0.17977+309
L=1  Nkbl=1  erefs: 0.17977+309
L=2  Nkbl=1  erefs: 0.17977+309
L=3  Nkbl=1  erefs: 0.17977+309
===============================================================================
</basis_specs>

atom: Called for O                     (Z =   8)

read_vps: Pseudopotential generation method:
read_vps: ATM3      Troullier-Martins                       
Total valence charge:    6.00000

xc_check: Exchange-correlation functional:
xc_check: Ceperley-Alder
V l=0 = -2*Zval/r beyond r=  1.1278
V l=1 = -2*Zval/r beyond r=  1.1278
V l=2 = -2*Zval/r beyond r=  1.1278
V l=3 = -2*Zval/r beyond r=  1.1138
All V_l potentials equal beyond r=  1.1278
This should be close to max(r_c) in ps generation
All pots = -2*Zval/r beyond r=  1.1278

VLOCAL1: 99.0% of the norm of Vloc inside     34.126 Ry
VLOCAL1: 99.9% of the norm of Vloc inside     77.774 Ry
atom: Maximum radius for 4*pi*r*r*local-pseudopot. charge    1.37759
atom: Maximum radius for r*vlocal+2*Zval:    1.18566
GHOST: No ghost state for L =  0
GHOST: No ghost state for L =  1
GHOST: No ghost state for L =  2
GHOST: No ghost state for L =  3

KBgen: Kleinman-Bylander projectors: 
   l= 0   rc=  1.294105   el= -1.742414   Ekb=  9.135903   kbcos=  0.326910
   l= 1   rc=  1.294105   el= -0.676589   Ekb= -8.124878   kbcos= -0.395047
   l= 2   rc=  1.448233   el=  0.002386   Ekb= -2.039267   kbcos= -0.003484
   l= 3   rc=  1.561052   el=  0.003508   Ekb= -0.799141   kbcos= -0.000344

KBgen: Total number of  Kleinman-Bylander projectors:   16
atom: -------------------------------------------------------------------------

atom: SANKEY-TYPE ORBITALS:
atom: Selected multiple-zeta basis: split     

SPLIT: Orbitals with angular momentum L= 0

SPLIT: Basis orbitals for state 2s

SPLIT: PAO cut-off radius determined from an
SPLIT: energy shift=  0.020000 Ry

   izeta = 1
                 lambda =    1.000000
                     rc =    3.305093
                 energy =   -1.723766
                kinetic =    1.614911
    potential(screened) =   -3.338677
       potential(ionic) =  -11.304675

   izeta = 2
                 rmatch =    2.510382
              splitnorm =    0.150000
                 energy =   -1.471299
                kinetic =    2.446434
    potential(screened) =   -3.917732
       potential(ionic) =  -12.476133

SPLIT: Orbitals with angular momentum L= 1

SPLIT: Basis orbitals for state 2p

SPLIT: PAO cut-off radius determined from an
SPLIT: energy shift=  0.020000 Ry

   izeta = 1
                 lambda =    1.000000
                     rc =    3.937239
                 energy =   -0.658841
                kinetic =    5.005986
    potential(screened) =   -5.664827
       potential(ionic) =  -13.452360

   izeta = 2
                 rmatch =    2.541963
              splitnorm =    0.150000
                 energy =   -0.367441
                kinetic =    7.530509
    potential(screened) =   -7.897949
       potential(ionic) =  -16.611953

POLgen: Perturbative polarization orbital with L=  2

POLgen: Polarization orbital for state 2p

   izeta = 1
                     rc =    3.937239
                 energy =    2.398520
                kinetic =    4.716729
    potential(screened) =   -2.318209
       potential(ionic) =   -8.603170
atom: Total number of Sankey-type orbitals: 13

atm_pop: Valence configuration (for local Pseudopot. screening):
 2s( 2.00)                                                            
 2p( 4.00)                                                            
Vna: chval, zval:    6.00000   6.00000

Vna:  Cut-off radius for the neutral-atom potential:   3.937239

atom: _________________________________________________________________________

<basis_specs>
===============================================================================
H                    Z=   1    Mass=  1.0100        Charge= 0.17977+309
Lmxo=0 Lmxkb=2     BasisType=split      Semic=F
L=0  Nsemic=0  Cnfigmx=1
          n=1  nzeta=2  polorb=1
            splnorm:   0.15000    
               vcte:    0.0000    
               rinn:    0.0000    
                rcs:    0.0000      0.0000    
            lambdas:    1.0000      1.0000    
-------------------------------------------------------------------------------
L=0  Nkbl=1  erefs: 0.17977+309
L=1  Nkbl=1  erefs: 0.17977+309
L=2  Nkbl=1  erefs: 0.17977+309
===============================================================================
</basis_specs>

atom: Called for H                     (Z =   1)

read_vps: Pseudopotential generation method:
read_vps: ATM3      Troullier-Martins                       
Total valence charge:    1.00000

xc_check: Exchange-correlation functional:
xc_check: Ceperley-Alder
V l=0 = -2*Zval/r beyond r=  1.2343
V l=1 = -2*Zval/r beyond r=  1.2189
V l=2 = -2*Zval/r beyond r=  1.2189
All V_l potentials equal beyond r=  1.2343
This should be close to max(r_c) in ps generation
All pots = -2*Zval/r beyond r=  1.2343

VLOCAL1: 99.0% of the norm of Vloc inside     28.493 Ry
VLOCAL1: 99.9% of the norm of Vloc inside     64.935 Ry
atom: Maximum radius for 4*pi*r*r*local-pseudopot. charge    1.45251
atom: Maximum radius for r*vlocal+2*Zval:    1.21892
GHOST: No ghost state for L =  0
GHOST: No ghost state for L =  1
GHOST: No ghost state for L =  2

KBgen: Kleinman-Bylander projectors: 
   l= 0   rc=  1.364359   el= -0.467325   Ekb= -2.005361   kbcos= -0.336422
   l= 1   rc=  1.434438   el=  0.001430   Ekb= -0.501708   kbcos= -0.021697
   l= 2   rc=  1.470814   el=  0.002365   Ekb= -0.190555   kbcos= -0.002281

KBgen: Total number of  Kleinman-Bylander projectors:    9
atom: -------------------------------------------------------------------------

atom: SANKEY-TYPE ORBITALS:
atom: Selected multiple-zeta basis: split     

SPLIT: Orbitals with angular momentum L= 0

SPLIT: Basis orbitals for state 1s

SPLIT: PAO cut-off radius determined from an
SPLIT: energy shift=  0.020000 Ry

   izeta = 1
                 lambda =    1.000000
                     rc =    4.828263
                 energy =   -0.449375
                kinetic =    0.929372
    potential(screened) =   -1.378747
       potential(ionic) =   -1.915047

   izeta = 2
                 rmatch =    3.854947
              splitnorm =    0.150000
                 energy =   -0.336153
                kinetic =    1.505294
    potential(screened) =   -1.841447
       potential(ionic) =   -2.413582

POLgen: Perturbative polarization orbital with L=  1

POLgen: Polarization orbital for state 1s

   izeta = 1
                     rc =    4.828263
                 energy =    0.706972
                kinetic =    1.396397
    potential(screened) =   -0.689424
       potential(ionic) =   -1.169792
atom: Total number of Sankey-type orbitals:  5

atm_pop: Valence configuration (for local Pseudopot. screening):
 1s( 1.00)                                                            
Vna: chval, zval:    1.00000   1.00000

Vna:  Cut-off radius for the neutral-atom potential:   4.828263

atom: _________________________________________________________________________

prinput: Basis input ----------------------------------------------------------

PAO.BasisType split     

%block ChemicalSpeciesLabel
    1    8 O                       # Species index, atomic number, species label
    2    1 H                       # Species index, atomic number, species label
%endblock ChemicalSpeciesLabel

%block PAO.Basis                 # Define Basis set
O                     2                    # Species label, number of l-shells
 n=2   0   2                         # n, l, Nzeta 
   3.305      2.510   
   1.000      1.000   
 n=2   1   2 P   1                   # n, l, Nzeta, Polarization, NzetaPol
   3.937      2.542   
   1.000      1.000   
H                     1                    # Species label, number of l-shells
 n=1   0   2 P   1                   # n, l, Nzeta, Polarization, NzetaPol
   4.828      3.855   
   1.000      1.000   
%endblock PAO.Basis

prinput: ----------------------------------------------------------------------


siesta: ******************** Simulation parameters ****************************
siesta:
siesta: The following are some of the parameters of the simulation.
siesta: A complete list of the parameters used, including default values,
siesta: can be found in file out.fdf
siesta:
coor:   Atomic-coordinates input format  =     Cartesian coordinates
coor:                                          (in Angstroms)
redata: Number of spin components        =     1
redata: Long output                      =     F
redata: Number of Atomic Species         =     2
redata: Charge density info will appear in .RHO file
redata: Write Mulliken Pop.              =     NO
redata: Mesh Cutoff                      =    50.0000  Ry
redata: Net charge of the system         =     0.0000 |e|
redata: Max. number of SCF Iter          =    50
redata: Mixing is linear
redata: Mix DM in first SCF step ?       =     F
redata: Write Pulay info on disk?        =     F
redata: New DM Mixing Weight             =     0.2500
redata: New DM Occupancy tolerance       = 0.000000000001
redata: No kicks to SCF
redata: DM Mixing Weight for Kicks       =     0.5000
redata: DM Tolerance for SCF             =     0.000100
redata: Require Energy convergence for SCF =     F
redata: DM Energy tolerance for SCF      =     0.000100 eV
redata: Using Saved Data (generic)   =     F
redata: Use continuation files for DM    =     F
redata: Neglect nonoverlap interactions  =     F
redata: Method of Calculation            =     Order-N
redata: Fix the spin of the system       =     F
redata: Maximum number of iterations     =  1000
redata: Relative tolerance               =     0.10D-07
redata: Eta (Fermi level parameter)      =     0.0000  Ry
redata: Radius of LWFs                   =     9.5000  Bohr
redata: Use continuation files for LWF   =     F
redata: Method to build LWFs             =     kim          
redata: Dynamics option                  =     Verlet MD run
redata: Initial MD time step             =     1
redata:   Final MD time step             =     1
redata: Length of MD time step           =     1.0000  fs
redata: Initial Temperature of MD run    =     0.0000  K
redata: Perform a MD quench              =     F
redata: ***********************************************************************

siesta: Atomic coordinates (Bohr) and species
siesta:      0.00000   0.00000   0.00000  1        1
siesta:      1.43052   1.10738   0.00000  2        2
siesta:     -1.43052   1.10738   0.00000  2        3

initatomlists: Number of atoms, orbitals, and projectors:      3    23    34
Total number of electrons:     8.000000
Total ionic charge:     8.000000

siesta: Automatic unit cell vectors (Ang):
siesta:    7.286412    0.000000    0.000000
siesta:    0.000000    5.746952    0.000000
siesta:    0.000000    0.000000    5.621012

siesta: System type = molecule  

  Spatial decomposition data : 

  Cutoff =   2.8105 Angstroms

  Spatial decomposition cells (containing atoms) :

      Ncells    Cell min    Cell length
  x :      2      0.0000     13.7693
  y :      2      0.0000     10.8602
  z :      1      0.0000     10.6222


--------------------------------------------------------------------------------
 Cell   No. of atoms    Atom No.      x            y            z
--------------------------------------------------------------------------------
     3           1           3      12.3388      11.9676      10.6222
--------------------------------------------------------------------------------
     4           2           1      13.7693      10.8602      10.6222
                             2      15.1999      11.9676      10.6222
--------------------------------------------------------------------------------



siesta: k-grid: Number of k-points =     1
siesta: k-grid: Cutoff (effective) =     2.811 Ang
siesta: k-grid: Supercell and displacements
siesta: k-grid:    0   0   1      0.000
siesta: k-grid:    0   1   0      0.000
siesta: k-grid:    1   0   0      0.000

* Maximum dynamic memory allocated =     1 MB

siesta:                 ==============================
                            Begin MD step =      1
                        ==============================

outcell: Unit cell vectors (Ang):
        7.286412    0.000000    0.000000
        0.000000    5.746952    0.000000
        0.000000    0.000000    5.621012

outcell: Cell vector modules (Ang)   :    7.286412    5.746952    5.621012
outcell: Cell angles (23,13,12) (deg):     90.0000     90.0000     90.0000
outcell: Cell volume (Ang**3)        :    235.3780

InitMesh: MESH =    32 x    30 x    24 =       23040
InitMesh: Mesh cutoff (required, used) =    50.000    50.384 Ry

* Maximum dynamic memory allocated =     3 MB

ordern: enum =      8.0000

ordern: ioptlwf =  1
cgwf: iter =    1      grad =        -315.349961      Eb(Ry) =      -1.263077
cgwf: iter =    2      grad =         -18.585021      Eb(Ry) =      -2.966267
cgwf: iter =    3      grad =          -6.814930      Eb(Ry) =      -3.403830
cgwf: iter =    4      grad =          -5.093865      Eb(Ry) =      -3.585050
cgwf: iter =    5      grad =          -6.676173      Eb(Ry) =      -3.741393
cgwf: iter =    6      grad =          -6.253398      Eb(Ry) =      -4.063490
cgwf: iter =    7      grad =          -4.288161      Eb(Ry) =      -4.204675
cgwf: iter =    8      grad =          -2.593218      Eb(Ry) =      -4.284137
cgwf: iter =    9      grad =          -0.914757      Eb(Ry) =      -4.341186
cgwf: iter =   10      grad =          -0.678319      Eb(Ry) =      -4.367674
cgwf: iter =   11      grad =          -0.484946      Eb(Ry) =      -4.384685
cgwf: iter =   12      grad =          -0.226386      Eb(Ry) =      -4.394212
cgwf: iter =   13      grad =          -0.195127      Eb(Ry) =      -4.403382
cgwf: iter =   14      grad =          -0.215444      Eb(Ry) =      -4.409674
cgwf: iter =   15      grad =          -0.208742      Eb(Ry) =      -4.415477
cgwf: iter =   16      grad =          -0.167107      Eb(Ry) =      -4.421423
cgwf: iter =   17      grad =          -0.245446      Eb(Ry) =      -4.430076
cgwf: iter =   18      grad =          -0.307241      Eb(Ry) =      -4.437094
cgwf: iter =   19      grad =          -0.381778      Eb(Ry) =      -4.447976
cgwf: iter =   20      grad =          -0.286793      Eb(Ry) =      -4.460747
cgwf: iter =   21      grad =          -0.281675      Eb(Ry) =      -4.471838
cgwf: iter =   22      grad =          -0.151677      Eb(Ry) =      -4.477412
cgwf: iter =   23      grad =          -0.080732      Eb(Ry) =      -4.480700
cgwf: iter =   24      grad =          -0.077469      Eb(Ry) =      -4.484679
cgwf: iter =   25      grad =          -0.086301      Eb(Ry) =      -4.487281
cgwf: iter =   26      grad =          -0.045909      Eb(Ry) =      -4.489077
cgwf: iter =   27      grad =          -0.025262      Eb(Ry) =      -4.490097
cgwf: iter =   28      grad =          -0.037811      Eb(Ry) =      -4.491725
cgwf: iter =   29      grad =          -0.041102      Eb(Ry) =      -4.492808
cgwf: iter =   30      grad =          -0.047491      Eb(Ry) =      -4.494001
cgwf: iter =   31      grad =          -0.032535      Eb(Ry) =      -4.495407
cgwf: iter =   32      grad =          -0.036676      Eb(Ry) =      -4.497148
cgwf: iter =   33      grad =          -0.022894      Eb(Ry) =      -4.498130
cgwf: iter =   34      grad =          -0.021306      Eb(Ry) =      -4.498597
cgwf: iter =   35      grad =          -0.016120      Eb(Ry) =      -4.499585
cgwf: iter =   36      grad =          -0.020501      Eb(Ry) =      -4.500295
cgwf: iter =   37      grad =          -0.014265      Eb(Ry) =      -4.501071
cgwf: iter =   38      grad =          -0.011950      Eb(Ry) =      -4.501359
cgwf: iter =   39      grad =          -0.009638      Eb(Ry) =      -4.501714
cgwf: iter =   40      grad =          -0.014107      Eb(Ry) =      -4.502185
cgwf: iter =   41      grad =          -0.011002      Eb(Ry) =      -4.502860
cgwf: iter =   42      grad =          -0.012551      Eb(Ry) =      -4.503189
cgwf: iter =   43      grad =          -0.012130      Eb(Ry) =      -4.503504
cgwf: iter =   44      grad =          -0.006253      Eb(Ry) =      -4.503863
cgwf: iter =   45      grad =          -0.012419      Eb(Ry) =      -4.504311
cgwf: iter =   46      grad =          -0.021156      Eb(Ry) =      -4.504857
cgwf: iter =   47      grad =          -0.013638      Eb(Ry) =      -4.505316
cgwf: iter =   48      grad =          -0.007400      Eb(Ry) =      -4.505668
cgwf: iter =   49      grad =          -0.005111      Eb(Ry) =      -4.505993
cgwf: iter =   50      grad =          -0.003430      Eb(Ry) =      -4.506137
cgwf: iter =   51      grad =          -0.003070      Eb(Ry) =      -4.506217
cgwf: iter =   52      grad =          -0.002061      Eb(Ry) =      -4.506294
cgwf: iter =   53      grad =          -0.002195      Eb(Ry) =      -4.506393
cgwf: iter =   54      grad =          -0.001659      Eb(Ry) =      -4.506473
cgwf: iter =   55      grad =          -0.002321      Eb(Ry) =      -4.506531
cgwf: iter =   56      grad =          -0.001055      Eb(Ry) =      -4.506574
cgwf: iter =   57      grad =          -0.002104      Eb(Ry) =      -4.506646
cgwf: iter =   58      grad =          -0.001794      Eb(Ry) =      -4.506728
cgwf: iter =   59      grad =          -0.002623      Eb(Ry) =      -4.506796
cgwf: iter =   60      grad =          -0.001134      Eb(Ry) =      -4.506845
cgwf: iter =   61      grad =          -0.001013      Eb(Ry) =      -4.506883
cgwf: iter =   62      grad =          -0.000654      Eb(Ry) =      -4.506925
cgwf: iter =   63      grad =          -0.000751      Eb(Ry) =      -4.506947
cgwf: iter =   64      grad =          -0.000712      Eb(Ry) =      -4.506966
cgwf: iter =   65      grad =          -0.000373      Eb(Ry) =      -4.506983
cgwf: iter =   66      grad =          -0.000216      Eb(Ry) =      -4.507000
cgwf: iter =   67      grad =          -0.000318      Eb(Ry) =      -4.507010
cgwf: iter =   68      grad =          -0.000390      Eb(Ry) =      -4.507019
cgwf: iter =   69      grad =          -0.000339      Eb(Ry) =      -4.507029
cgwf: iter =   70      grad =          -0.000444      Eb(Ry) =      -4.507049
cgwf: iter =   71      grad =          -0.000412      Eb(Ry) =      -4.507067
cgwf: iter =   72      grad =          -0.000448      Eb(Ry) =      -4.507080
cgwf: iter =   73      grad =          -0.000283      Eb(Ry) =      -4.507089
cgwf: iter =   74      grad =          -0.000330      Eb(Ry) =      -4.507101
cgwf: iter =   75      grad =          -0.000202      Eb(Ry) =      -4.507113
cgwf: iter =   76      grad =          -0.000146      Eb(Ry) =      -4.507120
cgwf: iter =   77      grad =          -0.000110      Eb(Ry) =      -4.507123
cgwf: iter =   78      grad =          -0.000075      Eb(Ry) =      -4.507127
cgwf: iter =   79      grad =          -0.000062      Eb(Ry) =      -4.507129
cgwf: iter =   80      grad =          -0.000074      Eb(Ry) =      -4.507132
cgwf: iter =   81      grad =          -0.000049      Eb(Ry) =      -4.507134
cgwf: iter =   82      grad =          -0.000037      Eb(Ry) =      -4.507135
cgwf: iter =   83      grad =          -0.000033      Eb(Ry) =      -4.507137
cgwf: iter =   84      grad =          -0.000047      Eb(Ry) =      -4.507138
cgwf: iter =   85      grad =          -0.000047      Eb(Ry) =      -4.507140
cgwf: iter =   86      grad =          -0.000065      Eb(Ry) =      -4.507141
cgwf: iter =   87      grad =          -0.000032      Eb(Ry) =      -4.507144
cgwf: iter =   88      grad =          -0.000052      Eb(Ry) =      -4.507145
cgwf: iter =   89      grad =          -0.000050      Eb(Ry) =      -4.507147
cgwf: iter =   90      grad =          -0.000027      Eb(Ry) =      -4.507148
cgwf: iter =   91      grad =          -0.000021      Eb(Ry) =      -4.507149
cgwf: iter =   92      grad =          -0.000017      Eb(Ry) =      -4.507150
cgwf: iter =   93      grad =          -0.000011      Eb(Ry) =      -4.507150
cgwf: iter =   94      grad =          -0.000006      Eb(Ry) =      -4.507151
cgwf: iter =   95      grad =          -0.000006      Eb(Ry) =      -4.507151
cgwf: iter =   96      grad =          -0.000005      Eb(Ry) =      -4.507151
cgwf: iter =   97      grad =          -0.000011      Eb(Ry) =      -4.507151
cgwf: iter =   98      grad =          -0.000012      Eb(Ry) =      -4.507152
cgwf: iter =   99      grad =          -0.000009      Eb(Ry) =      -4.507152
cgwf: iter =  100      grad =          -0.000006      Eb(Ry) =      -4.507152
cgwf: iter =  101      grad =          -0.000007      Eb(Ry) =      -4.507153
cgwf: iter =  102      grad =          -0.000009      Eb(Ry) =      -4.507153
cgwf: iter =  103      grad =          -0.000007      Eb(Ry) =      -4.507153
cgwf: iter =  104      grad =          -0.000004      Eb(Ry) =      -4.507153
cgwf: iter =  105      grad =          -0.000003      Eb(Ry) =      -4.507153
cgwf: iter =  106      grad =          -0.000003      Eb(Ry) =      -4.507154
cgwf: iter =  107      grad =          -0.000003      Eb(Ry) =      -4.507154
cgwf: iter =  108      grad =          -0.000002      Eb(Ry) =      -4.507154
cgwf: iter =  109      grad =          -0.000003      Eb(Ry) =      -4.507154
cgwf: iter =  110      grad =          -0.000004      Eb(Ry) =      -4.507154
cgwf: iter =  111      grad =          -0.000005      Eb(Ry) =      -4.507154
cgwf: iter =  112      grad =          -0.000002      Eb(Ry) =      -4.507154
cgwf: iter =  113      grad =          -0.000003      Eb(Ry) =      -4.507154
cgwf: iter =  114      grad =          -0.000003      Eb(Ry) =      -4.507154
cgwf: iter =  115      grad =          -0.000004      Eb(Ry) =      -4.507155
cgwf: iter =  116      grad =          -0.000001      Eb(Ry) =      -4.507155

cgwf:  CG tolerance reached

denmat: qtot (before DM normalization) =       8.0000
ordern: qtot (after  DM normalization) =       8.0000

siesta: Program's energy decomposition (eV):
siesta: Eions   =       815.854478
siesta: Ena     =       175.154321
siesta: Ekin    =       341.667405
siesta: Enl     =       -52.736757
siesta: DEna    =        -0.000001
siesta: DUscf   =         0.000000
siesta: DUext   =         0.000000
siesta: Exc     =      -109.951257
siesta: eta*DQ  =         0.000000
siesta: Emadel  =         0.000000
siesta: Emeta   =         0.000000
siesta: Emolmec =         0.000000
siesta: Ekinion =         0.000000
siesta: Eharris =      -466.432264
siesta: Etot    =      -461.720767
siesta: FreeEng =      -461.720767

siesta: iscf =    1
Eharris(eV) =       -466.4323  E_KS(eV) =       -461.7208  dDmax =  1.4377

timer: Routine,Calls,Time,% = IterSCF        1       2.842  68.83
elaps: Routine,Calls,Wall,% = IterSCF        1       2.841  68.83

ordern: enum =      8.0000
cgwf: iter =    1      grad =          -0.399243      Eb(Ry) =      -3.180208
cgwf: iter =    2      grad =          -0.686893      Eb(Ry) =      -3.221511
cgwf: iter =    3      grad =          -0.107747      Eb(Ry) =      -3.229879
cgwf: iter =    4      grad =          -0.072656      Eb(Ry) =      -3.235189
cgwf: iter =    5      grad =          -0.017117      Eb(Ry) =      -3.237942
cgwf: iter =    6      grad =          -0.005716      Eb(Ry) =      -3.238527
cgwf: iter =    7      grad =          -0.005411      Eb(Ry) =      -3.238650
cgwf: iter =    8      grad =          -0.001215      Eb(Ry) =      -3.238888
cgwf: iter =    9      grad =          -0.001439      Eb(Ry) =      -3.239060
cgwf: iter =   10      grad =          -0.001183      Eb(Ry) =      -3.239102
cgwf: iter =   11      grad =          -0.005164      Eb(Ry) =      -3.239192
cgwf: iter =   12      grad =          -0.001838      Eb(Ry) =      -3.239353
cgwf: iter =   13      grad =          -0.001568      Eb(Ry) =      -3.239420
cgwf: iter =   14      grad =          -0.000796      Eb(Ry) =      -3.239564
cgwf: iter =   15      grad =          -0.002597      Eb(Ry) =      -3.239618
cgwf: iter =   16      grad =          -0.000617      Eb(Ry) =      -3.239673
cgwf: iter =   17      grad =          -0.000428      Eb(Ry) =      -3.239692
cgwf: iter =   18      grad =          -0.000906      Eb(Ry) =      -3.239718
cgwf: iter =   19      grad =          -0.000261      Eb(Ry) =      -3.239734
cgwf: iter =   20      grad =          -0.000402      Eb(Ry) =      -3.239756
cgwf: iter =   21      grad =          -0.000427      Eb(Ry) =      -3.239773
cgwf: iter =   22      grad =          -0.000507      Eb(Ry) =      -3.239790
cgwf: iter =   23      grad =          -0.000412      Eb(Ry) =      -3.239803
cgwf: iter =   24      grad =          -0.000154      Eb(Ry) =      -3.239824
cgwf: iter =   25      grad =          -0.000184      Eb(Ry) =      -3.239830
cgwf: iter =   26      grad =          -0.000393      Eb(Ry) =      -3.239838
cgwf: iter =   27      grad =          -0.000151      Eb(Ry) =      -3.239850
cgwf: iter =   28      grad =          -0.000231      Eb(Ry) =      -3.239866
cgwf: iter =   29      grad =          -0.000355      Eb(Ry) =      -3.239874
cgwf: iter =   30      grad =          -0.000371      Eb(Ry) =      -3.239888
cgwf: iter =   31      grad =          -0.000147      Eb(Ry) =      -3.239905
cgwf: iter =   32      grad =          -0.000246      Eb(Ry) =      -3.239914
cgwf: iter =   33      grad =          -0.000078      Eb(Ry) =      -3.239918
cgwf: iter =   34      grad =          -0.000138      Eb(Ry) =      -3.239923
cgwf: iter =   35      grad =          -0.000109      Eb(Ry) =      -3.239930
cgwf: iter =   36      grad =          -0.000199      Eb(Ry) =      -3.239935
cgwf: iter =   37      grad =          -0.000079      Eb(Ry) =      -3.239939
cgwf: iter =   38      grad =          -0.000063      Eb(Ry) =      -3.239943
cgwf: iter =   39      grad =          -0.000042      Eb(Ry) =      -3.239945
cgwf: iter =   40      grad =          -0.000036      Eb(Ry) =      -3.239948
cgwf: iter =   41      grad =          -0.000027      Eb(Ry) =      -3.239949
cgwf: iter =   42      grad =          -0.000012      Eb(Ry) =      -3.239950
cgwf: iter =   43      grad =          -0.000013      Eb(Ry) =      -3.239950
cgwf: iter =   44      grad =          -0.000017      Eb(Ry) =      -3.239951
cgwf: iter =   45      grad =          -0.000031      Eb(Ry) =      -3.239952
cgwf: iter =   46      grad =          -0.000029      Eb(Ry) =      -3.239953
cgwf: iter =   47      grad =          -0.000011      Eb(Ry) =      -3.239954
cgwf: iter =   48      grad =          -0.000019      Eb(Ry) =      -3.239955
cgwf: iter =   49      grad =          -0.000019      Eb(Ry) =      -3.239956
cgwf: iter =   50      grad =          -0.000032      Eb(Ry) =      -3.239957
cgwf: iter =   51      grad =          -0.000022      Eb(Ry) =      -3.239958
cgwf: iter =   52      grad =          -0.000017      Eb(Ry) =      -3.239959
cgwf: iter =   53      grad =          -0.000013      Eb(Ry) =      -3.239959
cgwf: iter =   54      grad =          -0.000009      Eb(Ry) =      -3.239960
cgwf: iter =   55      grad =          -0.000006      Eb(Ry) =      -3.239960
cgwf: iter =   56      grad =          -0.000005      Eb(Ry) =      -3.239960
cgwf: iter =   57      grad =          -0.000005      Eb(Ry) =      -3.239961
cgwf: iter =   58      grad =          -0.000003      Eb(Ry) =      -3.239961
cgwf: iter =   59      grad =          -0.000002      Eb(Ry) =      -3.239961
cgwf: iter =   60      grad =          -0.000001      Eb(Ry) =      -3.239961
cgwf: iter =   61      grad =          -0.000002      Eb(Ry) =      -3.239961
cgwf: iter =   62      grad =          -0.000001      Eb(Ry) =      -3.239961
cgwf: iter =   63      grad =          -0.000001      Eb(Ry) =      -3.239961
cgwf: iter =   64      grad =          -0.000001      Eb(Ry) =      -3.239961
cgwf: iter =   65      grad =          -0.000001      Eb(Ry) =      -3.239961
cgwf: iter =   66      grad =          -0.000002      Eb(Ry) =      -3.239961
cgwf: iter =   67      grad =          -0.000002      Eb(Ry) =      -3.239961
cgwf: iter =   68      grad =          -0.000002      Eb(Ry) =      -3.239961
cgwf: iter =   69      grad =          -0.000001      Eb(Ry) =      -3.239961

cgwf:  CG tolerance reached

denmat: qtot (before DM normalization) =       8.0000
ordern: qtot (after  DM normalization) =       8.0000

siesta: iscf =    2
Eharris(eV) =       -466.8710  E_KS(eV) =       -465.2451  dDmax =  0.1757


ordern: enum =      8.0000
cgwf: iter =    1      grad =          -0.082239      Eb(Ry) =      -3.657728
cgwf: iter =    2      grad =          -0.088190      Eb(Ry) =      -3.667695
cgwf: iter =    3      grad =          -0.015514      Eb(Ry) =      -3.668691
cgwf: iter =    4      grad =          -0.009205      Eb(Ry) =      -3.669827
cgwf: iter =    5      grad =          -0.001202      Eb(Ry) =      -3.670042
cgwf: iter =    6      grad =          -0.000472      Eb(Ry) =      -3.670076
cgwf: iter =    7      grad =          -0.000834      Eb(Ry) =      -3.670111
cgwf: iter =    8      grad =          -0.000382      Eb(Ry) =      -3.670141
cgwf: iter =    9      grad =          -0.000756      Eb(Ry) =      -3.670154
cgwf: iter =   10      grad =          -0.000249      Eb(Ry) =      -3.670184
cgwf: iter =   11      grad =          -0.000393      Eb(Ry) =      -3.670196
cgwf: iter =   12      grad =          -0.000919      Eb(Ry) =      -3.670213
cgwf: iter =   13      grad =          -0.000301      Eb(Ry) =      -3.670238
cgwf: iter =   14      grad =          -0.000334      Eb(Ry) =      -3.670255
cgwf: iter =   15      grad =          -0.000516      Eb(Ry) =      -3.670267
cgwf: iter =   16      grad =          -0.000250      Eb(Ry) =      -3.670278
cgwf: iter =   17      grad =          -0.000328      Eb(Ry) =      -3.670295
cgwf: iter =   18      grad =          -0.000316      Eb(Ry) =      -3.670308
cgwf: iter =   19      grad =          -0.000171      Eb(Ry) =      -3.670313
cgwf: iter =   20      grad =          -0.000245      Eb(Ry) =      -3.670325
cgwf: iter =   21      grad =          -0.000096      Eb(Ry) =      -3.670332
cgwf: iter =   22      grad =          -0.000135      Eb(Ry) =      -3.670335
cgwf: iter =   23      grad =          -0.000137      Eb(Ry) =      -3.670339
cgwf: iter =   24      grad =          -0.000058      Eb(Ry) =      -3.670344
cgwf: iter =   25      grad =          -0.000104      Eb(Ry) =      -3.670347
cgwf: iter =   26      grad =          -0.000032      Eb(Ry) =      -3.670349
cgwf: iter =   27      grad =          -0.000034      Eb(Ry) =      -3.670350
cgwf: iter =   28      grad =          -0.000068      Eb(Ry) =      -3.670353
cgwf: iter =   29      grad =          -0.000043      Eb(Ry) =      -3.670355
cgwf: iter =   30      grad =          -0.000037      Eb(Ry) =      -3.670357
cgwf: iter =   31      grad =          -0.000018      Eb(Ry) =      -3.670358
cgwf: iter =   32      grad =          -0.000016      Eb(Ry) =      -3.670359
cgwf: iter =   33      grad =          -0.000012      Eb(Ry) =      -3.670359
cgwf: iter =   34      grad =          -0.000013      Eb(Ry) =      -3.670360
cgwf: iter =   35      grad =          -0.000023      Eb(Ry) =      -3.670361
cgwf: iter =   36      grad =          -0.000008      Eb(Ry) =      -3.670361
cgwf: iter =   37      grad =          -0.000006      Eb(Ry) =      -3.670361
cgwf: iter =   38      grad =          -0.000010      Eb(Ry) =      -3.670361
cgwf: iter =   39      grad =          -0.000006      Eb(Ry) =      -3.670362
cgwf: iter =   40      grad =          -0.000009      Eb(Ry) =      -3.670362
cgwf: iter =   41      grad =          -0.000009      Eb(Ry) =      -3.670362
cgwf: iter =   42      grad =          -0.000007      Eb(Ry) =      -3.670363
cgwf: iter =   43      grad =          -0.000007      Eb(Ry) =      -3.670363
cgwf: iter =   44      grad =          -0.000017      Eb(Ry) =      -3.670363
cgwf: iter =   45      grad =          -0.000005      Eb(Ry) =      -3.670364
cgwf: iter =   46      grad =          -0.000005      Eb(Ry) =      -3.670364
cgwf: iter =   47      grad =          -0.000005      Eb(Ry) =      -3.670364
cgwf: iter =   48      grad =          -0.000005      Eb(Ry) =      -3.670364
cgwf: iter =   49      grad =          -0.000006      Eb(Ry) =      -3.670364
cgwf: iter =   50      grad =          -0.000004      Eb(Ry) =      -3.670364
cgwf: iter =   51      grad =          -0.000007      Eb(Ry) =      -3.670365
cgwf: iter =   52      grad =          -0.000003      Eb(Ry) =      -3.670365
cgwf: iter =   53      grad =          -0.000004      Eb(Ry) =      -3.670365
cgwf: iter =   54      grad =          -0.000004      Eb(Ry) =      -3.670365
cgwf: iter =   55      grad =          -0.000002      Eb(Ry) =      -3.670365
cgwf: iter =   56      grad =          -0.000001      Eb(Ry) =      -3.670365
cgwf: iter =   57      grad =          -0.000002      Eb(Ry) =      -3.670365
cgwf: iter =   58      grad =          -0.000002      Eb(Ry) =      -3.670366
cgwf: iter =   59      grad =          -0.000001      Eb(Ry) =      -3.670366
cgwf: iter =   60      grad =          -0.000001      Eb(Ry) =      -3.670366
cgwf: iter =   61      grad =          -0.000001      Eb(Ry) =      -3.670366
cgwf: iter =   62      grad =          -0.000001      Eb(Ry) =      -3.670366

cgwf:  CG tolerance reached

denmat: qtot (before DM normalization) =       8.0000
ordern: qtot (after  DM normalization) =       8.0000

siesta: iscf =    3
Eharris(eV) =       -465.9282  E_KS(eV) =       -465.4678  dDmax =  0.0513


ordern: enum =      8.0000
cgwf: iter =    1      grad =          -0.006634      Eb(Ry) =      -3.794784
cgwf: iter =    2      grad =          -0.011762      Eb(Ry) =      -3.795504
cgwf: iter =    3      grad =          -0.001227      Eb(Ry) =      -3.795635
cgwf: iter =    4      grad =          -0.001260      Eb(Ry) =      -3.795713
cgwf: iter =    5      grad =          -0.000087      Eb(Ry) =      -3.795745
cgwf: iter =    6      grad =          -0.000061      Eb(Ry) =      -3.795751
cgwf: iter =    7      grad =          -0.000031      Eb(Ry) =      -3.795753
cgwf: iter =    8      grad =          -0.000047      Eb(Ry) =      -3.795754
cgwf: iter =    9      grad =          -0.000044      Eb(Ry) =      -3.795755
cgwf: iter =   10      grad =          -0.000046      Eb(Ry) =      -3.795759
cgwf: iter =   11      grad =          -0.000072      Eb(Ry) =      -3.795762
cgwf: iter =   12      grad =          -0.000039      Eb(Ry) =      -3.795765
cgwf: iter =   13      grad =          -0.000073      Eb(Ry) =      -3.795768
cgwf: iter =   14      grad =          -0.000026      Eb(Ry) =      -3.795769
cgwf: iter =   15      grad =          -0.000030      Eb(Ry) =      -3.795770
cgwf: iter =   16      grad =          -0.000014      Eb(Ry) =      -3.795771
cgwf: iter =   17      grad =          -0.000012      Eb(Ry) =      -3.795771
cgwf: iter =   18      grad =          -0.000028      Eb(Ry) =      -3.795773
cgwf: iter =   19      grad =          -0.000017      Eb(Ry) =      -3.795774
cgwf: iter =   20      grad =          -0.000015      Eb(Ry) =      -3.795774
cgwf: iter =   21      grad =          -0.000008      Eb(Ry) =      -3.795775
cgwf: iter =   22      grad =          -0.000010      Eb(Ry) =      -3.795775
cgwf: iter =   23      grad =          -0.000009      Eb(Ry) =      -3.795775
cgwf: iter =   24      grad =          -0.000008      Eb(Ry) =      -3.795776
cgwf: iter =   25      grad =          -0.000006      Eb(Ry) =      -3.795776
cgwf: iter =   26      grad =          -0.000015      Eb(Ry) =      -3.795776
cgwf: iter =   27      grad =          -0.000018      Eb(Ry) =      -3.795777
cgwf: iter =   28      grad =          -0.000018      Eb(Ry) =      -3.795778
cgwf: iter =   29      grad =          -0.000039      Eb(Ry) =      -3.795778
cgwf: iter =   30      grad =          -0.000023      Eb(Ry) =      -3.795780
cgwf: iter =   31      grad =          -0.000007      Eb(Ry) =      -3.795780
cgwf: iter =   32      grad =          -0.000005      Eb(Ry) =      -3.795781
cgwf: iter =   33      grad =          -0.000005      Eb(Ry) =      -3.795781
cgwf: iter =   34      grad =          -0.000008      Eb(Ry) =      -3.795781
cgwf: iter =   35      grad =          -0.000002      Eb(Ry) =      -3.795781
cgwf: iter =   36      grad =          -0.000001      Eb(Ry) =      -3.795781
cgwf: iter =   37      grad =          -0.000001      Eb(Ry) =      -3.795781

cgwf:  CG tolerance reached

denmat: qtot (before DM normalization) =       8.0000
ordern: qtot (after  DM normalization) =       8.0000

siesta: iscf =    4
Eharris(eV) =       -465.8491  E_KS(eV) =       -465.5678  dDmax =  0.0178


ordern: enum =      8.0000
cgwf: iter =    1      grad =          -0.000620      Eb(Ry) =      -3.833576
cgwf: iter =    2      grad =          -0.000364      Eb(Ry) =      -3.833649
cgwf: iter =    3      grad =          -0.000154      Eb(Ry) =      -3.833654
cgwf: iter =    4      grad =          -0.000122      Eb(Ry) =      -3.833661
cgwf: iter =    5      grad =          -0.000014      Eb(Ry) =      -3.833664
cgwf: iter =    6      grad =          -0.000008      Eb(Ry) =      -3.833665
cgwf: iter =    7      grad =          -0.000008      Eb(Ry) =      -3.833665
cgwf: iter =    8      grad =          -0.000007      Eb(Ry) =      -3.833665
cgwf: iter =    9      grad =          -0.000016      Eb(Ry) =      -3.833666
cgwf: iter =   10      grad =          -0.000005      Eb(Ry) =      -3.833666
cgwf: iter =   11      grad =          -0.000004      Eb(Ry) =      -3.833666
cgwf: iter =   12      grad =          -0.000008      Eb(Ry) =      -3.833666
cgwf: iter =   13      grad =          -0.000004      Eb(Ry) =      -3.833666
cgwf: iter =   14      grad =          -0.000005      Eb(Ry) =      -3.833667
cgwf: iter =   15      grad =          -0.000004      Eb(Ry) =      -3.833667
cgwf: iter =   16      grad =          -0.000006      Eb(Ry) =      -3.833667
cgwf: iter =   17      grad =          -0.000007      Eb(Ry) =      -3.833667
cgwf: iter =   18      grad =          -0.000015      Eb(Ry) =      -3.833668
cgwf: iter =   19      grad =          -0.000012      Eb(Ry) =      -3.833668
cgwf: iter =   20      grad =          -0.000014      Eb(Ry) =      -3.833669
cgwf: iter =   21      grad =          -0.000005      Eb(Ry) =      -3.833669
cgwf: iter =   22      grad =          -0.000006      Eb(Ry) =      -3.833669
cgwf: iter =   23      grad =          -0.000001      Eb(Ry) =      -3.833670
cgwf: iter =   24      grad =          -0.000002      Eb(Ry) =      -3.833670
cgwf: iter =   25      grad =          -0.000001      Eb(Ry) =      -3.833670
cgwf: iter =   26      grad =          -0.000001      Eb(Ry) =      -3.833670
cgwf: iter =   27      grad =          -0.000002      Eb(Ry) =      -3.833670
cgwf: iter =   28      grad =          -0.000002      Eb(Ry) =      -3.833670
cgwf: iter =   29      grad =          -0.000001      Eb(Ry) =      -3.833670
cgwf: iter =   30      grad =          -0.000001      Eb(Ry) =      -3.833670
cgwf: iter =   31      grad =          -0.000003      Eb(Ry) =      -3.833670
cgwf: iter =   32      grad =          -0.000001      Eb(Ry) =      -3.833670

cgwf:  CG tolerance reached

denmat: qtot (before DM normalization) =       8.0000
ordern: qtot (after  DM normalization) =       8.0000

siesta: iscf =    5
Eharris(eV) =       -465.8416  E_KS(eV) =       -465.6367  dDmax =  0.0105


ordern: enum =      8.0000
cgwf: iter =    1      grad =          -0.000068      Eb(Ry) =      -3.844897
cgwf: iter =    2      grad =          -0.000045      Eb(Ry) =      -3.844904
cgwf: iter =    3      grad =          -0.000015      Eb(Ry) =      -3.844905
cgwf: iter =    4      grad =          -0.000019      Eb(Ry) =      -3.844906
cgwf: iter =    5      grad =          -0.000002      Eb(Ry) =      -3.844906
cgwf: iter =    6      grad =          -0.000001      Eb(Ry) =      -3.844906

cgwf:  CG tolerance reached

denmat: qtot (before DM normalization) =       8.0000
ordern: qtot (after  DM normalization) =       8.0000

siesta: iscf =    6
Eharris(eV) =       -465.8408  E_KS(eV) =       -465.6878  dDmax =  0.0073


ordern: enum =      8.0000
cgwf: iter =    1      grad =          -0.000009      Eb(Ry) =      -3.848223
cgwf: iter =    2      grad =          -0.000009      Eb(Ry) =      -3.848224
cgwf: iter =    3      grad =          -0.000003      Eb(Ry) =      -3.848224
cgwf: iter =    4      grad =          -0.000002      Eb(Ry) =      -3.848224
cgwf: iter =    5      grad =          -0.000001      Eb(Ry) =      -3.848224

cgwf:  CG tolerance reached

denmat: qtot (before DM normalization) =       8.0000
ordern: qtot (after  DM normalization) =       8.0000

siesta: iscf =    7
Eharris(eV) =       -465.8407  E_KS(eV) =       -465.7260  dDmax =  0.0055


ordern: enum =      8.0000
cgwf: iter =    1      grad =          -0.000002      Eb(Ry) =      -3.849070
cgwf: iter =    2      grad =          -0.000001      Eb(Ry) =      -3.849070

cgwf:  CG tolerance reached

denmat: qtot (before DM normalization) =       8.0000
ordern: qtot (after  DM normalization) =       8.0000

siesta: iscf =    8
Eharris(eV) =       -465.8407  E_KS(eV) =       -465.7547  dDmax =  0.0041


ordern: enum =      8.0000
cgwf: iter =    1      grad =          -0.000001      Eb(Ry) =      -3.849526

cgwf:  CG tolerance reached

denmat: qtot (before DM normalization) =       8.0000
ordern: qtot (after  DM normalization) =       8.0000

siesta: iscf =    9
Eharris(eV) =       -465.8407  E_KS(eV) =       -465.7762  dDmax =  0.0031


ordern: enum =      8.0000
cgwf: iter =    1      grad =          -0.000001      Eb(Ry) =      -3.849784

cgwf:  CG tolerance reached

denmat: qtot (before DM normalization) =       8.0000
ordern: qtot (after  DM normalization) =       8.0000

siesta: iscf =   10
Eharris(eV) =       -465.8407  E_KS(eV) =       -465.7923  dDmax =  0.0023


ordern: enum =      8.0000
cgwf: iter =    1      grad =          -0.000001      Eb(Ry) =      -3.849942

cgwf:  CG tolerance reached

denmat: qtot (before DM normalization) =       8.0000
ordern: qtot (after  DM normalization) =       8.0000

siesta: iscf =   11
Eharris(eV) =       -465.8407  E_KS(eV) =       -465.8044  dDmax =  0.0018


ordern: enum =      8.0000
cgwf: iter =    1      grad =          -0.000002      Eb(Ry) =      -3.849998

cgwf:  CG tolerance reached

denmat: qtot (before DM normalization) =       8.0000
ordern: qtot (after  DM normalization) =       8.0000

siesta: iscf =   12
Eharris(eV) =       -465.8406  E_KS(eV) =       -465.8134  dDmax =  0.0013


ordern: enum =      8.0000
cgwf: iter =    1      grad =          -0.000001      Eb(Ry) =      -3.850019

cgwf:  CG tolerance reached

denmat: qtot (before DM normalization) =       8.0000
ordern: qtot (after  DM normalization) =       8.0000

siesta: iscf =   13
Eharris(eV) =       -465.8406  E_KS(eV) =       -465.8202  dDmax =  0.0010


ordern: enum =      8.0000
cgwf: iter =    1      grad =          -0.000001      Eb(Ry) =      -3.849999

cgwf:  CG tolerance reached

denmat: qtot (before DM normalization) =       8.0000
ordern: qtot (after  DM normalization) =       8.0000

siesta: iscf =   14
Eharris(eV) =       -465.8406  E_KS(eV) =       -465.8253  dDmax =  0.0008


ordern: enum =      8.0000
cgwf: iter =    1      grad =          -0.000001      Eb(Ry) =      -3.849973

cgwf:  CG tolerance reached

denmat: qtot (before DM normalization) =       8.0000
ordern: qtot (after  DM normalization) =       8.0000

siesta: iscf =   15
Eharris(eV) =       -465.8406  E_KS(eV) =       -465.8292  dDmax =  0.0006


ordern: enum =      8.0000
cgwf: iter =    1      grad =          -0.000001      Eb(Ry) =      -3.849926

cgwf:  CG tolerance reached

denmat: qtot (before DM normalization) =       8.0000
ordern: qtot (after  DM normalization) =       8.0000

siesta: iscf =   16
Eharris(eV) =       -465.8406  E_KS(eV) =       -465.8320  dDmax =  0.0004


ordern: enum =      8.0000
cgwf: iter =    1      grad =          -0.000001      Eb(Ry) =      -3.849886

cgwf:  CG tolerance reached

denmat: qtot (before DM normalization) =       8.0000
ordern: qtot (after  DM normalization) =       8.0000

siesta: iscf =   17
Eharris(eV) =       -465.8406  E_KS(eV) =       -465.8342  dDmax =  0.0003


ordern: enum =      8.0000
cgwf: iter =    1      grad =          -0.000001      Eb(Ry) =      -3.849839

cgwf:  CG tolerance reached

denmat: qtot (before DM normalization) =       8.0000
ordern: qtot (after  DM normalization) =       8.0000

siesta: iscf =   18
Eharris(eV) =       -465.8407  E_KS(eV) =       -465.8358  dDmax =  0.0003


ordern: enum =      8.0000
cgwf: iter =    1      grad =           0.000000      Eb(Ry) =      -3.849805

cgwf:  CG tolerance reached

denmat: qtot (before DM normalization) =       8.0000
ordern: qtot (after  DM normalization) =       8.0000

siesta: iscf =   19
Eharris(eV) =       -465.8406  E_KS(eV) =       -465.8370  dDmax =  0.0002


ordern: enum =      8.0000
cgwf: iter =    1      grad =          -0.000001      Eb(Ry) =      -3.849771

cgwf:  CG tolerance reached

denmat: qtot (before DM normalization) =       8.0000
ordern: qtot (after  DM normalization) =       8.0000

siesta: iscf =   20
Eharris(eV) =       -465.8407  E_KS(eV) =       -465.8379  dDmax =  0.0002


ordern: enum =      8.0000
cgwf: iter =    1      grad =           0.000000      Eb(Ry) =      -3.849748

cgwf:  CG tolerance reached

denmat: qtot (before DM normalization) =       8.0000
ordern: qtot (after  DM normalization) =       8.0000

siesta: iscf =   21
Eharris(eV) =       -465.8407  E_KS(eV) =       -465.8386  dDmax =  0.0001


ordern: enum =      8.0000
cgwf: iter =    1      grad =           0.000000      Eb(Ry) =      -3.849727

cgwf:  CG tolerance reached

denmat: qtot (before DM normalization) =       8.0000
ordern: qtot (after  DM normalization) =       8.0000

siesta: iscf =   22
Eharris(eV) =       -465.8406  E_KS(eV) =       -465.8391  dDmax =  0.0001


ordern: enum =      8.0000
cgwf: iter =    1      grad =           0.000000      Eb(Ry) =      -3.849715

cgwf:  CG tolerance reached

denmat: qtot (before DM normalization) =       8.0000
ordern: qtot (after  DM normalization) =       8.0000

siesta: iscf =   23
Eharris(eV) =       -465.8407  E_KS(eV) =       -465.8395  dDmax =  0.0001


siesta: E_KS(eV) =             -465.8398

siesta: E_KS - E_eggbox =      -465.8398

siesta: Atomic forces (eV/Ang):
----------------------------------------
   Tot    0.000013    0.057349    0.000004
----------------------------------------
   Max    0.720106
   Res    0.401835    sqrt( Sum f_i^2 / 3N )
----------------------------------------
   Max    0.720106    constrained

Stress-tensor-Voigt (kbar):      -20.23       -3.70       22.42        0.00        0.00        0.00
Target enthalpy (eV/cell)     -465.8398

siesta: Stress tensor (static) (eV/Ang**3):
        -0.012626    0.000000    0.000000
         0.000000   -0.002311    0.000000
         0.000000    0.000000    0.013996

siesta: Pressure (static):          0.50271857  kBar

siesta: Stress tensor (total) (eV/Ang**3):
        -0.012626    0.000000    0.000000
         0.000000   -0.002311    0.000000
         0.000000    0.000000    0.013996

siesta: Pressure (total):          0.50271857  kBar

siesta: Temp_ion =       0.000 K

* Maximum dynamic memory allocated =     3 MB

siesta: Program's energy decomposition (eV):
siesta: Eions   =       815.854478
siesta: Ena     =       175.154321
siesta: Ekin    =       350.759845
siesta: Enl     =       -61.952785
siesta: DEna    =        -1.763814
siesta: DUscf   =         0.727544
siesta: DUext   =         0.000000
siesta: Exc     =      -112.910418
siesta: eta*DQ  =         0.000000
siesta: Emadel  =         0.000000
siesta: Emeta   =         0.000000
siesta: Emolmec =         0.000000
siesta: Ekinion =         0.000000
siesta: Eharris =      -465.840650
siesta: Etot    =      -465.839786
siesta: FreeEng =      -465.839786

siesta: Final energy (eV):
siesta:       Kinetic =     350.759845
siesta:       Hartree =     382.606365
siesta:    Ext. field =       0.000000
siesta:   Exch.-corr. =    -112.910418
siesta:  Ion-electron =   -1072.789707
siesta:       Ion-ion =     -13.505871
siesta:       Ekinion =       0.000000
siesta:         Total =    -465.839786

siesta: Atomic forces (eV/Ang):
siesta:      1    0.000010   -0.506903   -0.000032
siesta:      2    0.720106    0.282120    0.000026
siesta:      3   -0.720104    0.282132    0.000009
siesta: ----------------------------------------
siesta:    Tot    0.000013    0.057349    0.000004

siesta: Stress tensor (static) (eV/Ang**3):
siesta:    -0.012626    0.000000    0.000000
siesta:     0.000000   -0.002311    0.000000
siesta:     0.000000    0.000000    0.013996

siesta: Cell volume =        235.378012 Ang**3

siesta: Pressure (static):
siesta:                Solid            Molecule  Units
siesta:           0.00000342         -0.00001815  Ry/Bohr**3
siesta:           0.00031377         -0.00166671  eV/Ang**3
siesta:           0.50271857         -2.67039955  kBar

siesta: Electric dipole (a.u.)  =    0.000000    0.558908   -0.000003
siesta: Electric dipole (Debye) =   -0.000001    1.420603   -0.000008

* Maximum dynamic memory allocated : Node    0 =     3 MB

* Maximum memory occured during MATEL                         

timer: CPU execution times:
timer:  Routine       Calls   Time/call    Tot.time        %
timer:  siesta            1       5.186       5.186   100.00
timer:  Setup             1       0.573       0.573    11.05
timer:  bands             1       0.000       0.000     0.00
timer:  writewave         1       0.000       0.000     0.00
timer:  KSV_init          1       0.000       0.000     0.00
timer:  IterMD            1       4.609       4.609    88.88
timer:  hsparse           2       0.002       0.004     0.08
timer:  overfsm           2       0.355       0.711    13.71
timer:  IterSCF          24       0.162       3.893    75.07
timer:  kinefsm           2       0.339       0.679    13.09
timer:  nlefsm            2       0.993       1.986    38.29
timer:  DHSCF            24       0.047       1.120    21.59
timer:  DHSCF1            1       0.037       0.037     0.71
timer:  DHSCF2            1       0.078       0.078     1.50
timer:  REORD           194       0.000       0.031     0.60
timer:  POISON           25       0.009       0.213     4.11
timer:  DHSCF3           24       0.039       0.930    17.93
timer:  rhoofd           24       0.008       0.192     3.70
timer:  cellXC           24       0.008       0.195     3.76
timer:  vmat             24       0.010       0.241     4.65
timer:  gradient        367       0.000       0.026     0.50
timer:  ener3           344       0.000       0.033     0.64
timer:  denmat           23       0.000       0.000     0.00
timer:  MolMec            2       0.000       0.000     0.00
timer:  DHSCF4            1       0.071       0.071     1.37
timer:  dfscf             1       0.062       0.062     1.20
timer:  optical           1       0.000       0.000     0.00
  

elaps: ELAPSED times:
elaps:  Routine       Calls   Time/call    Tot.time        %
elaps:  siesta            1       5.185       5.185    99.99
elaps:  Setup             1       0.572       0.572    11.04
elaps:  bands             1       0.000       0.000     0.00
elaps:  writewave         1       0.000       0.000     0.00
elaps:  KSV_init          1       0.000       0.000     0.00
elaps:  IterMD            1       4.609       4.609    88.88
elaps:  hsparse           2       0.002       0.004     0.08
elaps:  overfsm           2       0.355       0.710    13.70
elaps:  IterSCF          24       0.162       3.892    75.06
elaps:  kinefsm           2       0.339       0.679    13.08
elaps:  nlefsm            2       0.993       1.986    38.29
elaps:  DHSCF            24       0.047       1.118    21.57
elaps:  DHSCF1            1       0.037       0.037     0.71
elaps:  DHSCF2            1       0.078       0.078     1.50
elaps:  REORD           194       0.000       0.018     0.35
elaps:  POISON           25       0.009       0.218     4.19
elaps:  DHSCF3           24       0.039       0.929    17.91
elaps:  rhoofd           24       0.008       0.191     3.69
elaps:  cellXC           24       0.008       0.199     3.85
elaps:  vmat             24       0.010       0.239     4.61
elaps:  gradient        367       0.000       0.023     0.45
elaps:  ener3           344       0.000       0.033     0.64
elaps:  denmat           23       0.000       0.002     0.04
elaps:  MolMec            2       0.000       0.000     0.00
elaps:  DHSCF4            1       0.072       0.072     1.38
elaps:  dfscf             1       0.062       0.062     1.20
elaps:  optical           1       0.000       0.000     0.00
  
>> End of run:  25-JAN-2007  17:37:06
