Siesta Version (Arch framework):
agarcia@siesta.arch--2005/siesta-devel--agarcia--1.5--patch-11
Architecture  : powerpc-apple-darwin8.3.0--Xlf
Compiler flags: xlf95 -g  -O2 -qarch=auto -qtune=auto -qcache=auto -qnolm
SERIAL version

* Running in serial mode
>> Start of run:   7-DEC-2005  13:23:20

                           ***********************       
                           *  WELCOME TO SIESTA  *       
                           ***********************       

reinit: Reading from standard input
************************** Dump of input data file ****************************
SystemName          Water molecule Broyden Optimization
SystemLabel         h2o_op_broyden
NumberOfAtoms       3
NumberOfSpecies     2
MeshCutoff  50 Ry
%block ChemicalSpeciesLabel
 1  8  O      # Species index, atomic number, species label
 2  1  H
%endblock ChemicalSpeciesLabel
AtomicCoordinatesFormat  Ang
%block AtomicCoordinatesAndAtomicSpecies
 0.000  0.000  0.000  1
 0.757  0.586  0.000  2
-0.757  0.586  0.000  2
%endblock AtomicCoordinatesAndAtomicSpecies
DM.Number.Pulay 3
MD.TypeOfRun CG
MD.NumCGSteps 20
WriteForces T
Optim.Broyden T               # Broyden Optimization
Optim.Number.Broyden 6
Optim.Broyden.Initial.Mixing 1.0
************************** End of input data file *****************************

reinit: -----------------------------------------------------------------------
reinit: System Name: Water molecule Broyden Optimization                        
reinit: -----------------------------------------------------------------------
reinit: System Label: h2o_op_broyden      
reinit: -----------------------------------------------------------------------

initatom: Reading input for the pseudopotentials and atomic orbitals ----------
 Species number:  1  Label: O Atomic number: 8
 Species number:  2  Label: H Atomic number: 1
Ground state valence configuration:   2s02  2p04
Reading pseudopotential information in formatted form from O.psf
Ground state valence configuration:   1s01
Reading pseudopotential information in formatted form from H.psf
For O, standard SIESTA heuristics set lmxkb to 3
 (one more than the basis l, including polarization orbitals).
Use PS.lmax or PS.KBprojectors blocks to override.
For H, standard SIESTA heuristics set lmxkb to 2
 (one more than the basis l, including polarization orbitals).
Use PS.lmax or PS.KBprojectors blocks to override.

<basis_specs>
===============================================================================
O                    Z=   8    Mass=  16.000        Charge=  0.0000    
Lmxo=1 Lmxkb=3     BasisType=split      Semic=F
L=0  Nsemic=0  Cnfigmx=2
          n=1  nzeta=2  polorb=0
               vcte:    0.0000    
               rinn:    0.0000    
                rcs:    0.0000      0.0000    
            lambdas:    1.0000      1.0000    
L=1  Nsemic=0  Cnfigmx=2
          n=1  nzeta=2  polorb=1
               vcte:    0.0000    
               rinn:    0.0000    
                rcs:    0.0000      0.0000    
            lambdas:    1.0000      1.0000    
-------------------------------------------------------------------------------
L=0  Nkbl=1  erefs: 0.17977+309
L=1  Nkbl=1  erefs: 0.17977+309
L=2  Nkbl=1  erefs: 0.17977+309
L=3  Nkbl=1  erefs: 0.17977+309
===============================================================================
</basis_specs>

atom: Called for O   (Z =   8)

read_vps: Pseudopotential generation method:
read_vps: ATM3      Troullier-Martins                       

read_vps: Valence configuration (pseudopotential and basis set generation):
2s( 2.00) rc: 1.14
2p( 4.00) rc: 1.14
3d( 0.00) rc: 1.14
4f( 0.00) rc: 1.14
Total valence charge:    6.00000

xc_check: Exchange-correlation functional:
xc_check: Ceperley-Alder
V l=0 = -2*Zval/r beyond r=  1.1278
V l=1 = -2*Zval/r beyond r=  1.1278
V l=2 = -2*Zval/r beyond r=  1.1278
V l=3 = -2*Zval/r beyond r=  1.1138
All V_l potentials equal beyond r=  1.1278
This should be close to max(r_c) in ps generation
All pots = -2*Zval/r beyond r=  1.1278

VLOCAL1: 99.0% of the norm of Vloc inside     34.126 Ry
VLOCAL1: 99.9% of the norm of Vloc inside     77.774 Ry
atom: Maximum radius for 4*pi*r*r*local-pseudopot. charge    1.37759
atom: Maximum radius for r*vlocal+2*Zval:    1.18566
GHOST: No ghost state for L =  0
GHOST: No ghost state for L =  1
GHOST: No ghost state for L =  2
GHOST: No ghost state for L =  3

KBgen: Kleinman-Bylander projectors: 
   l= 0   rc=  1.294105   el= -1.742414   Ekb=  9.135903   kbcos=  0.326910
   l= 1   rc=  1.294105   el= -0.676589   Ekb= -8.124878   kbcos= -0.395047
   l= 2   rc=  1.448233   el=  0.002386   Ekb= -2.039267   kbcos= -0.003484
   l= 3   rc=  1.561052   el=  0.003508   Ekb= -0.799141   kbcos= -0.000344

KBgen: Total number of  Kleinman-Bylander projectors:   16
atom: -------------------------------------------------------------------------

atom: SANKEY-TYPE ORBITALS:
atom: Selected multiple-zeta basis: split     

SPLIT: Orbitals with angular momentum L= 0

SPLIT: Basis orbitals for state 2s

SPLIT: PAO cut-off radius determinated from an
SPLIT: energy shift=  0.020000 Ry

   izeta = 1
                 lambda =    1.000000
                     rc =    3.305093
                 energy =   -1.723766
                kinetic =    1.614911
    potential(screened) =   -3.338677
       potential(ionic) =  -11.304675

   izeta = 2
                 rmatch =    2.510382
              splitnorm =    0.150000
                 energy =   -1.471081
                kinetic =    2.446738
    potential(screened) =   -3.917818
       potential(ionic) =  -12.476310

SPLIT: Orbitals with angular momentum L= 1

SPLIT: Basis orbitals for state 2p

SPLIT: PAO cut-off radius determinated from an
SPLIT: energy shift=  0.020000 Ry

   izeta = 1
                 lambda =    1.000000
                     rc =    3.937239
                 energy =   -0.658841
                kinetic =    5.005986
    potential(screened) =   -5.664827
       potential(ionic) =  -13.452360

   izeta = 2
                 rmatch =    2.541963
              splitnorm =    0.150000
                 energy =   -0.367387
                kinetic =    7.530138
    potential(screened) =   -7.897525
       potential(ionic) =  -16.611418

POLgen: Perturbative polarization orbital with L=  2

POLgen: Polarization orbital for state 2p

   izeta = 1
                     rc =    3.937239
                 energy =    2.398520
                kinetic =    4.716729
    potential(screened) =   -2.318209
       potential(ionic) =   -8.603170
atom: Total number of Sankey-type orbitals: 13

atm_pop: Valence configuration(local Pseudopot. screening):
 2s( 2.00)                                                            
 2p( 4.00)                                                            
Vna: chval, zval:    6.00000   6.00000

Vna:  Cut-off radius for the neutral-atom potential:   3.937239

atom: _________________________________________________________________________

<basis_specs>
===============================================================================
H                    Z=   1    Mass=  1.0100        Charge=  0.0000    
Lmxo=0 Lmxkb=2     BasisType=split      Semic=F
L=0  Nsemic=0  Cnfigmx=1
          n=1  nzeta=2  polorb=1
               vcte:    0.0000    
               rinn:    0.0000    
                rcs:    0.0000      0.0000    
            lambdas:    1.0000      1.0000    
-------------------------------------------------------------------------------
L=0  Nkbl=1  erefs: 0.17977+309
L=1  Nkbl=1  erefs: 0.17977+309
L=2  Nkbl=1  erefs: 0.17977+309
===============================================================================
</basis_specs>

atom: Called for H   (Z =   1)

read_vps: Pseudopotential generation method:
read_vps: ATM3      Troullier-Martins                       

read_vps: Valence configuration (pseudopotential and basis set generation):
1s( 1.00) rc: 1.25
2p( 0.00) rc: 1.25
3d( 0.00) rc: 1.25
Total valence charge:    1.00000

xc_check: Exchange-correlation functional:
xc_check: Ceperley-Alder
V l=0 = -2*Zval/r beyond r=  1.2343
V l=1 = -2*Zval/r beyond r=  1.2189
V l=2 = -2*Zval/r beyond r=  1.2189
All V_l potentials equal beyond r=  1.2343
This should be close to max(r_c) in ps generation
All pots = -2*Zval/r beyond r=  1.2343

VLOCAL1: 99.0% of the norm of Vloc inside     28.493 Ry
VLOCAL1: 99.9% of the norm of Vloc inside     64.935 Ry
atom: Maximum radius for 4*pi*r*r*local-pseudopot. charge    1.45251
atom: Maximum radius for r*vlocal+2*Zval:    1.21892
GHOST: No ghost state for L =  0
GHOST: No ghost state for L =  1
GHOST: No ghost state for L =  2

KBgen: Kleinman-Bylander projectors: 
   l= 0   rc=  1.364359   el= -0.467325   Ekb= -2.005361   kbcos= -0.336422
   l= 1   rc=  1.434438   el=  0.001430   Ekb= -0.501708   kbcos= -0.021697
   l= 2   rc=  1.470814   el=  0.002365   Ekb= -0.190555   kbcos= -0.002281

KBgen: Total number of  Kleinman-Bylander projectors:    9
atom: -------------------------------------------------------------------------

atom: SANKEY-TYPE ORBITALS:
atom: Selected multiple-zeta basis: split     

SPLIT: Orbitals with angular momentum L= 0

SPLIT: Basis orbitals for state 1s

SPLIT: PAO cut-off radius determinated from an
SPLIT: energy shift=  0.020000 Ry

   izeta = 1
                 lambda =    1.000000
                     rc =    4.828263
                 energy =   -0.449375
                kinetic =    0.929372
    potential(screened) =   -1.378747
       potential(ionic) =   -1.915047

   izeta = 2
                 rmatch =    3.854947
              splitnorm =    0.150000
                 energy =   -0.335649
                kinetic =    1.505971
    potential(screened) =   -1.841620
       potential(ionic) =   -2.413776

POLgen: Perturbative polarization orbital with L=  1

POLgen: Polarization orbital for state 1s

   izeta = 1
                     rc =    4.828263
                 energy =    0.706972
                kinetic =    1.396397
    potential(screened) =   -0.689424
       potential(ionic) =   -1.169792
atom: Total number of Sankey-type orbitals:  5

atm_pop: Valence configuration(local Pseudopot. screening):
 1s( 1.00)                                                            
Vna: chval, zval:    1.00000   1.00000

Vna:  Cut-off radius for the neutral-atom potential:   4.828263

atom: _________________________________________________________________________

prinput: Basis input ----------------------------------------------------------

PAO.BasisType split     

%block ChemicalSpeciesLabel
    1    8 O                       # Species index, atomic number, species label
    2    1 H                       # Species index, atomic number, species label
%endblock ChemicalSpeciesLabel

%block PAO.Basis                 # Define Basis set
O           2                    # Species label, number of l-shells
 n=2   0   2                         # n, l, Nzeta 
   3.305      2.510   
   1.000      1.000   
 n=2   1   2 P   1                   # n, l, Nzeta, Polarization, NzetaPol
   3.937      2.542   
   1.000      1.000   
H           1                    # Species label, number of l-shells
 n=1   0   2 P   1                   # n, l, Nzeta, Polarization, NzetaPol
   4.828      3.855   
   1.000      1.000   
%endblock PAO.Basis

prinput: ----------------------------------------------------------------------


siesta: ******************** Simulation parameters ****************************
siesta:
siesta: The following are some of the parameters of the simulation.
siesta: A complete list of the parameters used, including defect values,
siesta: can be found in file out.fdf
siesta:
coor:   Atomic-coordinates input format  =     Cartesian coordinates
coor:                                          (in Angstroms)
redata: Number of spin components        =     1
redata: Long output                      =     F
redata: Number of Atomic Species         =     2
redata: Charge density info will appear in .RHO file
redata: Write Mulliken Pop.              =     NO
redata: Mesh Cutoff                      =    50.0000  Ry
redata: Net charge of the system         =     0.0000 |e|
redata: Max. number of SCF Iter          =    50
redata: One Pulay mixing every           =     3 iterations
redata: Mix DM in first SCF step ?       =     F
redata: Write Pulay info on disk?        =     F
redata: New DM Mixing Weight             =     0.2500
redata: New DM Occupancy tolerance       = 0.000000000001
redata: No kicks to SCF
redata: DM Mixing Weight for Kicks       =     0.5000
redata: DM Tolerance for SCF             =     0.000100
redata: Require Energy convergence for SCF =     F
redata: DM Energy tolerance for SCF      =     0.000100 eV
redata: Using Saved Data (generic)   =     F
redata: Use continuation files for DM    =     F
redata: Neglect nonoverlap interactions  =     F
redata: Method of Calculation            =     Diagonalization
redata: Divide and Conquer               =     T
redata: Electronic Temperature           =     0.0019  Ry
redata: Fix the spin of the system       =     F
redata: Dynamics option                  =     CG coord. optimization
redata: Variable cell                    =     F
redata: Use continuation files for CG    =     F
redata: Maximum number of CG moves       =    20
redata: Max atomic displ per move        =     0.2000  Bohr
redata: Force tolerance                  =     0.0016  Ry/Bohr
redata: Broyden Optimization             = T
redata: ***********************************************************************

siesta: Atomic coordinates (Bohr) and species
siesta:      0.00000   0.00000   0.00000  1        1
siesta:      1.43052   1.10738   0.00000  2        2
siesta:     -1.43052   1.10738   0.00000  2        3

initatomlists: Number of atoms, orbitals, and projectors:         3       23       34

siesta: Automatic unit cell vectors (Ang):
siesta:    7.286412    0.000000    0.000000
siesta:    0.000000    5.746952    0.000000
siesta:    0.000000    0.000000    5.621012

siesta: System type = molecule  

* Maximum dynamic memory allocated =     1 MB

siesta:                 ==============================
                            Begin CG move =      0
                        ==============================

InitMesh: MESH =    32 x    30 x    24 =       23040
InitMesh: Mesh cutoff (required, used) =    50.000    50.384 Ry

* Maximum dynamic memory allocated =     3 MB

stepf: Fermi-Dirac step function

siesta: Program's energy decomposition (eV):
siesta: Eions   =       815.854478
siesta: Ena     =       175.154399
siesta: Ekin    =       341.667405
siesta: Enl     =       -52.736793
siesta: DEna    =        -0.000001
siesta: DUscf   =         0.000000
siesta: DUext   =         0.000000
siesta: Exc     =      -109.951257
siesta: eta*DQ  =         0.000000
siesta: Emadel  =         0.000000
siesta: Ekinion =         0.000000
siesta: Eharris =      -466.430254
siesta: Etot    =      -461.720725
siesta: FreeEng =      -461.720725

siesta: iscf   Eharris(eV)      E_KS(eV)   FreeEng(eV)   dDmax  Ef(eV)
siesta:    1     -466.4303     -461.7207     -461.7207  1.4383 -4.2475
timer: Routine,Calls,Time,% = IterSCF        1       2.610  71.70
elaps: Routine,Calls,Wall,% = IterSCF        1       2.640  71.54
siesta:    2     -466.8703     -465.2425     -465.2425  0.1755 -0.1474
siesta:    3     -465.9098     -465.3164     -465.3164  0.0585 -1.6845
siesta:    4     -465.8391     -465.6126     -465.6126  0.0148 -2.1480
siesta:    5     -465.8389     -465.6644     -465.6644  0.0112 -2.1558
siesta:    6     -465.8387     -465.7913     -465.7913  0.0047 -2.1571
siesta:    7     -465.8387     -465.8123     -465.8123  0.0030 -2.1514
siesta:    8     -465.8387     -465.8286     -465.8286  0.0012 -2.1515
siesta:    9     -465.8387     -465.8375     -465.8375  0.0003 -2.1538
siesta:   10     -465.8387     -465.8379     -465.8379  0.0002 -2.1537
siesta:   11     -465.8387     -465.8381     -465.8381  0.0000 -2.1531

siesta: E_KS(eV) =             -465.8382

siesta: E_KS - E_eggbox =      -465.8382

siesta: Atomic forces (eV/Ang):
     1   -0.000010   -0.504364    0.000000
     2    0.719228    0.279633    0.000000
     3   -0.719228    0.279633    0.000000
----------------------------------------
 Tot   -0.000010    0.054902    0.000000
----------------------------------------
 Max    0.719228
 Res    0.400742    sqrt( Sum f_i^2 / 3N )
----------------------------------------
 Max    0.719228    constrained

Stress-tensor-Voigt (kbar):      -20.22       -3.70       22.43        0.00       -0.00        0.00
Target enthalpy (eV/cell)     -465.8382
 -----optim-----
 optim: max_history for broyden:  6
 optim: cycle on maxit:  T
 optim: variable weight:  F
 optim: initial inverse jacobian:  1.00000000000000000
 -----optim-----
 Broyden_optim: No of elements:  9
 Broyden not setup. No of elements:  9

* Maximum dynamic memory allocated =     3 MB

siesta:                 ==============================
                            Begin CG move =      1
                        ==============================

siesta: iscf   Eharris(eV)      E_KS(eV)   FreeEng(eV)   dDmax  Ef(eV)
siesta:    1     -465.8433     -465.6073     -465.6073  0.0414 -2.0954
siesta:    2     -465.8453     -465.8399     -465.8399  0.0144 -2.3055
siesta:    3     -465.8420     -465.7978     -465.7978  0.0037 -2.2018
siesta:    4     -465.8419     -465.8356     -465.8356  0.0010 -2.1805
siesta:    5     -465.8419     -465.8376     -465.8376  0.0007 -2.1810
siesta:    6     -465.8418     -465.8415     -465.8415  0.0000 -2.1822

siesta: E_KS(eV) =             -465.8416

siesta: Atomic forces (eV/Ang):
     1    0.000052    1.264644    0.000001
     2   -0.179433   -0.342639    0.000000
     3    0.179421   -0.342631    0.000000
----------------------------------------
 Tot    0.000040    0.579373    0.000001
----------------------------------------
 Max    1.264644
 Res    0.459288    sqrt( Sum f_i^2 / 3N )
----------------------------------------
 Max    1.264644    constrained

Stress-tensor-Voigt (kbar):      -11.31        1.54       22.72        0.00        0.00       -0.00
Target enthalpy (eV/cell)     -465.8416

* Maximum dynamic memory allocated =     3 MB

siesta:                 ==============================
                            Begin CG move =      2
                        ==============================

siesta: iscf   Eharris(eV)      E_KS(eV)   FreeEng(eV)   dDmax  Ef(eV)
siesta:    1     -465.8511     -465.9485     -465.9485  0.0227 -2.1707
siesta:    2     -465.8521     -465.8494     -465.8494  0.0099 -2.0127
siesta:    3     -465.8505     -465.8717     -465.8717  0.0035 -2.0915
siesta:    4     -465.8504     -465.8519     -465.8519  0.0006 -2.1044
siesta:    5     -465.8504     -465.8514     -465.8514  0.0004 -2.1046
siesta:    6     -465.8504     -465.8504     -465.8504  0.0000 -2.1047

siesta: E_KS(eV) =             -465.8504

siesta: Atomic forces (eV/Ang):
     1   -0.000070   -0.030921    0.000033
     2    0.161583   -0.005744    0.000001
     3   -0.161557   -0.005763    0.000001
----------------------------------------
 Tot   -0.000044   -0.042428    0.000035
----------------------------------------
 Max    0.161583
 Res    0.076907    sqrt( Sum f_i^2 / 3N )
----------------------------------------
 Max    0.161583    constrained

Stress-tensor-Voigt (kbar):      -14.90       -1.45       22.55       -0.00        0.00        0.00
Target enthalpy (eV/cell)     -465.8504

* Maximum dynamic memory allocated =     3 MB

siesta:                 ==============================
                            Begin CG move =      3
                        ==============================

siesta: iscf   Eharris(eV)      E_KS(eV)   FreeEng(eV)   dDmax  Ef(eV)
siesta:    1     -465.8513     -465.8242     -465.8242  0.0064 -2.0805
siesta:    2     -465.8512     -465.8512     -465.8512  0.0005 -2.0764
siesta:    3     -465.8512     -465.8501     -465.8501  0.0003 -2.0774
siesta:    4     -465.8512     -465.8510     -465.8510  0.0001 -2.0789

siesta: E_KS(eV) =             -465.8511

siesta: Atomic forces (eV/Ang):
     1    0.000334   -0.025182    0.000194
     2    0.028432   -0.045805    0.000000
     3   -0.028573   -0.045700   -0.000001
----------------------------------------
 Tot    0.000193   -0.116687    0.000193
----------------------------------------
 Max    0.045805
 Res    0.026762    sqrt( Sum f_i^2 / 3N )
----------------------------------------
 Max    0.045805    constrained

Stress-tensor-Voigt (kbar):      -13.62       -1.14       22.56        0.00       -0.00       -0.00
Target enthalpy (eV/cell)     -465.8511

* Maximum dynamic memory allocated =     3 MB

siesta:                 ==============================
                            Begin CG move =      4
                        ==============================

siesta: iscf   Eharris(eV)      E_KS(eV)   FreeEng(eV)   dDmax  Ef(eV)
siesta:    1     -465.8509     -465.8259     -465.8259  0.0045 -2.0694
siesta:    2     -465.8510     -465.8509     -465.8509  0.0014 -2.0910
siesta:    3     -465.8509     -465.8466     -465.8466  0.0004 -2.0808
siesta:    4     -465.8510     -465.8503     -465.8503  0.0001 -2.0786
siesta:    5     -465.8509     -465.8505     -465.8505  0.0001 -2.0787

siesta: E_KS(eV) =             -465.8509

siesta: Atomic forces (eV/Ang):
     1   -0.006396    0.368838    0.003700
     2   -0.070302   -0.107255   -0.000005
     3    0.073088   -0.109290   -0.000007
----------------------------------------
 Tot   -0.003609    0.152293    0.003688
----------------------------------------
 Max    0.368838
 Res    0.137368    sqrt( Sum f_i^2 / 3N )
----------------------------------------
 Max    0.368838    constrained

Stress-tensor-Voigt (kbar):      -12.64       -0.60       22.59       -0.01       -0.00        0.00
Target enthalpy (eV/cell)     -465.8509

* Maximum dynamic memory allocated =     3 MB

siesta:                 ==============================
                            Begin CG move =      5
                        ==============================

siesta: iscf   Eharris(eV)      E_KS(eV)   FreeEng(eV)   dDmax  Ef(eV)
siesta:    1     -465.8518     -465.8739     -465.8739  0.0060 -2.0697
siesta:    2     -465.8518     -465.8516     -465.8516  0.0031 -2.0205
siesta:    3     -465.8517     -465.8565     -465.8565  0.0012 -2.0450
siesta:    4     -465.8517     -465.8519     -465.8519  0.0001 -2.0491
siesta:    5     -465.8517     -465.8518     -465.8518  0.0001 -2.0491

siesta: E_KS(eV) =             -465.8517

siesta: Atomic forces (eV/Ang):
     1    0.025856    0.061183    0.022120
     2   -0.014375   -0.020666   -0.000062
     3    0.003520   -0.012780   -0.000062
----------------------------------------
 Tot    0.015001    0.027738    0.021997
----------------------------------------
 Max    0.061183
 Res    0.025190    sqrt( Sum f_i^2 / 3N )
----------------------------------------
 Max    0.061183    constrained

Stress-tensor-Voigt (kbar):      -13.34       -1.34       22.54        0.04       -0.00       -0.00
Target enthalpy (eV/cell)     -465.8517

* Maximum dynamic memory allocated =     3 MB

siesta:                 ==============================
                            Begin CG move =      6
                        ==============================

siesta: iscf   Eharris(eV)      E_KS(eV)   FreeEng(eV)   dDmax  Ef(eV)
siesta:    1     -465.8517     -465.8515     -465.8515  0.0002 -2.0483
siesta:    2     -465.8517     -465.8517     -465.8517  0.0001 -2.0466

siesta: E_KS(eV) =             -465.8517

siesta: Atomic forces (eV/Ang):
     1    0.006597    0.050367    0.035439
     2   -0.012475   -0.016104    0.000072
     3    0.009716   -0.013817    0.000070
----------------------------------------
 Tot    0.003838    0.020446    0.035581
----------------------------------------
 Max    0.050367
 Res    0.022451    sqrt( Sum f_i^2 / 3N )
----------------------------------------
 Max    0.050367    constrained

Stress-tensor-Voigt (kbar):      -13.32       -1.36       22.54        0.01       -0.00        0.00
Target enthalpy (eV/cell)     -465.8517

* Maximum dynamic memory allocated =     3 MB

siesta:                 ==============================
                            Begin CG move =      7
                        ==============================

siesta: iscf   Eharris(eV)      E_KS(eV)   FreeEng(eV)   dDmax  Ef(eV)
siesta:    1     -465.8517     -465.8548     -465.8548  0.0007 -2.0470
siesta:    2     -465.8517     -465.8517     -465.8517  0.0003 -2.0421
siesta:    3     -465.8517     -465.8523     -465.8523  0.0001 -2.0444
siesta:    4     -465.8517     -465.8518     -465.8518  0.0000 -2.0449

siesta: E_KS(eV) =             -465.8517

siesta: Atomic forces (eV/Ang):
     1    0.000670   -0.000838    0.001409
     2   -0.001407   -0.004176   -0.000042
     3    0.000994   -0.003873   -0.000042
----------------------------------------
 Tot    0.000258   -0.008887    0.001326
----------------------------------------
 Max    0.004176
 Res    0.002070    sqrt( Sum f_i^2 / 3N )
----------------------------------------
 Max    0.004176    constrained

Stress-tensor-Voigt (kbar):      -13.43       -1.45       22.54        0.00        0.00       -0.00
Target enthalpy (eV/cell)     -465.8517

* Maximum dynamic memory allocated =     3 MB

outcoor: Relaxed atomic coordinates (Ang):                  
   -0.00000249    0.00081971    0.00000901   1  O          1
    0.77773382    0.58046959   -0.00000113   2  H          2
   -0.77773018    0.58046471   -0.00000132   2  H          3

siesta: Eigenvalues (eV):
  ik is    eps
   1  1 -24.54 -12.66  -8.58  -6.17   1.56   3.95   9.75  11.50  12.28  13.15
         14.53  21.47  23.91  27.31  28.74  31.79  42.57  42.61  45.75  48.42
         49.80  69.95  95.90
siesta: Fermi energy =      -2.044928 eV

siesta: Program's energy decomposition (eV):
siesta: Eions   =       815.854478
siesta: Ena     =       175.063847
siesta: Ekin    =       349.647663
siesta: Enl     =       -61.494543
siesta: DEna    =        -1.326908
siesta: DUscf   =         0.729868
siesta: DUext   =         0.000000
siesta: Exc     =      -112.617195
siesta: eta*DQ  =         0.000000
siesta: Emadel  =         0.000000
siesta: Ekinion =         0.000000
siesta: Eharris =      -465.851743
siesta: Etot    =      -465.851747
siesta: FreeEng =      -465.851747

siesta: Final energy (eV):
siesta:       Kinetic =     349.647663
siesta:       Hartree =     380.770895
siesta:    Ext. field =       0.000000
siesta:   Exch.-corr. =    -112.617195
siesta:  Ion-electron =   -1067.543944
siesta:       Ion-ion =     -16.109166
siesta:       Ekinion =       0.000000
siesta:         Total =    -465.851747

siesta: Stress tensor (static) (eV/Ang**3):
siesta:    -0.008380    0.000001   -0.000000
siesta:     0.000001   -0.000904    0.000000
siesta:    -0.000000    0.000000    0.014066

siesta: Cell volume =        235.378012 Ang**3

siesta: Pressure (static):
siesta:                Solid            Molecule  Units
siesta:          -0.00001736         -0.00001731  Ry/Bohr**3
siesta:          -0.00159394         -0.00158955  eV/Ang**3
siesta:          -2.55380357         -2.54677214  kBar

siesta: Electric dipole (a.u.)  =    0.000005    0.550513    0.000000
siesta: Electric dipole (Debye) =    0.000013    1.399265    0.000001

* Maximum dynamic memory allocated : Node    0 =     3 MB

* Maximum memory occured during MATEL                         

timer: CPU execution times:
timer:  Routine       Calls   Time/call    Tot.time        %
timer:  siesta            1       6.070       6.070   100.00
timer:  Setup             1       0.370       0.370     6.10
timer:  bands             1       0.000       0.000     0.00
timer:  writewave         1       0.000       0.000     0.00
timer:  KSV_init          1       0.000       0.000     0.00
timer:  IterMD            8       0.712       5.700    93.90
timer:  hsparse           9       0.002       0.020     0.33
timer:  overfsm          16       0.042       0.680    11.20
timer:  IterSCF          51       0.098       4.980    82.04
timer:  kinefsm          16       0.041       0.660    10.87
timer:  nlefsm           16       0.121       1.940    31.96
timer:  DHSCF            51       0.044       2.260    37.23
timer:  DHSCF1            1       0.020       0.020     0.33
timer:  DHSCF2            8       0.046       0.370     6.10
timer:  REORD           424       0.000       0.020     0.33
timer:  POISON           59       0.004       0.250     4.12
timer:  DHSCF3           51       0.027       1.360    22.41
timer:  rhoofd           51       0.008       0.410     6.75
timer:  cellXC           51       0.006       0.310     5.11
timer:  vmat             51       0.005       0.250     4.12
timer:  diagon           43       0.001       0.030     0.49
timer:  rdiag            43       0.000       0.020     0.33
timer:  rdiag1           43       0.000       0.010     0.16
timer:  rdiag2           43       0.000       0.000     0.00
timer:  rdiag3           43       0.000       0.010     0.16
timer:  rdiag4           43       0.000       0.000     0.00
timer:  DHSCF4            8       0.062       0.500     8.24
timer:  dfscf             8       0.054       0.430     7.08
timer:  optical           1       0.000       0.000     0.00
  

elaps: ELAPSED times:
elaps:  Routine       Calls   Time/call    Tot.time        %
elaps:  siesta            1       7.080       7.080   100.00
elaps:  Setup             1       0.380       0.380     5.37
elaps:  bands             1       0.000       0.000     0.00
elaps:  writewave         1       0.000       0.000     0.00
elaps:  KSV_init          1       0.000       0.000     0.00
elaps:  IterMD            8       0.836       6.690    94.49
elaps:  hsparse           9       0.004       0.040     0.56
elaps:  overfsm          16       0.047       0.750    10.59
elaps:  IterSCF          51       0.117       5.950    84.04
elaps:  kinefsm          16       0.041       0.650     9.18
elaps:  nlefsm           16       0.126       2.010    28.39
elaps:  DHSCF            51       0.061       3.130    44.21
elaps:  DHSCF1            1       0.030       0.030     0.42
elaps:  DHSCF2            8       0.061       0.490     6.92
elaps:  REORD           424       0.000       0.020     0.28
elaps:  POISON           59       0.005       0.320     4.52
elaps:  DHSCF3           51       0.037       1.880    26.55
elaps:  rhoofd           51       0.009       0.470     6.64
elaps:  cellXC           51       0.012       0.610     8.62
elaps:  vmat             51       0.006       0.330     4.66
elaps:  diagon           43       0.001       0.040     0.56
elaps:  rdiag            43       0.001       0.040     0.56
elaps:  rdiag1           43       0.000       0.010     0.14
elaps:  rdiag2           43       0.000       0.000     0.00
elaps:  rdiag3           43       0.001       0.030     0.42
elaps:  rdiag4           43       0.000       0.000     0.00
elaps:  DHSCF4            8       0.085       0.680     9.60
elaps:  dfscf             8       0.075       0.600     8.47
elaps:  optical           1       0.000       0.000     0.00
  
>> End of run:   7-DEC-2005  13:23:27
