Siesta Version:                                        siesta-trunk-300
Architecture  : nano-intel-mpi
Compiler flags: /opt/intel/impi/3.1/bin64/mpiifort -w  -O3 -mp
PARALLEL version
NetCDF support

* Running on    4 nodes in parallel
>> Start of run:  29-SEP-2009  17:08:55

                           ***********************       
                           *  WELCOME TO SIESTA  *       
                           ***********************       

reinit: Reading from standard input
************************** Dump of input data file ****************************
SystemName          Water molecule -- pseudopotential reparametrization
SystemLabel         h2o_reparam
NumberOfAtoms       3
NumberOfSpecies     2
MeshCutoff  50 Ry
%block ChemicalSpeciesLabel
 1  8  O      # Species index, atomic number, species label
 2  1  H
%endblock ChemicalSpeciesLabel
Reparametrize.Pseudos  T       # Use a finer grid
AtomicCoordinatesFormat  Ang
%block AtomicCoordinatesAndAtomicSpecies
 0.000  0.000  0.000  1
 0.757  0.586  0.000  2
-0.757  0.586  0.000  2
%endblock AtomicCoordinatesAndAtomicSpecies
save-rho T
save-delta-rho T
save-total-potential T
save-hs T
************************** End of input data file *****************************

reinit: -----------------------------------------------------------------------
reinit: System Name: Water molecule -- pseudopotential reparametrization
reinit: -----------------------------------------------------------------------
reinit: System Label: h2o_reparam                                                 
reinit: -----------------------------------------------------------------------

initatom: Reading input for the pseudopotentials and atomic orbitals ----------
 Species number:            1  Label: O Atomic number:           8
 Species number:            2  Label: H Atomic number:           1
Ground state valence configuration:   2s02  2p04
Reading pseudopotential information in formatted form from O.psf

Valence configuration for pseudopotential generation:
2s( 2.00) rc: 1.14
2p( 4.00) rc: 1.14
3d( 0.00) rc: 1.14
4f( 0.00) rc: 1.14
 Reparametrization. rmax:    119.468873521000     
 Reparametrization. New nrval:         5122
Writing pseudopotential information in formatted form to O.Reparam.psf
Ground state valence configuration:   1s01
Reading pseudopotential information in formatted form from H.psf

Valence configuration for pseudopotential generation:
1s( 1.00) rc: 1.25
2p( 0.00) rc: 1.25
3d( 0.00) rc: 1.25
4f( 0.00) rc: 1.25
 Reparametrization. rmax:    119.998512118000     
 Reparametrization. New nrval:         5130
Writing pseudopotential information in formatted form to H.Reparam.psf
For O, standard SIESTA heuristics set lmxkb to 3
 (one more than the basis l, including polarization orbitals).
Use PS.lmax or PS.KBprojectors blocks to override.
For H, standard SIESTA heuristics set lmxkb to 2
 (one more than the basis l, including polarization orbitals).
Use PS.lmax or PS.KBprojectors blocks to override.

<basis_specs>
===============================================================================
O                    Z=   8    Mass=  16.000        Charge= 0.17977+309
Lmxo=1 Lmxkb=3     BasisType=split      Semic=F
L=0  Nsemic=0  Cnfigmx=2
          n=1  nzeta=2  polorb=0
            splnorm:   0.15000    
               vcte:    0.0000    
               rinn:    0.0000    
                rcs:    0.0000      0.0000    
            lambdas:    1.0000      1.0000    
L=1  Nsemic=0  Cnfigmx=2
          n=1  nzeta=2  polorb=1
            splnorm:   0.15000    
               vcte:    0.0000    
               rinn:    0.0000    
                rcs:    0.0000      0.0000    
            lambdas:    1.0000      1.0000    
-------------------------------------------------------------------------------
L=0  Nkbl=1  erefs: 0.17977+309
L=1  Nkbl=1  erefs: 0.17977+309
L=2  Nkbl=1  erefs: 0.17977+309
L=3  Nkbl=1  erefs: 0.17977+309
===============================================================================
</basis_specs>

atom: Called for O                     (Z =   8)
Maximum radius (at nrval) set to   50.00000 3585

read_vps: Pseudopotential generation method:
read_vps: ATM3      Troullier-Martins                       
Total valence charge:    6.00000

xc_check: Exchange-correlation functional:
xc_check: Ceperley-Alder
V l=0 = -2*Zval/r beyond r=  1.1349
V l=1 = -2*Zval/r beyond r=  1.1293
V l=2 = -2*Zval/r beyond r=  1.1293
V l=3 = -2*Zval/r beyond r=  1.1238
All V_l potentials equal beyond r=  1.1349
This should be close to max(r_c) in ps generation
All pots = -2*Zval/r beyond r=  1.1349

VLOCAL1: 99.0% of the norm of Vloc inside     33.701 Ry
VLOCAL1: 99.9% of the norm of Vloc inside     76.806 Ry
atom: Maximum radius for 4*pi*r*r*local-pseudopot. charge    1.37121
atom: Maximum radius for r*vlocal+2*Zval:    1.18513
GHOST: No ghost state for L =  0
GHOST: No ghost state for L =  1
GHOST: No ghost state for L =  2
GHOST: No ghost state for L =  3

KBgen: Kleinman-Bylander projectors: 
   l= 0   rc=  1.297541   el= -1.742455   Ekb=  9.081326   kbcos=  0.325456
   l= 1   rc=  1.286249   el= -0.676589   Ekb= -8.189268   kbcos= -0.395937
   l= 2   rc=  1.474017   el=  0.013263   Ekb= -2.069235   kbcos= -0.003701
   l= 3   rc=  1.543068   el=  0.019519   Ekb= -0.815778   kbcos= -0.000372

KBgen: Total number of  Kleinman-Bylander projectors:   16
atom: -------------------------------------------------------------------------

atom: SANKEY-TYPE ORBITALS:
atom: Selected multiple-zeta basis: split     

SPLIT: Orbitals with angular momentum L= 0

SPLIT: Basis orbitals for state 2s

SPLIT: PAO cut-off radius determined from an
SPLIT: energy shift=  0.020000 Ry

   izeta = 1
                 lambda =    1.000000
                     rc =    3.284329
                 energy =   -1.722727
                kinetic =    1.618910
    potential(screened) =   -3.341637
       potential(ionic) =  -11.311212

   izeta = 2
                 rmatch =    2.516967
              splitnorm =    0.150000
                 energy =   -1.460856
                kinetic =    2.467849
    potential(screened) =   -3.928705
       potential(ionic) =  -12.497728

SPLIT: Orbitals with angular momentum L= 1

SPLIT: Basis orbitals for state 2p

SPLIT: PAO cut-off radius determined from an
SPLIT: energy shift=  0.020000 Ry

   izeta = 1
                 lambda =    1.000000
                     rc =    3.868015
                 energy =   -0.656679
                kinetic =    5.030777
    potential(screened) =   -5.687456
       potential(ionic) =  -13.489167

   izeta = 2
                 rmatch =    2.542026
              splitnorm =    0.150000
                 energy =   -0.367441
                kinetic =    7.530088
    potential(screened) =   -7.897529
       potential(ionic) =  -16.611439

POLgen: Perturbative polarization orbital with L=  2

POLgen: Polarization orbital for state 2p

   izeta = 1
                     rc =    3.868015
                 energy =    1.680644
                kinetic =    2.940156
    potential(screened) =   -1.259511
       potential(ionic) =   -6.674569
atom: Total number of Sankey-type orbitals: 13

atm_pop: Valence configuration (for local Pseudopot. screening):
 2s( 2.00)                                                            
 2p( 4.00)                                                            
Vna: chval, zval:    6.00000   6.00000

Vna:  Cut-off radius for the neutral-atom potential:   3.868015

atom: _________________________________________________________________________

<basis_specs>
===============================================================================
H                    Z=   1    Mass=  1.0100        Charge= 0.17977+309
Lmxo=0 Lmxkb=2     BasisType=split      Semic=F
L=0  Nsemic=0  Cnfigmx=1
          n=1  nzeta=2  polorb=1
            splnorm:   0.15000    
               vcte:    0.0000    
               rinn:    0.0000    
                rcs:    0.0000      0.0000    
            lambdas:    1.0000      1.0000    
-------------------------------------------------------------------------------
L=0  Nkbl=1  erefs: 0.17977+309
L=1  Nkbl=1  erefs: 0.17977+309
L=2  Nkbl=1  erefs: 0.17977+309
===============================================================================
</basis_specs>

atom: Called for H                     (Z =   1)
Maximum radius (at nrval) set to   50.00000 3585

read_vps: Pseudopotential generation method:
read_vps: ATM3      Troullier-Martins                       
Total valence charge:    1.00000

xc_check: Exchange-correlation functional:
xc_check: Ceperley-Alder
V l=0 = -2*Zval/r beyond r=  1.2356
V l=1 = -2*Zval/r beyond r=  1.2300
V l=2 = -2*Zval/r beyond r=  1.2243
All V_l potentials equal beyond r=  1.2356
This should be close to max(r_c) in ps generation
All pots = -2*Zval/r beyond r=  1.2356

VLOCAL1: 99.0% of the norm of Vloc inside     28.433 Ry
VLOCAL1: 99.9% of the norm of Vloc inside     64.800 Ry
atom: Maximum radius for 4*pi*r*r*local-pseudopot. charge    1.44537
atom: Maximum radius for r*vlocal+2*Zval:    1.22435
GHOST: No ghost state for L =  0
GHOST: No ghost state for L =  1
GHOST: No ghost state for L =  2

KBgen: Kleinman-Bylander projectors: 
   l= 0   rc=  1.365530   el= -0.467333   Ekb= -2.007240   kbcos= -0.336569
   l= 1   rc=  1.433928   el=  0.007540   Ekb= -0.502653   kbcos= -0.022566
   l= 2   rc=  1.502738   el=  0.013242   Ekb= -0.191097   kbcos= -0.002434

KBgen: Total number of  Kleinman-Bylander projectors:    9
atom: -------------------------------------------------------------------------

atom: SANKEY-TYPE ORBITALS:
atom: Selected multiple-zeta basis: split     

SPLIT: Orbitals with angular momentum L= 0

SPLIT: Basis orbitals for state 1s

SPLIT: PAO cut-off radius determined from an
SPLIT: energy shift=  0.020000 Ry

   izeta = 1
                 lambda =    1.000000
                     rc =    4.755046
                 energy =   -0.447613
                kinetic =    0.937439
    potential(screened) =   -1.385053
       potential(ionic) =   -1.922119

   izeta = 2
                 rmatch =    3.854154
              splitnorm =    0.150000
                 energy =   -0.335987
                kinetic =    1.505683
    potential(screened) =   -1.841670
       potential(ionic) =   -2.413824

POLgen: Perturbative polarization orbital with L=  1

POLgen: Polarization orbital for state 1s

   izeta = 1
                     rc =    4.755046
                 energy =    0.519920
                kinetic =    1.016487
    potential(screened) =   -0.496567
       potential(ionic) =   -0.945381
atom: Total number of Sankey-type orbitals:  5

atm_pop: Valence configuration (for local Pseudopot. screening):
 1s( 1.00)                                                            
Vna: chval, zval:    1.00000   1.00000

Vna:  Cut-off radius for the neutral-atom potential:   4.755046

atom: _________________________________________________________________________

prinput: Basis input ----------------------------------------------------------

PAO.BasisType split     

%block ChemicalSpeciesLabel
    1    8 O                       # Species index, atomic number, species label
    2    1 H                       # Species index, atomic number, species label
%endblock ChemicalSpeciesLabel

%block PAO.Basis                 # Define Basis set
O                     2                    # Species label, number of l-shells
 n=2   0   2                         # n, l, Nzeta 
   3.284      2.517   
   1.000      1.000   
 n=2   1   2 P   1                   # n, l, Nzeta, Polarization, NzetaPol
   3.868      2.542   
   1.000      1.000   
H                     1                    # Species label, number of l-shells
 n=1   0   2 P   1                   # n, l, Nzeta, Polarization, NzetaPol
   4.755      3.854   
   1.000      1.000   
%endblock PAO.Basis

prinput: ----------------------------------------------------------------------

Dumping basis to NetCDF file O.ion.nc
Dumping basis to NetCDF file H.ion.nc
coor:   Atomic-coordinates input format  =     Cartesian coordinates
coor:                                          (in Angstroms)

siesta: Atomic coordinates (Bohr) and species
siesta:      0.00000   0.00000   0.00000  1        1
siesta:      1.43052   1.10738   0.00000  2        2
siesta:     -1.43052   1.10738   0.00000  2        3

siesta: Automatic unit cell vectors (Ang):
siesta:    7.201174    0.000000    0.000000
siesta:    0.000000    5.664038    0.000000
siesta:    0.000000    0.000000    5.535774

siesta: System type = molecule  

initatomlists: Number of atoms, orbitals, and projectors:      3    23    34

siesta: ******************** Simulation parameters ****************************
siesta:
siesta: The following are some of the parameters of the simulation.
siesta: A complete list of the parameters used, including default values,
siesta: can be found in file out.fdf
siesta:
redata: Non-Collinear-spin run           =     F
redata: SpinPolarized (Up/Down) run      =     F
redata: Number of spin components        =     1
redata: Long output                      =     F
redata: Number of Atomic Species         =        2
redata: Charge density info will appear in .RHO file
redata: Write Mulliken Pop.              =     NO
redata: Mesh Cutoff                      =    50.0000  Ry
redata: Net charge of the system         =     0.0000 |e|
redata: Max. number of SCF Iter          =       50
redata: Mixing is linear
redata: Mix DM in first SCF step ?       =     F
redata: Write Pulay info on disk?        =     F
redata: New DM Mixing Weight             =     0.2500
redata: New DM Occupancy tolerance       = 0.000000000001
redata: No kicks to SCF
redata: DM Mixing Weight for Kicks       =     0.5000
redata: DM Tolerance for SCF             =     0.000100
redata: Require Energy convergence for SCF =     F
redata: DM Energy tolerance for SCF      =     0.000100 eV
redata: Require Harris convergence for SCF =     F
redata: DM Harris energy tolerance for SCF =     0.000100 eV
redata: Using Saved Data (generic)   =     F
redata: Use continuation files for DM    =     F
redata: Neglect nonoverlap interactions  =     F
redata: Method of Calculation            =     Diagonalization
redata: Divide and Conquer               =     T
redata: Electronic Temperature           =     0.0019  Ry
redata: Fix the spin of the system       =     F
redata: Dynamics option                  =     Verlet MD run
redata: Initial MD time step             =        1
redata:   Final MD time step             =        1
redata: Length of MD time step           =     1.0000  fs
redata: Initial Temperature of MD run    =     0.0000  K
redata: Perform a MD quench              =     F
redata: ***********************************************************************
Total number of electrons:     8.000000
Total ionic charge:     8.000000

* ProcessorY, Blocksize:    2   6

 Kpoints in:            1 . Kpoints trimmed:            1

siesta: k-grid: Number of k-points =     1
siesta: k-grid: Cutoff (effective) =     2.768 Ang
siesta: k-grid: Supercell and displacements
siesta: k-grid:    1   0   0      0.000
siesta: k-grid:    0   1   0      0.000
siesta: k-grid:    0   0   1      0.000

* Maximum dynamic memory allocated =     2 MB

siesta:                 ==============================
                            Begin MD step =      1
                        ==============================

outcell: Unit cell vectors (Ang):
        7.201174    0.000000    0.000000
        0.000000    5.664038    0.000000
        0.000000    0.000000    5.535774

outcell: Cell vector modules (Ang)   :    7.201174    5.664038    5.535774
outcell: Cell angles (23,13,12) (deg):     90.0000     90.0000     90.0000
outcell: Cell volume (Ang**3)        :    225.7916
New_DM. Step:     1
Initializing Density Matrix...

InitMesh: MESH =    32 x    30 x    24 =       23040
InitMesh: Mesh cutoff (required, used) =    50.000    51.948 Ry

* Maximum dynamic memory allocated =     3 MB

stepf: Fermi-Dirac step function

siesta: Program's energy decomposition (eV):
siesta: Eions   =       810.961610
siesta: Ena     =       170.770713
siesta: Ekin    =       343.345642
siesta: Enl     =       -54.437408
siesta: DEna    =         0.000000
siesta: DUscf   =         0.000000
siesta: DUext   =         0.000000
siesta: Exc     =      -110.260876
siesta: eta*DQ  =         0.000000
siesta: Emadel  =         0.000000
siesta: Emeta   =         0.000000
siesta: Emolmec =         0.000000
siesta: Ekinion =         0.000000
siesta: Eharris =      -466.106264
siesta: Etot    =      -461.543538
siesta: FreeEng =      -461.543538

siesta: iscf   Eharris(eV)      E_KS(eV)   FreeEng(eV)   dDmax  Ef(eV)
siesta:    1     -466.1063     -461.5435     -461.5435  1.5363 -2.8172
timer: Routine,Calls,Time,% = IterSCF        1       5.731  72.06
elaps: Routine,Calls,Wall,% = IterSCF        1       1.393  70.00
siesta:    2     -466.5325     -465.0694     -465.0694  0.1398  0.2103
siesta:    3     -465.6626     -465.2621     -465.2621  0.0378 -1.0019
siesta:    4     -465.6010     -465.3503     -465.3503  0.0184 -1.3016
siesta:    5     -465.5955     -465.4119     -465.4119  0.0161 -1.3747
siesta:    6     -465.5947     -465.4577     -465.4577  0.0127 -1.3888
siesta:    7     -465.5946     -465.4920     -465.4920  0.0096 -1.3884
siesta:    8     -465.5945     -465.5176     -465.5176  0.0072 -1.3855
siesta:    9     -465.5945     -465.5368     -465.5368  0.0054 -1.3829
siesta:   10     -465.5945     -465.5512     -465.5512  0.0040 -1.3811
siesta:   11     -465.5945     -465.5621     -465.5621  0.0030 -1.3798
siesta:   12     -465.5945     -465.5702     -465.5702  0.0022 -1.3790
siesta:   13     -465.5945     -465.5763     -465.5763  0.0017 -1.3784
siesta:   14     -465.5945     -465.5808     -465.5808  0.0012 -1.3781
siesta:   15     -465.5945     -465.5842     -465.5842  0.0009 -1.3779
siesta:   16     -465.5945     -465.5868     -465.5868  0.0007 -1.3777
siesta:   17     -465.5945     -465.5887     -465.5887  0.0005 -1.3776
siesta:   18     -465.5945     -465.5901     -465.5901  0.0004 -1.3776
siesta:   19     -465.5945     -465.5912     -465.5912  0.0003 -1.3775
siesta:   20     -465.5945     -465.5920     -465.5920  0.0002 -1.3775
siesta:   21     -465.5945     -465.5927     -465.5927  0.0002 -1.3775
siesta:   22     -465.5945     -465.5931     -465.5931  0.0001 -1.3775
siesta:   23     -465.5945     -465.5935     -465.5935  0.0001 -1.3775

siesta: E_KS(eV) =             -465.5937

siesta: E_KS - E_eggbox =      -465.5937

siesta: Atomic forces (eV/Ang):
----------------------------------------
   Tot    0.000002   -0.162239    0.000000
----------------------------------------
   Max    1.113947
   Res    0.669964    sqrt( Sum f_i^2 / 3N )
----------------------------------------
   Max    1.113947    constrained

Stress-tensor-Voigt (kbar):      -22.32       -5.40       19.89        0.00        0.00        0.00
(Free)E + p*V (eV/cell)     -465.2257
Target enthalpy (eV/cell)     -465.5937

siesta: Stress tensor (static) (eV/Ang**3):
        -0.013934    0.000000    0.000000
         0.000000   -0.003369    0.000000
         0.000000    0.000000    0.012413

siesta: Pressure (static):          2.61169389  kBar

siesta: Stress tensor (total) (eV/Ang**3):
        -0.013934    0.000000    0.000000
         0.000000   -0.003369    0.000000
         0.000000    0.000000    0.012413

siesta: Pressure (total):          2.61169389  kBar

siesta: Temp_ion =       0.000 K

* Maximum dynamic memory allocated =     3 MB

siesta: Program's energy decomposition (eV):
siesta: Eions   =       810.961610
siesta: Ena     =       170.770713
siesta: Ekin    =       351.148089
siesta: Enl     =       -63.525310
siesta: DEna    =        -1.075519
siesta: DUscf   =         0.619335
siesta: DUext   =         0.000000
siesta: Exc     =      -112.569443
siesta: eta*DQ  =         0.000000
siesta: Emadel  =         0.000000
siesta: Emeta   =         0.000000
siesta: Emolmec =         0.000000
siesta: Ekinion =         0.000000
siesta: Eharris =      -465.594487
siesta: Etot    =      -465.593743
siesta: FreeEng =      -465.593743

siesta: Final energy (eV):
siesta:       Kinetic =     351.148089
siesta:       Hartree =     378.081953
siesta:    Ext. field =       0.000000
siesta:   Exch.-corr. =    -112.569443
siesta:  Ion-electron =   -1066.557169
siesta:       Ion-ion =     -15.697174
siesta:       Ekinion =       0.000000
siesta:         Total =    -465.593743

siesta: Atomic forces (eV/Ang):
siesta:      1    0.000001   -1.070325    0.000000
siesta:      2    1.113947    0.454043    0.000000
siesta:      3   -1.113947    0.454043    0.000000
siesta: ----------------------------------------
siesta:    Tot    0.000002   -0.162239    0.000000

siesta: Stress tensor (static) (eV/Ang**3):
siesta:    -0.013934    0.000000    0.000000
siesta:     0.000000   -0.003369    0.000000
siesta:     0.000000    0.000000    0.012413

siesta: Cell volume =        225.791575 Ang**3

siesta: Pressure (static):
siesta:                Solid            Molecule  Units
siesta:           0.00001775         -0.00001894  Ry/Bohr**3
siesta:           0.00163007         -0.00173887  eV/Ang**3
siesta:           2.61169389         -2.78600294  kBar
(Free)E+ p_basis*V_orbitals  =        -465.029589
(Free)Eharris+ p_basis*V_orbitals  =        -465.030617

siesta: Electric dipole (a.u.)  =    0.000000    0.537460    0.000000
siesta: Electric dipole (Debye) =    0.000000    1.366088    0.000000

* Maximum dynamic memory allocated : Node    0 =     3 MB
* Maximum dynamic memory allocated : Node    1 =     3 MB
* Maximum dynamic memory allocated : Node    2 =     3 MB
* Maximum dynamic memory allocated : Node    3 =     3 MB

* Maximum memory occured during ranger                        

timer: CPU execution times:
timer:  Routine       Calls   Time/call    Tot.time        %
timer:  siesta            1       9.572       9.572   100.00
timer:  Setup             1       1.510       1.510    15.77
timer:  bands             1       0.002       0.002     0.02
timer:  writewave         1       0.000       0.000     0.00
timer:  KSV_init          1       0.000       0.000     0.00
timer:  IterMD            1       7.987       7.987    83.44
timer:  hsparse           1       0.004       0.004     0.04
timer:  overlap           1       0.567       0.567     5.92
timer:  IterSCF          23       0.311       7.151    74.71
timer:  kinefsm           2       0.245       0.491     5.13
timer:  nlefsm            2       2.293       4.585    47.91
timer:  DHSCF            25       0.038       0.953     9.96
timer:  DHSCF1            1       0.041       0.041     0.43
timer:  DHSCF2            1       0.055       0.055     0.57
timer:  REORD           208       0.000       0.005     0.05
timer:  POISON           26       0.008       0.197     2.06
timer:  DHSCF3           25       0.033       0.817     8.53
timer:  rhoofd           25       0.007       0.169     1.77
timer:  cellXC           25       0.006       0.152     1.59
timer:  vmat             24       0.007       0.171     1.79
timer:  MolMec            2       0.000       0.000     0.00
timer:  diagon           23       0.008       0.188     1.96
timer:  r-eigvec         23       0.008       0.188     1.96
timer:  r-buildHS        23       0.000       0.000     0.00
timer:  rdiag            23       0.008       0.188     1.96
timer:  rdiag1           23       0.001       0.016     0.17
timer:  rdiag2           23       0.001       0.020     0.21
timer:  rdiag3           23       0.006       0.132     1.38
timer:  rdiag4           23       0.000       0.008     0.08
timer:  r-buildD         23       0.000       0.000     0.00
timer:  DHSCF4            1       0.034       0.034     0.36
timer:  dfscf             1       0.031       0.031     0.32
timer:  overfsm           1       0.003       0.003     0.03
timer:  optical           1       0.012       0.012     0.13
  

elaps: ELAPSED times:
elaps:  Routine       Calls   Time/call    Tot.time        %
elaps:  siesta            1       2.395       2.395    99.97
elaps:  Setup             1       0.379       0.379    15.81
elaps:  bands             1       0.000       0.000     0.00
elaps:  writewave         1       0.000       0.000     0.02
elaps:  KSV_init          1       0.000       0.000     0.00
elaps:  IterMD            1       1.997       1.997    83.36
elaps:  hsparse           1       0.000       0.000     0.01
elaps:  overlap           1       0.117       0.117     4.90
elaps:  IterSCF          23       0.076       1.748    72.97
elaps:  kinefsm           2       0.049       0.099     4.13
elaps:  nlefsm            2       0.575       1.150    48.00
elaps:  DHSCF            25       0.010       0.241    10.06
elaps:  DHSCF1            1       0.011       0.011     0.48
elaps:  DHSCF2            1       0.013       0.013     0.56
elaps:  REORD           208       0.000       0.003     0.14
elaps:  POISON           26       0.002       0.050     2.08
elaps:  DHSCF3           25       0.008       0.203     8.49
elaps:  rhoofd           25       0.002       0.053     2.22
elaps:  cellXC           25       0.001       0.037     1.54
elaps:  vmat             24       0.002       0.043     1.78
elaps:  MolMec            2       0.000       0.000     0.00
elaps:  diagon           23       0.002       0.045     1.90
elaps:  r-eigvec         23       0.002       0.045     1.87
elaps:  r-buildHS        23       0.000       0.000     0.00
elaps:  rdiag            23       0.002       0.045     1.86
elaps:  rdiag1           23       0.000       0.004     0.16
elaps:  rdiag2           23       0.000       0.004     0.18
elaps:  rdiag3           23       0.001       0.033     1.39
elaps:  rdiag4           23       0.000       0.002     0.07
elaps:  r-buildD         23       0.000       0.000     0.01
elaps:  DHSCF4            1       0.012       0.012     0.49
elaps:  dfscf             1       0.010       0.010     0.42
elaps:  overfsm           1       0.000       0.000     0.00
elaps:  optical           1       0.000       0.000     0.00
  
>> End of run:  29-SEP-2009  17:08:57
