Siesta Version: siesta-2.0-release
Architecture  : intel9-mkl8
Compiler flags: ifort -u -xP -O3 -mp1
SERIAL version

* Running in serial mode
>> Start of run:  24-FEB-2006  12:54:45

                           ***********************       
                           *  WELCOME TO SIESTA  *       
                           ***********************       

reinit: Reading from standard input
************************** Dump of input data file ****************************
SystemName          Water molecule Broyden Optimization
SystemLabel         h2o_op_broyden
NumberOfAtoms       3
NumberOfSpecies     2
MeshCutoff  50 Ry
%block ChemicalSpeciesLabel
 1  8  O      # Species index, atomic number, species label
 2  1  H
%endblock ChemicalSpeciesLabel
AtomicCoordinatesFormat  Ang
%block AtomicCoordinatesAndAtomicSpecies
 0.000  0.000  0.000  1
 0.757  0.586  0.000  2
-0.757  0.586  0.000  2
%endblock AtomicCoordinatesAndAtomicSpecies
DM.Number.Pulay 3
WriteForces T
MD.TypeOfRun Broyden
MD.NumCGSteps 20
MD.Broyden.History.Steps 6
MD.Broyden.Initial.Inverse.Jacobian 1.0
************************** End of input data file *****************************

reinit: -----------------------------------------------------------------------
reinit: System Name: Water molecule Broyden Optimization                        
reinit: -----------------------------------------------------------------------
reinit: System Label: h2o_op_broyden                                              
reinit: -----------------------------------------------------------------------

initatom: Reading input for the pseudopotentials and atomic orbitals ----------
 Species number:            1  Label: O Atomic number:           8
 Species number:            2  Label: H Atomic number:           1
Ground state valence configuration:   2s02  2p04
Reading pseudopotential information in formatted form from O.psf
Ground state valence configuration:   1s01
Reading pseudopotential information in formatted form from H.psf
For O, standard SIESTA heuristics set lmxkb to 3
 (one more than the basis l, including polarization orbitals).
Use PS.lmax or PS.KBprojectors blocks to override.
For H, standard SIESTA heuristics set lmxkb to 2
 (one more than the basis l, including polarization orbitals).
Use PS.lmax or PS.KBprojectors blocks to override.

<basis_specs>
===============================================================================
O                    Z=   8    Mass=  16.000        Charge=  0.0000    
Lmxo=1 Lmxkb=3     BasisType=split      Semic=F
L=0  Nsemic=0  Cnfigmx=2
          n=1  nzeta=2  polorb=0
               vcte:    0.0000    
               rinn:    0.0000    
                rcs:    0.0000      0.0000    
            lambdas:    1.0000      1.0000    
L=1  Nsemic=0  Cnfigmx=2
          n=1  nzeta=2  polorb=1
               vcte:    0.0000    
               rinn:    0.0000    
                rcs:    0.0000      0.0000    
            lambdas:    1.0000      1.0000    
-------------------------------------------------------------------------------
L=0  Nkbl=1  erefs: 0.17977+309
L=1  Nkbl=1  erefs: 0.17977+309
L=2  Nkbl=1  erefs: 0.17977+309
L=3  Nkbl=1  erefs: 0.17977+309
===============================================================================
</basis_specs>

atom: Called for O   (Z =   8)

read_vps: Pseudopotential generation method:
read_vps: ATM3      Troullier-Martins                       

read_vps: Valence configuration (pseudopotential and basis set generation):
2s( 2.00) rc: 1.14
2p( 4.00) rc: 1.14
3d( 0.00) rc: 1.14
4f( 0.00) rc: 1.14
Total valence charge:    6.00000

xc_check: Exchange-correlation functional:
xc_check: Ceperley-Alder
V l=0 = -2*Zval/r beyond r=  1.1278
V l=1 = -2*Zval/r beyond r=  1.1278
V l=2 = -2*Zval/r beyond r=  1.1278
V l=3 = -2*Zval/r beyond r=  1.1138
All V_l potentials equal beyond r=  1.1278
This should be close to max(r_c) in ps generation
All pots = -2*Zval/r beyond r=  1.1278

VLOCAL1: 99.0% of the norm of Vloc inside     34.126 Ry
VLOCAL1: 99.9% of the norm of Vloc inside     77.774 Ry
atom: Maximum radius for 4*pi*r*r*local-pseudopot. charge    1.37759
atom: Maximum radius for r*vlocal+2*Zval:    1.18566
GHOST: No ghost state for L =  0
GHOST: No ghost state for L =  1
GHOST: No ghost state for L =  2
GHOST: No ghost state for L =  3

KBgen: Kleinman-Bylander projectors: 
   l= 0   rc=  1.294105   el= -1.742414   Ekb=  9.135903   kbcos=  0.326910
   l= 1   rc=  1.294105   el= -0.676589   Ekb= -8.124878   kbcos= -0.395047
   l= 2   rc=  1.448233   el=  0.002386   Ekb= -2.039267   kbcos= -0.003484
   l= 3   rc=  1.561052   el=  0.003508   Ekb= -0.799141   kbcos= -0.000344

KBgen: Total number of  Kleinman-Bylander projectors:   16
atom: -------------------------------------------------------------------------

atom: SANKEY-TYPE ORBITALS:
atom: Selected multiple-zeta basis: split     

SPLIT: Orbitals with angular momentum L= 0

SPLIT: Basis orbitals for state 2s

SPLIT: PAO cut-off radius determined from an
SPLIT: energy shift=  0.020000 Ry

   izeta = 1
                 lambda =    1.000000
                     rc =    3.305093
                 energy =   -1.723766
                kinetic =    1.614911
    potential(screened) =   -3.338677
       potential(ionic) =  -11.304675

   izeta = 2
                 rmatch =    2.510382
              splitnorm =    0.150000
                 energy =   -1.471081
                kinetic =    2.446738
    potential(screened) =   -3.917818
       potential(ionic) =  -12.476310

SPLIT: Orbitals with angular momentum L= 1

SPLIT: Basis orbitals for state 2p

SPLIT: PAO cut-off radius determined from an
SPLIT: energy shift=  0.020000 Ry

   izeta = 1
                 lambda =    1.000000
                     rc =    3.937239
                 energy =   -0.658841
                kinetic =    5.005986
    potential(screened) =   -5.664827
       potential(ionic) =  -13.452360

   izeta = 2
                 rmatch =    2.541963
              splitnorm =    0.150000
                 energy =   -0.367387
                kinetic =    7.530138
    potential(screened) =   -7.897525
       potential(ionic) =  -16.611418

POLgen: Perturbative polarization orbital with L=  2

POLgen: Polarization orbital for state 2p

   izeta = 1
                     rc =    3.937239
                 energy =    2.398520
                kinetic =    4.716729
    potential(screened) =   -2.318209
       potential(ionic) =   -8.603170
atom: Total number of Sankey-type orbitals: 13

atm_pop: Valence configuration(local Pseudopot. screening):
 2s( 2.00)                                                            
 2p( 4.00)                                                            
Vna: chval, zval:    6.00000   6.00000

Vna:  Cut-off radius for the neutral-atom potential:   3.937239

atom: _________________________________________________________________________

<basis_specs>
===============================================================================
H                    Z=   1    Mass=  1.0100        Charge=  0.0000    
Lmxo=0 Lmxkb=2     BasisType=split      Semic=F
L=0  Nsemic=0  Cnfigmx=1
          n=1  nzeta=2  polorb=1
               vcte:    0.0000    
               rinn:    0.0000    
                rcs:    0.0000      0.0000    
            lambdas:    1.0000      1.0000    
-------------------------------------------------------------------------------
L=0  Nkbl=1  erefs: 0.17977+309
L=1  Nkbl=1  erefs: 0.17977+309
L=2  Nkbl=1  erefs: 0.17977+309
===============================================================================
</basis_specs>

atom: Called for H   (Z =   1)

read_vps: Pseudopotential generation method:
read_vps: ATM3      Troullier-Martins                       

read_vps: Valence configuration (pseudopotential and basis set generation):
1s( 1.00) rc: 1.25
2p( 0.00) rc: 1.25
3d( 0.00) rc: 1.25
Total valence charge:    1.00000

xc_check: Exchange-correlation functional:
xc_check: Ceperley-Alder
V l=0 = -2*Zval/r beyond r=  1.2343
V l=1 = -2*Zval/r beyond r=  1.2189
V l=2 = -2*Zval/r beyond r=  1.2189
All V_l potentials equal beyond r=  1.2343
This should be close to max(r_c) in ps generation
All pots = -2*Zval/r beyond r=  1.2343

VLOCAL1: 99.0% of the norm of Vloc inside     28.493 Ry
VLOCAL1: 99.9% of the norm of Vloc inside     64.935 Ry
atom: Maximum radius for 4*pi*r*r*local-pseudopot. charge    1.45251
atom: Maximum radius for r*vlocal+2*Zval:    1.21892
GHOST: No ghost state for L =  0
GHOST: No ghost state for L =  1
GHOST: No ghost state for L =  2

KBgen: Kleinman-Bylander projectors: 
   l= 0   rc=  1.364359   el= -0.467325   Ekb= -2.005361   kbcos= -0.336422
   l= 1   rc=  1.434438   el=  0.001430   Ekb= -0.501708   kbcos= -0.021697
   l= 2   rc=  1.470814   el=  0.002365   Ekb= -0.190555   kbcos= -0.002281

KBgen: Total number of  Kleinman-Bylander projectors:    9
atom: -------------------------------------------------------------------------

atom: SANKEY-TYPE ORBITALS:
atom: Selected multiple-zeta basis: split     

SPLIT: Orbitals with angular momentum L= 0

SPLIT: Basis orbitals for state 1s

SPLIT: PAO cut-off radius determined from an
SPLIT: energy shift=  0.020000 Ry

   izeta = 1
                 lambda =    1.000000
                     rc =    4.828263
                 energy =   -0.449375
                kinetic =    0.929372
    potential(screened) =   -1.378747
       potential(ionic) =   -1.915047

   izeta = 2
                 rmatch =    3.854947
              splitnorm =    0.150000
                 energy =   -0.335649
                kinetic =    1.505971
    potential(screened) =   -1.841620
       potential(ionic) =   -2.413776

POLgen: Perturbative polarization orbital with L=  1

POLgen: Polarization orbital for state 1s

   izeta = 1
                     rc =    4.828263
                 energy =    0.706972
                kinetic =    1.396397
    potential(screened) =   -0.689424
       potential(ionic) =   -1.169792
atom: Total number of Sankey-type orbitals:  5

atm_pop: Valence configuration(local Pseudopot. screening):
 1s( 1.00)                                                            
Vna: chval, zval:    1.00000   1.00000

Vna:  Cut-off radius for the neutral-atom potential:   4.828263

atom: _________________________________________________________________________

prinput: Basis input ----------------------------------------------------------

PAO.BasisType split     

%block ChemicalSpeciesLabel
    1    8 O                       # Species index, atomic number, species label
    2    1 H                       # Species index, atomic number, species label
%endblock ChemicalSpeciesLabel

%block PAO.Basis                 # Define Basis set
O           2                    # Species label, number of l-shells
 n=2   0   2                         # n, l, Nzeta 
   3.305      2.510   
   1.000      1.000   
 n=2   1   2 P   1                   # n, l, Nzeta, Polarization, NzetaPol
   3.937      2.542   
   1.000      1.000   
H           1                    # Species label, number of l-shells
 n=1   0   2 P   1                   # n, l, Nzeta, Polarization, NzetaPol
   4.828      3.855   
   1.000      1.000   
%endblock PAO.Basis

prinput: ----------------------------------------------------------------------


siesta: ******************** Simulation parameters ****************************
siesta:
siesta: The following are some of the parameters of the simulation.
siesta: A complete list of the parameters used, including default values,
siesta: can be found in file out.fdf
siesta:
coor:   Atomic-coordinates input format  =     Cartesian coordinates
coor:                                          (in Angstroms)
redata: Number of spin components        =     1
redata: Long output                      =     F
redata: Number of Atomic Species         =     2
redata: Charge density info will appear in .RHO file
redata: Write Mulliken Pop.              =     NO
redata: Mesh Cutoff                      =    50.0000  Ry
redata: Net charge of the system         =     0.0000 |e|
redata: Max. number of SCF Iter          =    50
redata: Performing Pulay mixing using    =     3 iterations
redata: Mix DM in first SCF step ?       =     F
redata: Write Pulay info on disk?        =     F
redata: New DM Mixing Weight             =     0.2500
redata: New DM Occupancy tolerance       = 0.000000000001
redata: No kicks to SCF
redata: DM Mixing Weight for Kicks       =     0.5000
redata: DM Tolerance for SCF             =     0.000100
redata: Require Energy convergence for SCF =     F
redata: DM Energy tolerance for SCF      =     0.000100 eV
redata: Using Saved Data (generic)   =     F
redata: Use continuation files for DM    =     F
redata: Neglect nonoverlap interactions  =     F
redata: Method of Calculation            =     Diagonalization
redata: Divide and Conquer               =     T
redata: Electronic Temperature           =     0.0019  Ry
redata: Fix the spin of the system       =     F
redata: Dynamics option                  =     Broyden coord. optimization
redata: Variable cell                    =     F
redata: Maximum number of CG moves       =    20
redata: Force tolerance                  =     0.0016  Ry/Bohr
redata: ***********************************************************************

siesta: Atomic coordinates (Bohr) and species
siesta:      0.00000   0.00000   0.00000  1        1
siesta:      1.43052   1.10738   0.00000  2        2
siesta:     -1.43052   1.10738   0.00000  2        3

initatomlists: Number of atoms, orbitals, and projectors:      3    23    34

siesta: Automatic unit cell vectors (Ang):
siesta:    7.286412    0.000000    0.000000
siesta:    0.000000    5.746952    0.000000
siesta:    0.000000    0.000000    5.621012

siesta: System type = molecule  

* Maximum dynamic memory allocated =     1 MB

siesta:                 ==============================
                            Begin CG move =      0
                        ==============================

outcell: Unit cell vectors (Ang):
        7.286412    0.000000    0.000000
        0.000000    5.746952    0.000000
        0.000000    0.000000    5.621012

outcell: Cell vector modules (Ang)   :    7.286412    5.746952    5.621012
outcell: Cell angles (23,13,12) (deg):     90.0000     90.0000     90.0000
outcell: Cell volume (Ang**3)        :    235.3780

InitMesh: MESH =    32 x    30 x    24 =       23040
InitMesh: Mesh cutoff (required, used) =    50.000    50.384 Ry

* Maximum dynamic memory allocated =     3 MB

stepf: Fermi-Dirac step function

siesta: Program's energy decomposition (eV):
siesta: Eions   =       815.854478
siesta: Ena     =       175.154321
siesta: Ekin    =       341.667405
siesta: Enl     =       -52.736757
siesta: DEna    =        -0.000001
siesta: DUscf   =         0.000000
siesta: DUext   =         0.000000
siesta: Exc     =      -109.951257
siesta: eta*DQ  =         0.000000
siesta: Emadel  =         0.000000
siesta: Ekinion =         0.000000
siesta: Eharris =      -466.430388
siesta: Etot    =      -461.720767
siesta: FreeEng =      -461.720767

siesta: iscf   Eharris(eV)      E_KS(eV)   FreeEng(eV)   dDmax  Ef(eV)
siesta:    1     -466.4304     -461.7208     -461.7208  1.4383 -4.2475
timer: Routine,Calls,Time,% = IterSCF        1       2.185  68.41
elaps: Routine,Calls,Wall,% = IterSCF        1       2.187  67.04
siesta:    2     -466.8704     -465.2426     -465.2426  0.1755 -0.1474
siesta:    3     -465.9100     -465.3165     -465.3165  0.0585 -1.6845
siesta:    4     -465.8393     -465.6128     -465.6128  0.0148 -2.1480
siesta:    5     -465.8390     -465.6646     -465.6646  0.0112 -2.1558
siesta:    6     -465.8388     -465.7915     -465.7915  0.0047 -2.1571
siesta:    7     -465.8389     -465.8125     -465.8125  0.0030 -2.1514
siesta:    8     -465.8388     -465.8287     -465.8287  0.0012 -2.1515
siesta:    9     -465.8388     -465.8377     -465.8377  0.0003 -2.1538
siesta:   10     -465.8388     -465.8380     -465.8380  0.0002 -2.1537
siesta:   11     -465.8388     -465.8382     -465.8382  0.0001 -2.1531

siesta: E_KS(eV) =             -465.8383

siesta: E_KS - E_eggbox =      -465.8383

siesta: Atomic forces (eV/Ang):
     1   -0.000001   -0.506285    0.000000
     2    0.720478    0.280573    0.000000
     3   -0.720477    0.280573    0.000000
----------------------------------------
   Tot    0.000000    0.054861    0.000000
----------------------------------------
   Max    0.720478
   Res    0.401655    sqrt( Sum f_i^2 / 3N )
----------------------------------------
   Max    0.720478    constrained

Stress-tensor-Voigt (kbar):      -20.23       -3.71       22.43        0.00        0.00        0.00
Target enthalpy (eV/cell)     -465.8383
 
Broyden_optim: max_history for broyden:   6
Broyden_optim: cycle on maxit: T
Broyden_optim: initial inverse jacobian:   1.0000
 
Broyden_optim: No of elements:      9

* Maximum dynamic memory allocated =     3 MB

siesta:                 ==============================
                            Begin CG move =      1
                        ==============================

outcell: Unit cell vectors (Ang):
        7.286412    0.000000    0.000000
        0.000000    5.746952    0.000000
        0.000000    0.000000    5.621012

outcell: Cell vector modules (Ang)   :    7.286412    5.746952    5.621012
outcell: Cell angles (23,13,12) (deg):     90.0000     90.0000     90.0000
outcell: Cell volume (Ang**3)        :    235.3780

siesta: iscf   Eharris(eV)      E_KS(eV)   FreeEng(eV)   dDmax  Ef(eV)
siesta:    1     -465.8434     -465.6067     -465.6067  0.0415 -2.0953
siesta:    2     -465.8455     -465.8400     -465.8400  0.0144 -2.3061
siesta:    3     -465.8421     -465.7977     -465.7977  0.0037 -2.2021
siesta:    4     -465.8420     -465.8357     -465.8357  0.0010 -2.1808
siesta:    5     -465.8419     -465.8376     -465.8376  0.0007 -2.1813
siesta:    6     -465.8419     -465.8416     -465.8416  0.0000 -2.1824

siesta: E_KS(eV) =             -465.8417

siesta: Atomic forces (eV/Ang):
     1   -0.000004    1.269639   -0.000002
     2   -0.181276   -0.344180    0.000000
     3    0.181275   -0.344178    0.000000
----------------------------------------
   Tot   -0.000005    0.581280   -0.000002
----------------------------------------
   Max    1.269639
   Res    0.461233    sqrt( Sum f_i^2 / 3N )
----------------------------------------
   Max    1.269639    constrained

Stress-tensor-Voigt (kbar):      -11.29        1.55       22.72        0.00        0.00        0.00
Target enthalpy (eV/cell)     -465.8417

* Maximum dynamic memory allocated =     3 MB

siesta:                 ==============================
                            Begin CG move =      2
                        ==============================

outcell: Unit cell vectors (Ang):
        7.286412    0.000000    0.000000
        0.000000    5.746952    0.000000
        0.000000    0.000000    5.621012

outcell: Cell vector modules (Ang)   :    7.286412    5.746952    5.621012
outcell: Cell angles (23,13,12) (deg):     90.0000     90.0000     90.0000
outcell: Cell volume (Ang**3)        :    235.3780

siesta: iscf   Eharris(eV)      E_KS(eV)   FreeEng(eV)   dDmax  Ef(eV)
siesta:    1     -465.8513     -465.9490     -465.9490  0.0227 -2.1709
siesta:    2     -465.8523     -465.8496     -465.8496  0.0099 -2.0124
siesta:    3     -465.8506     -465.8719     -465.8719  0.0035 -2.0915
siesta:    4     -465.8506     -465.8521     -465.8521  0.0006 -2.1044
siesta:    5     -465.8506     -465.8515     -465.8515  0.0004 -2.1046
siesta:    6     -465.8506     -465.8506     -465.8506  0.0000 -2.1047

siesta: E_KS(eV) =             -465.8506

siesta: Atomic forces (eV/Ang):
     1    0.000020   -0.030472    0.000005
     2    0.161497   -0.005818    0.000000
     3   -0.161502   -0.005814    0.000001
----------------------------------------
   Tot    0.000015   -0.042105    0.000007
----------------------------------------
   Max    0.161502
   Res    0.076855    sqrt( Sum f_i^2 / 3N )
----------------------------------------
   Max    0.161502    constrained

Stress-tensor-Voigt (kbar):      -14.90       -1.45       22.55        0.00        0.00        0.00
Target enthalpy (eV/cell)     -465.8506

* Maximum dynamic memory allocated =     3 MB

siesta:                 ==============================
                            Begin CG move =      3
                        ==============================

outcell: Unit cell vectors (Ang):
        7.286412    0.000000    0.000000
        0.000000    5.746952    0.000000
        0.000000    0.000000    5.621012

outcell: Cell vector modules (Ang)   :    7.286412    5.746952    5.621012
outcell: Cell angles (23,13,12) (deg):     90.0000     90.0000     90.0000
outcell: Cell volume (Ang**3)        :    235.3780

siesta: iscf   Eharris(eV)      E_KS(eV)   FreeEng(eV)   dDmax  Ef(eV)
siesta:    1     -465.8514     -465.8244     -465.8244  0.0064 -2.0805
siesta:    2     -465.8514     -465.8514     -465.8514  0.0005 -2.0763
siesta:    3     -465.8514     -465.8503     -465.8503  0.0003 -2.0773
siesta:    4     -465.8514     -465.8512     -465.8512  0.0001 -2.0789

siesta: E_KS(eV) =             -465.8513

siesta: Atomic forces (eV/Ang):
     1   -0.000104   -0.025281    0.000053
     2    0.028601   -0.045672    0.000000
     3   -0.028561   -0.045701    0.000000
----------------------------------------
   Tot   -0.000065   -0.116653    0.000054
----------------------------------------
   Max    0.045701
   Res    0.026765    sqrt( Sum f_i^2 / 3N )
----------------------------------------
   Max    0.045701    constrained

Stress-tensor-Voigt (kbar):      -13.62       -1.14       22.56        0.00        0.00        0.00
Target enthalpy (eV/cell)     -465.8513

* Maximum dynamic memory allocated =     3 MB

siesta:                 ==============================
                            Begin CG move =      4
                        ==============================

outcell: Unit cell vectors (Ang):
        7.286412    0.000000    0.000000
        0.000000    5.746952    0.000000
        0.000000    0.000000    5.621012

outcell: Cell vector modules (Ang)   :    7.286412    5.746952    5.621012
outcell: Cell angles (23,13,12) (deg):     90.0000     90.0000     90.0000
outcell: Cell volume (Ang**3)        :    235.3780

siesta: iscf   Eharris(eV)      E_KS(eV)   FreeEng(eV)   dDmax  Ef(eV)
siesta:    1     -465.8511     -465.8259     -465.8259  0.0045 -2.0694
siesta:    2     -465.8511     -465.8511     -465.8511  0.0014 -2.0912
siesta:    3     -465.8511     -465.8467     -465.8467  0.0004 -2.0809
siesta:    4     -465.8511     -465.8504     -465.8504  0.0001 -2.0787
siesta:    5     -465.8511     -465.8507     -465.8507  0.0001 -2.0787

siesta: E_KS(eV) =             -465.8511

siesta: Atomic forces (eV/Ang):
     1    0.002028    0.370234    0.001029
     2   -0.072686   -0.109082   -0.000002
     3    0.071839   -0.108465   -0.000003
----------------------------------------
   Tot    0.001181    0.152687    0.001024
----------------------------------------
   Max    0.370234
   Res    0.137916    sqrt( Sum f_i^2 / 3N )
----------------------------------------
   Max    0.370234    constrained

Stress-tensor-Voigt (kbar):      -12.63       -0.60       22.59        0.00        0.00        0.00
Target enthalpy (eV/cell)     -465.8511

* Maximum dynamic memory allocated =     3 MB

siesta:                 ==============================
                            Begin CG move =      5
                        ==============================

outcell: Unit cell vectors (Ang):
        7.286412    0.000000    0.000000
        0.000000    5.746952    0.000000
        0.000000    0.000000    5.621012

outcell: Cell vector modules (Ang)   :    7.286412    5.746952    5.621012
outcell: Cell angles (23,13,12) (deg):     90.0000     90.0000     90.0000
outcell: Cell volume (Ang**3)        :    235.3780

siesta: iscf   Eharris(eV)      E_KS(eV)   FreeEng(eV)   dDmax  Ef(eV)
siesta:    1     -465.8520     -465.8762     -465.8762  0.0067 -2.0687
siesta:    2     -465.8521     -465.8518     -465.8518  0.0034 -2.0140
siesta:    3     -465.8519     -465.8572     -465.8572  0.0013 -2.0412
siesta:    4     -465.8519     -465.8522     -465.8522  0.0001 -2.0457
siesta:    5     -465.8519     -465.8521     -465.8521  0.0001 -2.0459

siesta: E_KS(eV) =             -465.8519

siesta: Atomic forces (eV/Ang):
     1   -0.008756    0.013025    0.006550
     2   -0.001524   -0.005953   -0.000018
     3    0.005285   -0.008680   -0.000018
----------------------------------------
   Tot   -0.004994   -0.001608    0.006514
----------------------------------------
   Max    0.013025
   Res    0.006914    sqrt( Sum f_i^2 / 3N )
----------------------------------------
   Max    0.013025    constrained

Stress-tensor-Voigt (kbar):      -13.40       -1.42       22.54       -0.01        0.00        0.00
Target enthalpy (eV/cell)     -465.8519

* Maximum dynamic memory allocated =     3 MB

outcoor: Relaxed atomic coordinates (Ang):                  
    0.00004262    0.00068372    0.00003683   1  O          1
    0.77769052    0.58053313    0.00000000   2  H          2
   -0.77770884    0.58054654   -0.00000001   2  H          3

siesta: Program's energy decomposition (eV):
siesta: Eions   =       815.854478
siesta: Ena     =       175.062977
siesta: Ekin    =       349.636631
siesta: Enl     =       -61.488950
siesta: DEna    =        -1.322888
siesta: DUscf   =         0.729848
siesta: DUext   =         0.000000
siesta: Exc     =      -112.614991
siesta: eta*DQ  =         0.000000
siesta: Emadel  =         0.000000
siesta: Ekinion =         0.000000
siesta: Eharris =      -465.851906
siesta: Etot    =      -465.851852
siesta: FreeEng =      -465.851852

siesta: Final energy (eV):
siesta:       Kinetic =     349.636631
siesta:       Hartree =     380.756880
siesta:    Ext. field =       0.000000
siesta:   Exch.-corr. =    -112.614991
siesta:  Ion-electron =   -1067.503787
siesta:       Ion-ion =     -16.126585
siesta:       Ekinion =       0.000000
siesta:         Total =    -465.851852

siesta: Stress tensor (static) (eV/Ang**3):
siesta:    -0.008365   -0.000009    0.000000
siesta:    -0.000009   -0.000887    0.000000
siesta:     0.000000    0.000000    0.014067

siesta: Cell volume =        235.378012 Ang**3

siesta: Pressure (static):
siesta:                Solid            Molecule  Units
siesta:          -0.00001748         -0.00001728  Ry/Bohr**3
siesta:          -0.00160506         -0.00158642  eV/Ang**3
siesta:          -2.57161045         -2.54175408  kBar

siesta: Electric dipole (a.u.)  =   -0.000055    0.550708   -0.000067
siesta: Electric dipole (Debye) =   -0.000140    1.399761   -0.000170

* Maximum dynamic memory allocated : Node    0 =     3 MB

* Maximum memory occured during MATEL                         

timer: CPU execution times:
timer:  Routine       Calls   Time/call    Tot.time        %
timer:  siesta            1       5.111       5.111    99.98
timer:  Setup             1       0.440       0.440     8.61
timer:  bands             1       0.000       0.000     0.00
timer:  writewave         1       0.000       0.000     0.00
timer:  KSV_init          1       0.001       0.001     0.02
timer:  IterMD            6       0.778       4.666    91.28
timer:  hsparse           7       0.002       0.012     0.23
timer:  overfsm          12       0.048       0.577    11.28
timer:  IterSCF          43       0.095       4.069    79.60
timer:  kinefsm          12       0.045       0.543    10.62
timer:  nlefsm           12       0.134       1.608    31.45
timer:  DHSCF            43       0.043       1.847    36.12
timer:  DHSCF1            1       0.013       0.013     0.25
timer:  DHSCF2            6       0.048       0.291     5.69
timer:  REORD           356       0.000       0.044     0.86
timer:  POISON           49       0.005       0.252     4.93
timer:  DHSCF3           43       0.029       1.236    24.17
timer:  rhoofd           43       0.010       0.409     8.00
timer:  cellXC           43       0.007       0.281     5.50
timer:  vmat             43       0.005       0.213     4.17
timer:  diagon           37       0.001       0.020     0.39
timer:  rdiag            37       0.000       0.018     0.35
timer:  rdiag1           37       0.000       0.003     0.06
timer:  rdiag2           37       0.000       0.001     0.02
timer:  rdiag3           37       0.000       0.011     0.22
timer:  rdiag4           37       0.000       0.000     0.00
timer:  DHSCF4            6       0.050       0.302     5.91
timer:  dfscf             6       0.043       0.261     5.10
timer:  optical           1       0.000       0.000     0.00
  

elaps: ELAPSED times:
elaps:  Routine       Calls   Time/call    Tot.time        %
elaps:  siesta            1       5.275       5.275    99.99
elaps:  Setup             1       0.507       0.507     9.61
elaps:  bands             1       0.000       0.000     0.00
elaps:  writewave         1       0.000       0.000     0.01
elaps:  KSV_init          1       0.000       0.000     0.00
elaps:  IterMD            6       0.794       4.764    90.29
elaps:  hsparse           7       0.002       0.012     0.22
elaps:  overfsm          12       0.048       0.576    10.91
elaps:  IterSCF          43       0.096       4.142    78.51
elaps:  kinefsm          12       0.045       0.543    10.29
elaps:  nlefsm           12       0.134       1.608    30.49
elaps:  DHSCF            43       0.043       1.844    34.95
elaps:  DHSCF1            1       0.014       0.014     0.26
elaps:  DHSCF2            6       0.048       0.289     5.48
elaps:  REORD           356       0.000       0.041     0.78
elaps:  POISON           49       0.005       0.252     4.78
elaps:  DHSCF3           43       0.029       1.235    23.41
elaps:  rhoofd           43       0.010       0.410     7.77
elaps:  cellXC           43       0.007       0.283     5.37
elaps:  vmat             43       0.005       0.210     3.99
elaps:  diagon           37       0.001       0.022     0.42
elaps:  rdiag            37       0.001       0.019     0.35
elaps:  rdiag1           37       0.000       0.002     0.03
elaps:  rdiag2           37       0.000       0.002     0.04
elaps:  rdiag3           37       0.000       0.012     0.22
elaps:  rdiag4           37       0.000       0.001     0.02
elaps:  DHSCF4            6       0.050       0.301     5.71
elaps:  dfscf             6       0.044       0.262     4.98
elaps:  optical           1       0.000       0.000     0.00
  
>> End of run:  24-FEB-2006  12:54:50
