Siesta Version:                                        siesta-3.1
Architecture  : ifort11-macosx64
Compiler flags: ifort  -O2
SERIAL version

* Running in serial mode
>> Start of run:  10-JUN-2011  14:33:59

                           ***********************       
                           *  WELCOME TO SIESTA  *       
                           ***********************       

reinit: Reading from standard input
************************** Dump of input data file ****************************
SystemName          Water molecule Broyden Optimization
SystemLabel         h2o_op_broyden
NumberOfAtoms       3
NumberOfSpecies     2
MeshCutoff  50 Ry
%block ChemicalSpeciesLabel
 1  8  O      # Species index, atomic number, species label
 2  1  H
%endblock ChemicalSpeciesLabel
AtomicCoordinatesFormat  Ang
%block AtomicCoordinatesAndAtomicSpecies
 0.000  0.000  0.000  1
 0.757  0.586  0.000  2
-0.757  0.586  0.000  2
%endblock AtomicCoordinatesAndAtomicSpecies
DM.Number.Pulay 3
WriteForces T
MD.MaxForceTol          0.01 eV/Ang
MD.TypeOfRun Broyden
MD.NumCGSteps 40
MD.Broyden.History.Steps 6
MD.Broyden.Initial.Inverse.Jacobian 1.0
************************** End of input data file *****************************

reinit: -----------------------------------------------------------------------
reinit: System Name: Water molecule Broyden Optimization
reinit: -----------------------------------------------------------------------
reinit: System Label: h2o_op_broyden                                              
reinit: -----------------------------------------------------------------------

initatom: Reading input for the pseudopotentials and atomic orbitals ----------
 Species number:            1  Label: O Atomic number:           8
 Species number:            2  Label: H Atomic number:           1
Ground state valence configuration:   2s02  2p04
Reading pseudopotential information in formatted form from O.psf

Valence configuration for pseudopotential generation:
2s( 2.00) rc: 1.14
2p( 4.00) rc: 1.14
3d( 0.00) rc: 1.14
4f( 0.00) rc: 1.14
Ground state valence configuration:   1s01
Reading pseudopotential information in formatted form from H.psf

Valence configuration for pseudopotential generation:
1s( 1.00) rc: 1.25
2p( 0.00) rc: 1.25
3d( 0.00) rc: 1.25
4f( 0.00) rc: 1.25
For O, standard SIESTA heuristics set lmxkb to 3
 (one more than the basis l, including polarization orbitals).
Use PS.lmax or PS.KBprojectors blocks to override.
For H, standard SIESTA heuristics set lmxkb to 2
 (one more than the basis l, including polarization orbitals).
Use PS.lmax or PS.KBprojectors blocks to override.

<basis_specs>
===============================================================================
O                    Z=   8    Mass=  16.000        Charge= 0.17977+309
Lmxo=1 Lmxkb=3     BasisType=split      Semic=F
L=0  Nsemic=0  Cnfigmx=2
          n=1  nzeta=2  polorb=0
            splnorm:   0.15000    
               vcte:    0.0000    
               rinn:    0.0000    
                rcs:    0.0000      0.0000    
            lambdas:    1.0000      1.0000    
L=1  Nsemic=0  Cnfigmx=2
          n=1  nzeta=2  polorb=1
            splnorm:   0.15000    
               vcte:    0.0000    
               rinn:    0.0000    
                rcs:    0.0000      0.0000    
            lambdas:    1.0000      1.0000    
-------------------------------------------------------------------------------
L=0  Nkbl=1  erefs: 0.17977+309
L=1  Nkbl=1  erefs: 0.17977+309
L=2  Nkbl=1  erefs: 0.17977+309
L=3  Nkbl=1  erefs: 0.17977+309
===============================================================================
</basis_specs>

atom: Called for O                     (Z =   8)

read_vps: Pseudopotential generation method:
read_vps: ATM3      Troullier-Martins                       
Total valence charge:    6.00000

xc_check: Exchange-correlation functional:
xc_check: Ceperley-Alder
V l=0 = -2*Zval/r beyond r=  1.1278
V l=1 = -2*Zval/r beyond r=  1.1278
V l=2 = -2*Zval/r beyond r=  1.1278
V l=3 = -2*Zval/r beyond r=  1.1138
All V_l potentials equal beyond r=  1.1278
This should be close to max(r_c) in ps generation
All pots = -2*Zval/r beyond r=  1.1278

VLOCAL1: 99.0% of the norm of Vloc inside     34.126 Ry
VLOCAL1: 99.9% of the norm of Vloc inside     77.774 Ry
atom: Maximum radius for 4*pi*r*r*local-pseudopot. charge    1.37759
atom: Maximum radius for r*vlocal+2*Zval:    1.18566
GHOST: No ghost state for L =  0
GHOST: No ghost state for L =  1
GHOST: No ghost state for L =  2
GHOST: No ghost state for L =  3

KBgen: Kleinman-Bylander projectors: 
   l= 0   rc=  1.294105   el= -1.742414   Ekb=  9.135903   kbcos=  0.326910
   l= 1   rc=  1.294105   el= -0.676589   Ekb= -8.124878   kbcos= -0.395047
   l= 2   rc=  1.448233   el=  0.002386   Ekb= -2.039267   kbcos= -0.003484
   l= 3   rc=  1.561052   el=  0.003508   Ekb= -0.799141   kbcos= -0.000344

KBgen: Total number of  Kleinman-Bylander projectors:   16
atom: -------------------------------------------------------------------------

atom: SANKEY-TYPE ORBITALS:
atom: Selected multiple-zeta basis: split     

SPLIT: Orbitals with angular momentum L= 0

SPLIT: Basis orbitals for state 2s

SPLIT: PAO cut-off radius determined from an
SPLIT: energy shift=  0.020000 Ry

   izeta = 1
                 lambda =    1.000000
                     rc =    3.305093
                 energy =   -1.723766
                kinetic =    1.614911
    potential(screened) =   -3.338677
       potential(ionic) =  -11.304675

   izeta = 2
                 rmatch =    2.510382
              splitnorm =    0.150000
                 energy =   -1.471299
                kinetic =    2.446434
    potential(screened) =   -3.917732
       potential(ionic) =  -12.476133

SPLIT: Orbitals with angular momentum L= 1

SPLIT: Basis orbitals for state 2p

SPLIT: PAO cut-off radius determined from an
SPLIT: energy shift=  0.020000 Ry

   izeta = 1
                 lambda =    1.000000
                     rc =    3.937239
                 energy =   -0.658841
                kinetic =    5.005986
    potential(screened) =   -5.664827
       potential(ionic) =  -13.452360

   izeta = 2
                 rmatch =    2.541963
              splitnorm =    0.150000
                 energy =   -0.367441
                kinetic =    7.530509
    potential(screened) =   -7.897949
       potential(ionic) =  -16.611953

POLgen: Perturbative polarization orbital with L=  2

POLgen: Polarization orbital for state 2p

   izeta = 1
                     rc =    3.937239
                 energy =    2.398520
                kinetic =    4.716729
    potential(screened) =   -2.318209
       potential(ionic) =   -8.603170
atom: Total number of Sankey-type orbitals: 13

atm_pop: Valence configuration (for local Pseudopot. screening):
 2s( 2.00)                                                            
 2p( 4.00)                                                            
Vna: chval, zval:    6.00000   6.00000

Vna:  Cut-off radius for the neutral-atom potential:   3.937239

atom: _________________________________________________________________________

<basis_specs>
===============================================================================
H                    Z=   1    Mass=  1.0100        Charge= 0.17977+309
Lmxo=0 Lmxkb=2     BasisType=split      Semic=F
L=0  Nsemic=0  Cnfigmx=1
          n=1  nzeta=2  polorb=1
            splnorm:   0.15000    
               vcte:    0.0000    
               rinn:    0.0000    
                rcs:    0.0000      0.0000    
            lambdas:    1.0000      1.0000    
-------------------------------------------------------------------------------
L=0  Nkbl=1  erefs: 0.17977+309
L=1  Nkbl=1  erefs: 0.17977+309
L=2  Nkbl=1  erefs: 0.17977+309
===============================================================================
</basis_specs>

atom: Called for H                     (Z =   1)

read_vps: Pseudopotential generation method:
read_vps: ATM3      Troullier-Martins                       
Total valence charge:    1.00000

xc_check: Exchange-correlation functional:
xc_check: Ceperley-Alder
V l=0 = -2*Zval/r beyond r=  1.2343
V l=1 = -2*Zval/r beyond r=  1.2189
V l=2 = -2*Zval/r beyond r=  1.2189
All V_l potentials equal beyond r=  1.2343
This should be close to max(r_c) in ps generation
All pots = -2*Zval/r beyond r=  1.2343

VLOCAL1: 99.0% of the norm of Vloc inside     28.493 Ry
VLOCAL1: 99.9% of the norm of Vloc inside     64.935 Ry
atom: Maximum radius for 4*pi*r*r*local-pseudopot. charge    1.45251
atom: Maximum radius for r*vlocal+2*Zval:    1.21892
GHOST: No ghost state for L =  0
GHOST: No ghost state for L =  1
GHOST: No ghost state for L =  2

KBgen: Kleinman-Bylander projectors: 
   l= 0   rc=  1.364359   el= -0.467325   Ekb= -2.005361   kbcos= -0.336422
   l= 1   rc=  1.434438   el=  0.001430   Ekb= -0.501708   kbcos= -0.021697
   l= 2   rc=  1.470814   el=  0.002365   Ekb= -0.190555   kbcos= -0.002281

KBgen: Total number of  Kleinman-Bylander projectors:    9
atom: -------------------------------------------------------------------------

atom: SANKEY-TYPE ORBITALS:
atom: Selected multiple-zeta basis: split     

SPLIT: Orbitals with angular momentum L= 0

SPLIT: Basis orbitals for state 1s

SPLIT: PAO cut-off radius determined from an
SPLIT: energy shift=  0.020000 Ry

   izeta = 1
                 lambda =    1.000000
                     rc =    4.828263
                 energy =   -0.449375
                kinetic =    0.929372
    potential(screened) =   -1.378747
       potential(ionic) =   -1.915047

   izeta = 2
                 rmatch =    3.854947
              splitnorm =    0.150000
                 energy =   -0.336153
                kinetic =    1.505294
    potential(screened) =   -1.841447
       potential(ionic) =   -2.413582

POLgen: Perturbative polarization orbital with L=  1

POLgen: Polarization orbital for state 1s

   izeta = 1
                     rc =    4.828263
                 energy =    0.706972
                kinetic =    1.396397
    potential(screened) =   -0.689424
       potential(ionic) =   -1.169792
atom: Total number of Sankey-type orbitals:  5

atm_pop: Valence configuration (for local Pseudopot. screening):
 1s( 1.00)                                                            
Vna: chval, zval:    1.00000   1.00000

Vna:  Cut-off radius for the neutral-atom potential:   4.828263

atom: _________________________________________________________________________

prinput: Basis input ----------------------------------------------------------

PAO.BasisType split     

%block ChemicalSpeciesLabel
    1    8 O                       # Species index, atomic number, species label
    2    1 H                       # Species index, atomic number, species label
%endblock ChemicalSpeciesLabel

%block PAO.Basis                 # Define Basis set
O                     2                    # Species label, number of l-shells
 n=2   0   2                         # n, l, Nzeta 
   3.305      2.510   
   1.000      1.000   
 n=2   1   2 P   1                   # n, l, Nzeta, Polarization, NzetaPol
   3.937      2.542   
   1.000      1.000   
H                     1                    # Species label, number of l-shells
 n=1   0   2 P   1                   # n, l, Nzeta, Polarization, NzetaPol
   4.828      3.855   
   1.000      1.000   
%endblock PAO.Basis

prinput: ----------------------------------------------------------------------

coor:   Atomic-coordinates input format  =     Cartesian coordinates
coor:                                          (in Angstroms)

siesta: Atomic coordinates (Bohr) and species
siesta:      0.00000   0.00000   0.00000  1        1
siesta:      1.43052   1.10738   0.00000  2        2
siesta:     -1.43052   1.10738   0.00000  2        3

siesta: Automatic unit cell vectors (Ang):
siesta:    7.286412    0.000000    0.000000
siesta:    0.000000    5.746952    0.000000
siesta:    0.000000    0.000000    5.621012

siesta: System type = molecule  

initatomlists: Number of atoms, orbitals, and projectors:      3    23    34

siesta: ******************** Simulation parameters ****************************
siesta:
siesta: The following are some of the parameters of the simulation.
siesta: A complete list of the parameters used, including default values,
siesta: can be found in file out.fdf
siesta:
redata: Non-Collinear-spin run           =     F
redata: SpinPolarized (Up/Down) run      =     F
redata: Number of spin components        =     1
redata: Long output                      =     F
redata: Number of Atomic Species         =        2
redata: Charge density info will appear in .RHO file
redata: Write Mulliken Pop.              =     NO
redata: Mesh Cutoff                      =    50.0000  Ry
redata: Net charge of the system         =     0.0000 |e|
redata: Max. number of SCF Iter          =       50
redata: Performing Pulay mixing using    =     3 iterations
redata: Mix DM in first SCF step ?       =     F
redata: Write Pulay info on disk?        =     F
redata: Discard 1st Pulay DM after  kick =     F
redata: New DM Mixing Weight             =     0.2500
redata: New DM Occupancy tolerance       = 0.000000000001
redata: No kicks to SCF
redata: DM Mixing Weight for Kicks       =     0.5000
redata: DM Tolerance for SCF             =     0.000100
redata: Require Energy convergence for SCF =     F
redata: DM Energy tolerance for SCF      =     0.000100 eV
redata: Require Harris convergence for SCF =     F
redata: DM Harris energy tolerance for SCF =     0.000100 eV
redata: Using Saved Data (generic)   =     F
redata: Use continuation files for DM    =     F
redata: Neglect nonoverlap interactions  =     F
redata: Method of Calculation            =     Diagonalization
redata: Divide and Conquer               =     T
redata: Electronic Temperature           =     0.0019  Ry
redata: Fix the spin of the system       =     F
redata: Dynamics option                  =     Broyden coord. optimization
redata: Variable cell                    =     F
redata: Maximum number of CG moves       =       40
redata: Force tolerance                  =     0.0004  Ry/Bohr
redata: ***********************************************************************
Total number of electrons:     8.000000
Total ionic charge:     8.000000
 Kpoints in:            1 . Kpoints trimmed:            1

siesta: k-grid: Number of k-points =     1
siesta: k-grid: Cutoff (effective) =     2.811 Ang
siesta: k-grid: Supercell and displacements
siesta: k-grid:    1   0   0      0.000
siesta: k-grid:    0   1   0      0.000
siesta: k-grid:    0   0   1      0.000

* Maximum dynamic memory allocated =     2 MB

siesta:                 ==============================
                            Begin CG move =      0
                        ==============================

outcell: Unit cell vectors (Ang):
        7.286412    0.000000    0.000000
        0.000000    5.746952    0.000000
        0.000000    0.000000    5.621012

outcell: Cell vector modules (Ang)   :    7.286412    5.746952    5.621012
outcell: Cell angles (23,13,12) (deg):     90.0000     90.0000     90.0000
outcell: Cell volume (Ang**3)        :    235.3780
New_DM. Step:     1
Initializing Density Matrix...

InitMesh: MESH =    32 x    30 x    24 =       23040
InitMesh: Mesh cutoff (required, used) =    50.000    50.384 Ry

* Maximum dynamic memory allocated =     3 MB

stepf: Fermi-Dirac step function

siesta: Program's energy decomposition (eV):
siesta: Ebs     =      -122.646833
siesta: Eions   =       815.854478
siesta: Ena     =       175.154321
siesta: Ekin    =       341.667405
siesta: Enl     =       -52.736757
siesta: DEna    =        -0.000022
siesta: DUscf   =         0.000000
siesta: DUext   =         0.000000
siesta: Exc     =      -109.951257
siesta: eta*DQ  =         0.000000
siesta: Emadel  =         0.000000
siesta: Emeta   =         0.000000
siesta: Emolmec =         0.000000
siesta: Ekinion =         0.000000
siesta: Eharris =      -466.432292
siesta: Etot    =      -461.720789
siesta: FreeEng =      -461.720789

siesta: iscf   Eharris(eV)      E_KS(eV)   FreeEng(eV)   dDmax  Ef(eV)
siesta:    1     -466.4323     -461.7208     -461.7208  1.4387 -4.2540
timer: Routine,Calls,Time,% = IterSCF        1       1.631  68.14
elaps: Routine,Calls,Wall,% = IterSCF        1       1.631  68.09
siesta:    2     -466.8722     -465.2445     -465.2445  0.1756 -0.1529
siesta:    3     -465.9118     -465.3184     -465.3184  0.0584 -1.6900
siesta:    4     -465.8412     -465.6146     -465.6146  0.0148 -2.1536
siesta:    5     -465.8409     -465.6664     -465.6664  0.0112 -2.1614
siesta:    6     -465.8407     -465.7934     -465.7934  0.0047 -2.1627
siesta:    7     -465.8407     -465.8144     -465.8144  0.0030 -2.1570
siesta:    8     -465.8407     -465.8306     -465.8306  0.0012 -2.1570
siesta:    9     -465.8407     -465.8395     -465.8395  0.0003 -2.1593
siesta:   10     -465.8407     -465.8399     -465.8399  0.0002 -2.1592
siesta:   11     -465.8407     -465.8400     -465.8400  0.0000 -2.1586

siesta: E_KS(eV) =             -465.8402

siesta: E_KS - E_eggbox =      -465.8402

siesta: Atomic forces (eV/Ang):
     1    0.000009   -0.501693    0.000000
     2    0.718324    0.278844    0.000000
     3   -0.718324    0.278845    0.000000
----------------------------------------
   Tot    0.000009    0.055997    0.000000
----------------------------------------
   Max    0.718324
   Res    0.399886    sqrt( Sum f_i^2 / 3N )
----------------------------------------
   Max    0.718324    constrained

Stress-tensor-Voigt (kbar):      -20.21       -3.68       22.43        0.00        0.00        0.00
(Free)E + p*V (eV/cell)     -465.7689
Target enthalpy (eV/cell)     -465.8402
 
Broyden_optim: max_history for broyden:   6
Broyden_optim: cycle on maxit: T
Broyden_optim: initial inverse jacobian:   1.0000
 
Broyden_optim: No of elements:      9

* Maximum dynamic memory allocated =     4 MB

siesta:                 ==============================
                            Begin CG move =      1
                        ==============================

outcell: Unit cell vectors (Ang):
        7.286412    0.000000    0.000000
        0.000000    5.746952    0.000000
        0.000000    0.000000    5.621012

outcell: Cell vector modules (Ang)   :    7.286412    5.746952    5.621012
outcell: Cell angles (23,13,12) (deg):     90.0000     90.0000     90.0000
outcell: Cell volume (Ang**3)        :    235.3780
New_DM. Step:     2
Re-using DM from previous geometry...
Re-using DM without extrapolation (not allowed)
Density Matrix sparsity pattern changed.

siesta: iscf   Eharris(eV)      E_KS(eV)   FreeEng(eV)   dDmax  Ef(eV)
siesta:    1     -465.8453     -465.6099     -465.6099  0.0412 -2.1006
siesta:    2     -465.8473     -465.8419     -465.8419  0.0144 -2.3100
siesta:    3     -465.8440     -465.8000     -465.8000  0.0037 -2.2067
siesta:    4     -465.8439     -465.8377     -465.8377  0.0010 -2.1854
siesta:    5     -465.8438     -465.8395     -465.8395  0.0007 -2.1859
siesta:    6     -465.8439     -465.8436     -465.8436  0.0000 -2.1871

siesta: E_KS(eV) =             -465.8436

siesta: Atomic forces (eV/Ang):
     1   -0.000038    1.258831    0.000000
     2   -0.179742   -0.342730    0.000000
     3    0.179751   -0.342737    0.000000
----------------------------------------
   Tot   -0.000029    0.573364    0.000000
----------------------------------------
   Max    1.258831
   Res    0.457555    sqrt( Sum f_i^2 / 3N )
----------------------------------------
   Max    1.258831    constrained

Stress-tensor-Voigt (kbar):      -11.31        1.52       22.72        0.00        0.00        0.00
(Free)E + p*V (eV/cell)     -466.4764
Target enthalpy (eV/cell)     -465.8436

* Maximum dynamic memory allocated =     4 MB

siesta:                 ==============================
                            Begin CG move =      2
                        ==============================

outcell: Unit cell vectors (Ang):
        7.286412    0.000000    0.000000
        0.000000    5.746952    0.000000
        0.000000    0.000000    5.621012

outcell: Cell vector modules (Ang)   :    7.286412    5.746952    5.621012
outcell: Cell angles (23,13,12) (deg):     90.0000     90.0000     90.0000
outcell: Cell volume (Ang**3)        :    235.3780
New_DM. Step:     3
Re-using DM from previous geometry...
Re-using DM without extrapolation (not allowed)
Density Matrix sparsity pattern changed.

siesta: iscf   Eharris(eV)      E_KS(eV)   FreeEng(eV)   dDmax  Ef(eV)
siesta:    1     -465.8530     -465.9502     -465.9502  0.0226 -2.1759
siesta:    2     -465.8541     -465.8514     -465.8514  0.0099 -2.0183
siesta:    3     -465.8524     -465.8736     -465.8736  0.0035 -2.0968
siesta:    4     -465.8524     -465.8539     -465.8539  0.0006 -2.1097
siesta:    5     -465.8524     -465.8533     -465.8533  0.0004 -2.1099
siesta:    6     -465.8523     -465.8523     -465.8523  0.0000 -2.1100

siesta: E_KS(eV) =             -465.8524

siesta: Atomic forces (eV/Ang):
     1    0.000051   -0.030904    0.000028
     2    0.161259   -0.006108    0.000001
     3   -0.161277   -0.006095    0.000000
----------------------------------------
   Tot    0.000033   -0.043107    0.000029
----------------------------------------
   Max    0.161277
   Res    0.076771    sqrt( Sum f_i^2 / 3N )
----------------------------------------
   Max    0.161277    constrained

Stress-tensor-Voigt (kbar):      -14.89       -1.44       22.54        0.00        0.00        0.00
(Free)E + p*V (eV/cell)     -466.1567
Target enthalpy (eV/cell)     -465.8524

* Maximum dynamic memory allocated =     4 MB

siesta:                 ==============================
                            Begin CG move =      3
                        ==============================

outcell: Unit cell vectors (Ang):
        7.286412    0.000000    0.000000
        0.000000    5.746952    0.000000
        0.000000    0.000000    5.621012

outcell: Cell vector modules (Ang)   :    7.286412    5.746952    5.621012
outcell: Cell angles (23,13,12) (deg):     90.0000     90.0000     90.0000
outcell: Cell volume (Ang**3)        :    235.3780
New_DM. Step:     4
Re-using DM from previous geometry...
Re-using DM without extrapolation (not allowed)
Density Matrix sparsity pattern changed.

siesta: iscf   Eharris(eV)      E_KS(eV)   FreeEng(eV)   dDmax  Ef(eV)
siesta:    1     -465.8532     -465.8263     -465.8263  0.0064 -2.0858
siesta:    2     -465.8532     -465.8532     -465.8532  0.0005 -2.0817
siesta:    3     -465.8532     -465.8521     -465.8521  0.0003 -2.0827
siesta:    4     -465.8532     -465.8530     -465.8530  0.0001 -2.0842

siesta: E_KS(eV) =             -465.8531

siesta: Atomic forces (eV/Ang):
     1   -0.000241   -0.025897    0.000121
     2    0.028703   -0.045770    0.000000
     3   -0.028601   -0.045846    0.000001
----------------------------------------
   Tot   -0.000140   -0.117512    0.000121
----------------------------------------
   Max    0.045846
   Res    0.026893    sqrt( Sum f_i^2 / 3N )
----------------------------------------
   Max    0.045846    constrained

Stress-tensor-Voigt (kbar):      -13.62       -1.13       22.56        0.00        0.00        0.00
(Free)E + p*V (eV/cell)     -466.2355
Target enthalpy (eV/cell)     -465.8531

* Maximum dynamic memory allocated =     4 MB

siesta:                 ==============================
                            Begin CG move =      4
                        ==============================

outcell: Unit cell vectors (Ang):
        7.286412    0.000000    0.000000
        0.000000    5.746952    0.000000
        0.000000    0.000000    5.621012

outcell: Cell vector modules (Ang)   :    7.286412    5.746952    5.621012
outcell: Cell angles (23,13,12) (deg):     90.0000     90.0000     90.0000
outcell: Cell volume (Ang**3)        :    235.3780
New_DM. Step:     5
Re-using DM from previous geometry...
Re-using DM without extrapolation (not allowed)
Density Matrix sparsity pattern changed.

siesta: iscf   Eharris(eV)      E_KS(eV)   FreeEng(eV)   dDmax  Ef(eV)
siesta:    1     -465.8529     -465.8277     -465.8277  0.0045 -2.0746
siesta:    2     -465.8529     -465.8528     -465.8528  0.0014 -2.0963
siesta:    3     -465.8529     -465.8485     -465.8485  0.0004 -2.0860
siesta:    4     -465.8529     -465.8523     -465.8523  0.0001 -2.0838
siesta:    5     -465.8529     -465.8524     -465.8524  0.0001 -2.0839

siesta: E_KS(eV) =             -465.8529

siesta: Atomic forces (eV/Ang):
     1    0.004598    0.373220    0.002345
     2   -0.073134   -0.109385   -0.000005
     3    0.071111   -0.107908   -0.000005
----------------------------------------
   Tot    0.002575    0.155926    0.002336
----------------------------------------
   Max    0.373220
   Res    0.138778    sqrt( Sum f_i^2 / 3N )
----------------------------------------
   Max    0.373220    constrained

Stress-tensor-Voigt (kbar):      -12.62       -0.58       22.59        0.01        0.00        0.00
(Free)E + p*V (eV/cell)     -466.3125
Target enthalpy (eV/cell)     -465.8529

* Maximum dynamic memory allocated =     4 MB

siesta:                 ==============================
                            Begin CG move =      5
                        ==============================

outcell: Unit cell vectors (Ang):
        7.286412    0.000000    0.000000
        0.000000    5.746952    0.000000
        0.000000    0.000000    5.621012

outcell: Cell vector modules (Ang)   :    7.286412    5.746952    5.621012
outcell: Cell angles (23,13,12) (deg):     90.0000     90.0000     90.0000
outcell: Cell volume (Ang**3)        :    235.3780
New_DM. Step:     6
Re-using DM from previous geometry...
Re-using DM without extrapolation (not allowed)

siesta: iscf   Eharris(eV)      E_KS(eV)   FreeEng(eV)   dDmax  Ef(eV)
siesta:    1     -465.8538     -465.8769     -465.8769  0.0064 -2.0744
siesta:    2     -465.8538     -465.8536     -465.8536  0.0032 -2.0223
siesta:    3     -465.8537     -465.8588     -465.8588  0.0013 -2.0482
siesta:    4     -465.8537     -465.8540     -465.8540  0.0001 -2.0525
siesta:    5     -465.8537     -465.8538     -465.8538  0.0001 -2.0526

siesta: E_KS(eV) =             -465.8536

siesta: Atomic forces (eV/Ang):
     1   -0.018564    0.033838    0.014592
     2   -0.002319   -0.009090   -0.000038
     3    0.010350   -0.014923   -0.000040
----------------------------------------
   Tot   -0.010533    0.009826    0.014514
----------------------------------------
   Max    0.033838
   Res    0.015349    sqrt( Sum f_i^2 / 3N )
----------------------------------------
   Max    0.033838    constrained

Stress-tensor-Voigt (kbar):      -13.36       -1.37       22.54       -0.03        0.00        0.00
(Free)E + p*V (eV/cell)     -466.2360
Target enthalpy (eV/cell)     -465.8536

* Maximum dynamic memory allocated =     4 MB

siesta:                 ==============================
                            Begin CG move =      6
                        ==============================

outcell: Unit cell vectors (Ang):
        7.286412    0.000000    0.000000
        0.000000    5.746952    0.000000
        0.000000    0.000000    5.621012

outcell: Cell vector modules (Ang)   :    7.286412    5.746952    5.621012
outcell: Cell angles (23,13,12) (deg):     90.0000     90.0000     90.0000
outcell: Cell volume (Ang**3)        :    235.3780
New_DM. Step:     7
Re-using DM from previous geometry...
Re-using DM without extrapolation (not allowed)

siesta: iscf   Eharris(eV)      E_KS(eV)   FreeEng(eV)   dDmax  Ef(eV)
siesta:    1     -465.8537     -465.8535     -465.8535  0.0002 -2.0519
siesta:    2     -465.8537     -465.8537     -465.8537  0.0001 -2.0504

siesta: E_KS(eV) =             -465.8536

siesta: Atomic forces (eV/Ang):
     1   -0.002777    0.026846    0.025026
     2   -0.007432   -0.009713    0.000079
     3    0.008546   -0.010782    0.000079
----------------------------------------
   Tot   -0.001663    0.006351    0.025184
----------------------------------------
   Max    0.026846
   Res    0.013718    sqrt( Sum f_i^2 / 3N )
----------------------------------------
   Max    0.026846    constrained

Stress-tensor-Voigt (kbar):      -13.35       -1.38       22.54       -0.01        0.00        0.00
(Free)E + p*V (eV/cell)     -466.2360
Target enthalpy (eV/cell)     -465.8536

* Maximum dynamic memory allocated =     4 MB

siesta:                 ==============================
                            Begin CG move =      7
                        ==============================

outcell: Unit cell vectors (Ang):
        7.286412    0.000000    0.000000
        0.000000    5.746952    0.000000
        0.000000    0.000000    5.621012

outcell: Cell vector modules (Ang)   :    7.286412    5.746952    5.621012
outcell: Cell angles (23,13,12) (deg):     90.0000     90.0000     90.0000
outcell: Cell volume (Ang**3)        :    235.3780
New_DM. Step:     8
Re-using DM from previous geometry...
Re-using DM without extrapolation (not allowed)

siesta: iscf   Eharris(eV)      E_KS(eV)   FreeEng(eV)   dDmax  Ef(eV)
siesta:    1     -465.8537     -465.8556     -465.8556  0.0004 -2.0511
siesta:    2     -465.8536     -465.8536     -465.8536  0.0002 -2.0487
siesta:    3     -465.8537     -465.8540     -465.8540  0.0001 -2.0498

siesta: E_KS(eV) =             -465.8537

siesta: Atomic forces (eV/Ang):
     1   -0.001881   -0.002878    0.002332
     2   -0.001190   -0.003897   -0.000025
     3    0.002031   -0.004511   -0.000026
----------------------------------------
   Tot   -0.001040   -0.011286    0.002282
----------------------------------------
   Max    0.004511
   Res    0.002546    sqrt( Sum f_i^2 / 3N )
----------------------------------------
   Max    0.004511    constrained

Stress-tensor-Voigt (kbar):      -13.42       -1.43       22.53        0.00        0.00        0.00
(Free)E + p*V (eV/cell)     -466.2302
Target enthalpy (eV/cell)     -465.8537

* Maximum dynamic memory allocated =     4 MB

outcoor: Relaxed atomic coordinates (Ang):                  
    0.00000875    0.00088566    0.00001425   1       1  O
    0.77771271    0.58047537   -0.00000083   2       2  H
   -0.77771712    0.58048009   -0.00000072   2       3  H

siesta: Program's energy decomposition (eV):
siesta: Ebs     =      -103.901573
siesta: Eions   =       815.854478
siesta: Ena     =       175.064097
siesta: Ekin    =       349.659910
siesta: Enl     =       -61.500026
siesta: DEna    =        -1.333132
siesta: DUscf   =         0.730048
siesta: DUext   =         0.000000
siesta: Exc     =      -112.620103
siesta: eta*DQ  =         0.000000
siesta: Emadel  =         0.000000
siesta: Emeta   =         0.000000
siesta: Emolmec =         0.000000
siesta: Ekinion =         0.000000
siesta: Eharris =      -465.853666
siesta: Etot    =      -465.853685
siesta: FreeEng =      -465.853685

siesta: Final energy (eV):
siesta:  Band Struct. =    -103.901573
siesta:       Kinetic =     349.659910
siesta:       Hartree =     380.784716
siesta:    Ext. field =       0.000000
siesta:   Exch.-corr. =    -112.620103
siesta:  Ion-electron =   -1067.577593
siesta:       Ion-ion =     -16.100615
siesta:       Ekinion =       0.000000
siesta:         Total =    -465.853685

siesta: Stress tensor (static) (eV/Ang**3):
siesta:    -0.008373   -0.000002    0.000000
siesta:    -0.000002   -0.000892    0.000000
siesta:     0.000000    0.000000    0.014065

siesta: Cell volume =        235.378012 Ang**3

siesta: Pressure (static):
siesta:                Solid            Molecule  Units
siesta:          -0.00001742         -0.00001738  Ry/Bohr**3
siesta:          -0.00159979         -0.00159552  eV/Ang**3
siesta:          -2.56317865         -2.55633348  kBar
(Free)E+ p_basis*V_orbitals  =        -465.268518
(Free)Eharris+ p_basis*V_orbitals  =        -465.268191

siesta: Electric dipole (a.u.)  =   -0.000010    0.550632   -0.000006
siesta: Electric dipole (Debye) =   -0.000027    1.399567   -0.000016

* Maximum dynamic memory allocated : Node    0 =     4 MB

* Maximum memory occured during ranger                        

timer: CPU execution times:
timer:  Routine       Calls   Time/call    Tot.time        %
timer:  siesta            1       3.935       3.935   100.00
timer:  Setup             1       0.328       0.328     8.33
timer:  bands             1       0.000       0.000     0.00
timer:  writewave         1       0.000       0.000     0.01
timer:  KSV_init          1       0.000       0.000     0.00
timer:  IterMD            8       0.450       3.602    91.53
timer:  hsparse           8       0.001       0.005     0.12
timer:  overlap           8       0.054       0.436    11.08
timer:  IterSCF          42       0.064       2.689    68.32
timer:  kinefsm          16       0.026       0.422    10.71
timer:  nlefsm           16       0.075       1.206    30.65
timer:  DHSCF            50       0.029       1.440    36.59
timer:  DHSCF1            1       0.006       0.006     0.16
timer:  DHSCF2            8       0.031       0.244     6.21
timer:  REORD           416       0.000       0.026     0.66
timer:  POISON           58       0.003       0.155     3.93
timer:  DHSCF3           50       0.019       0.928    23.59
timer:  rhoofd           50       0.005       0.257     6.53
timer:  cellXC           50       0.005       0.250     6.36
timer:  vmat             50       0.004       0.224     5.68
timer:  MolMec           16       0.000       0.000     0.00
timer:  diagon           42       0.000       0.016     0.40
timer:  r-eigvec         42       0.000       0.014     0.36
timer:  r-buildHS        42       0.000       0.000     0.01
timer:  rdiag            42       0.000       0.014     0.35
timer:  rdiag1           42       0.000       0.001     0.02
timer:  rdiag2           42       0.000       0.001     0.04
timer:  rdiag3           42       0.000       0.010     0.25
timer:  rdiag4           42       0.000       0.001     0.02
timer:  r-buildD         42       0.000       0.000     0.01
timer:  DHSCF4            8       0.032       0.257     6.54
timer:  dfscf             8       0.027       0.216     5.48
timer:  overfsm           8       0.001       0.005     0.12
timer:  optical           1       0.000       0.000     0.00
  

elaps: ELAPSED times:
elaps:  Routine       Calls   Time/call    Tot.time        %
elaps:  siesta            1       3.936       3.936    99.99
elaps:  Setup             1       0.328       0.328     8.35
elaps:  bands             1       0.000       0.000     0.00
elaps:  writewave         1       0.001       0.001     0.01
elaps:  KSV_init          1       0.000       0.000     0.00
elaps:  IterMD            8       0.450       3.602    91.50
elaps:  hsparse           8       0.001       0.005     0.12
elaps:  overlap           8       0.055       0.437    11.10
elaps:  IterSCF          42       0.064       2.688    68.29
elaps:  kinefsm          16       0.026       0.422    10.71
elaps:  nlefsm           16       0.075       1.206    30.63
elaps:  DHSCF            50       0.029       1.440    36.58
elaps:  DHSCF1            1       0.006       0.006     0.16
elaps:  DHSCF2            8       0.031       0.244     6.21
elaps:  REORD           416       0.000       0.025     0.64
elaps:  POISON           58       0.003       0.155     3.93
elaps:  DHSCF3           50       0.019       0.929    23.59
elaps:  rhoofd           50       0.005       0.257     6.53
elaps:  cellXC           50       0.005       0.250     6.36
elaps:  vmat             50       0.004       0.224     5.68
elaps:  MolMec           16       0.000       0.000     0.00
elaps:  diagon           42       0.000       0.016     0.40
elaps:  r-eigvec         42       0.000       0.014     0.36
elaps:  r-buildHS        42       0.000       0.000     0.00
elaps:  rdiag            42       0.000       0.014     0.36
elaps:  rdiag1           42       0.000       0.001     0.03
elaps:  rdiag2           42       0.000       0.001     0.03
elaps:  rdiag3           42       0.000       0.010     0.25
elaps:  rdiag4           42       0.000       0.001     0.02
elaps:  r-buildD         42       0.000       0.000     0.01
elaps:  DHSCF4            8       0.032       0.257     6.54
elaps:  dfscf             8       0.027       0.216     5.48
elaps:  overfsm           8       0.001       0.004     0.11
elaps:  optical           1       0.000       0.000     0.00
  
>> End of run:  10-JUN-2011  14:34:03
