Siesta Version: siesta@uam.es--2006/siesta-devel--reference--2.1--patch-34
Architecture  : intel9 with Siesta libs
Compiler flags: ifort -w -O2 -mp
SERIAL version

* Running in serial mode
>> Start of run:  25-JAN-2007  18:01:45

                           ***********************       
                           *  WELCOME TO SIESTA  *       
                           ***********************       

reinit: Reading from standard input
************************** Dump of input data file ****************************
SystemName          Water molecule Broyden Optimization
SystemLabel         h2o_op_broyden
NumberOfAtoms       3
NumberOfSpecies     2
MeshCutoff  50 Ry
%block ChemicalSpeciesLabel
 1  8  O      # Species index, atomic number, species label
 2  1  H
%endblock ChemicalSpeciesLabel
AtomicCoordinatesFormat  Ang
%block AtomicCoordinatesAndAtomicSpecies
 0.000  0.000  0.000  1
 0.757  0.586  0.000  2
-0.757  0.586  0.000  2
%endblock AtomicCoordinatesAndAtomicSpecies
DM.Number.Pulay 3
WriteForces T
MD.TypeOfRun Broyden
MD.NumCGSteps 20
MD.Broyden.History.Steps 6
MD.Broyden.Initial.Inverse.Jacobian 1.0
************************** End of input data file *****************************

reinit: -----------------------------------------------------------------------
reinit: System Name: Water molecule Broyden Optimization                        
reinit: -----------------------------------------------------------------------
reinit: System Label: h2o_op_broyden                                              
reinit: -----------------------------------------------------------------------

initatom: Reading input for the pseudopotentials and atomic orbitals ----------
 Species number:            1  Label: O Atomic number:           8
 Species number:            2  Label: H Atomic number:           1
Ground state valence configuration:   2s02  2p04
Reading pseudopotential information in formatted form from O.psf

Valence configuration for pseudopotential generation:
2s( 2.00) rc: 1.14
2p( 4.00) rc: 1.14
3d( 0.00) rc: 1.14
4f( 0.00) rc: 1.14
Dumping pseudopotential information in formatted form in O.psdump
Ground state valence configuration:   1s01
Reading pseudopotential information in formatted form from H.psf

Valence configuration for pseudopotential generation:
1s( 1.00) rc: 1.25
2p( 0.00) rc: 1.25
3d( 0.00) rc: 1.25
4f( 0.00) rc: 1.25
Dumping pseudopotential information in formatted form in H.psdump
For O, standard SIESTA heuristics set lmxkb to 3
 (one more than the basis l, including polarization orbitals).
Use PS.lmax or PS.KBprojectors blocks to override.
For H, standard SIESTA heuristics set lmxkb to 2
 (one more than the basis l, including polarization orbitals).
Use PS.lmax or PS.KBprojectors blocks to override.

<basis_specs>
===============================================================================
O                    Z=   8    Mass=  16.000        Charge= 0.17977+309
Lmxo=1 Lmxkb=3     BasisType=split      Semic=F
L=0  Nsemic=0  Cnfigmx=2
          n=1  nzeta=2  polorb=0
            splnorm:   0.15000    
               vcte:    0.0000    
               rinn:    0.0000    
                rcs:    0.0000      0.0000    
            lambdas:    1.0000      1.0000    
L=1  Nsemic=0  Cnfigmx=2
          n=1  nzeta=2  polorb=1
            splnorm:   0.15000    
               vcte:    0.0000    
               rinn:    0.0000    
                rcs:    0.0000      0.0000    
            lambdas:    1.0000      1.0000    
-------------------------------------------------------------------------------
L=0  Nkbl=1  erefs: 0.17977+309
L=1  Nkbl=1  erefs: 0.17977+309
L=2  Nkbl=1  erefs: 0.17977+309
L=3  Nkbl=1  erefs: 0.17977+309
===============================================================================
</basis_specs>

atom: Called for O                     (Z =   8)

read_vps: Pseudopotential generation method:
read_vps: ATM3      Troullier-Martins                       
Total valence charge:    6.00000

xc_check: Exchange-correlation functional:
xc_check: Ceperley-Alder
V l=0 = -2*Zval/r beyond r=  1.1278
V l=1 = -2*Zval/r beyond r=  1.1278
V l=2 = -2*Zval/r beyond r=  1.1278
V l=3 = -2*Zval/r beyond r=  1.1138
All V_l potentials equal beyond r=  1.1278
This should be close to max(r_c) in ps generation
All pots = -2*Zval/r beyond r=  1.1278

VLOCAL1: 99.0% of the norm of Vloc inside     34.126 Ry
VLOCAL1: 99.9% of the norm of Vloc inside     77.774 Ry
atom: Maximum radius for 4*pi*r*r*local-pseudopot. charge    1.37759
atom: Maximum radius for r*vlocal+2*Zval:    1.18566
GHOST: No ghost state for L =  0
GHOST: No ghost state for L =  1
GHOST: No ghost state for L =  2
GHOST: No ghost state for L =  3

KBgen: Kleinman-Bylander projectors: 
   l= 0   rc=  1.294105   el= -1.742414   Ekb=  9.135903   kbcos=  0.326910
   l= 1   rc=  1.294105   el= -0.676589   Ekb= -8.124878   kbcos= -0.395047
   l= 2   rc=  1.448233   el=  0.002386   Ekb= -2.039267   kbcos= -0.003484
   l= 3   rc=  1.561052   el=  0.003508   Ekb= -0.799141   kbcos= -0.000344

KBgen: Total number of  Kleinman-Bylander projectors:   16
atom: -------------------------------------------------------------------------

atom: SANKEY-TYPE ORBITALS:
atom: Selected multiple-zeta basis: split     

SPLIT: Orbitals with angular momentum L= 0

SPLIT: Basis orbitals for state 2s

SPLIT: PAO cut-off radius determined from an
SPLIT: energy shift=  0.020000 Ry

   izeta = 1
                 lambda =    1.000000
                     rc =    3.305093
                 energy =   -1.723766
                kinetic =    1.614911
    potential(screened) =   -3.338677
       potential(ionic) =  -11.304675

   izeta = 2
                 rmatch =    2.510382
              splitnorm =    0.150000
                 energy =   -1.471299
                kinetic =    2.446434
    potential(screened) =   -3.917732
       potential(ionic) =  -12.476133

SPLIT: Orbitals with angular momentum L= 1

SPLIT: Basis orbitals for state 2p

SPLIT: PAO cut-off radius determined from an
SPLIT: energy shift=  0.020000 Ry

   izeta = 1
                 lambda =    1.000000
                     rc =    3.937239
                 energy =   -0.658841
                kinetic =    5.005986
    potential(screened) =   -5.664827
       potential(ionic) =  -13.452360

   izeta = 2
                 rmatch =    2.541963
              splitnorm =    0.150000
                 energy =   -0.367441
                kinetic =    7.530509
    potential(screened) =   -7.897949
       potential(ionic) =  -16.611953

POLgen: Perturbative polarization orbital with L=  2

POLgen: Polarization orbital for state 2p

   izeta = 1
                     rc =    3.937239
                 energy =    2.398520
                kinetic =    4.716729
    potential(screened) =   -2.318209
       potential(ionic) =   -8.603170
atom: Total number of Sankey-type orbitals: 13

atm_pop: Valence configuration (for local Pseudopot. screening):
 2s( 2.00)                                                            
 2p( 4.00)                                                            
Vna: chval, zval:    6.00000   6.00000

Vna:  Cut-off radius for the neutral-atom potential:   3.937239

atom: _________________________________________________________________________

<basis_specs>
===============================================================================
H                    Z=   1    Mass=  1.0100        Charge= 0.17977+309
Lmxo=0 Lmxkb=2     BasisType=split      Semic=F
L=0  Nsemic=0  Cnfigmx=1
          n=1  nzeta=2  polorb=1
            splnorm:   0.15000    
               vcte:    0.0000    
               rinn:    0.0000    
                rcs:    0.0000      0.0000    
            lambdas:    1.0000      1.0000    
-------------------------------------------------------------------------------
L=0  Nkbl=1  erefs: 0.17977+309
L=1  Nkbl=1  erefs: 0.17977+309
L=2  Nkbl=1  erefs: 0.17977+309
===============================================================================
</basis_specs>

atom: Called for H                     (Z =   1)

read_vps: Pseudopotential generation method:
read_vps: ATM3      Troullier-Martins                       
Total valence charge:    1.00000

xc_check: Exchange-correlation functional:
xc_check: Ceperley-Alder
V l=0 = -2*Zval/r beyond r=  1.2343
V l=1 = -2*Zval/r beyond r=  1.2189
V l=2 = -2*Zval/r beyond r=  1.2189
All V_l potentials equal beyond r=  1.2343
This should be close to max(r_c) in ps generation
All pots = -2*Zval/r beyond r=  1.2343

VLOCAL1: 99.0% of the norm of Vloc inside     28.493 Ry
VLOCAL1: 99.9% of the norm of Vloc inside     64.935 Ry
atom: Maximum radius for 4*pi*r*r*local-pseudopot. charge    1.45251
atom: Maximum radius for r*vlocal+2*Zval:    1.21892
GHOST: No ghost state for L =  0
GHOST: No ghost state for L =  1
GHOST: No ghost state for L =  2

KBgen: Kleinman-Bylander projectors: 
   l= 0   rc=  1.364359   el= -0.467325   Ekb= -2.005361   kbcos= -0.336422
   l= 1   rc=  1.434438   el=  0.001430   Ekb= -0.501708   kbcos= -0.021697
   l= 2   rc=  1.470814   el=  0.002365   Ekb= -0.190555   kbcos= -0.002281

KBgen: Total number of  Kleinman-Bylander projectors:    9
atom: -------------------------------------------------------------------------

atom: SANKEY-TYPE ORBITALS:
atom: Selected multiple-zeta basis: split     

SPLIT: Orbitals with angular momentum L= 0

SPLIT: Basis orbitals for state 1s

SPLIT: PAO cut-off radius determined from an
SPLIT: energy shift=  0.020000 Ry

   izeta = 1
                 lambda =    1.000000
                     rc =    4.828263
                 energy =   -0.449375
                kinetic =    0.929372
    potential(screened) =   -1.378747
       potential(ionic) =   -1.915047

   izeta = 2
                 rmatch =    3.854947
              splitnorm =    0.150000
                 energy =   -0.336153
                kinetic =    1.505294
    potential(screened) =   -1.841447
       potential(ionic) =   -2.413582

POLgen: Perturbative polarization orbital with L=  1

POLgen: Polarization orbital for state 1s

   izeta = 1
                     rc =    4.828263
                 energy =    0.706972
                kinetic =    1.396397
    potential(screened) =   -0.689424
       potential(ionic) =   -1.169792
atom: Total number of Sankey-type orbitals:  5

atm_pop: Valence configuration (for local Pseudopot. screening):
 1s( 1.00)                                                            
Vna: chval, zval:    1.00000   1.00000

Vna:  Cut-off radius for the neutral-atom potential:   4.828263

atom: _________________________________________________________________________

prinput: Basis input ----------------------------------------------------------

PAO.BasisType split     

%block ChemicalSpeciesLabel
    1    8 O                       # Species index, atomic number, species label
    2    1 H                       # Species index, atomic number, species label
%endblock ChemicalSpeciesLabel

%block PAO.Basis                 # Define Basis set
O                     2                    # Species label, number of l-shells
 n=2   0   2                         # n, l, Nzeta 
   3.305      2.510   
   1.000      1.000   
 n=2   1   2 P   1                   # n, l, Nzeta, Polarization, NzetaPol
   3.937      2.542   
   1.000      1.000   
H                     1                    # Species label, number of l-shells
 n=1   0   2 P   1                   # n, l, Nzeta, Polarization, NzetaPol
   4.828      3.855   
   1.000      1.000   
%endblock PAO.Basis

prinput: ----------------------------------------------------------------------


siesta: ******************** Simulation parameters ****************************
siesta:
siesta: The following are some of the parameters of the simulation.
siesta: A complete list of the parameters used, including default values,
siesta: can be found in file out.fdf
siesta:
coor:   Atomic-coordinates input format  =     Cartesian coordinates
coor:                                          (in Angstroms)
redata: Number of spin components        =     1
redata: Long output                      =     F
redata: Number of Atomic Species         =     2
redata: Charge density info will appear in .RHO file
redata: Write Mulliken Pop.              =     NO
redata: Mesh Cutoff                      =    50.0000  Ry
redata: Net charge of the system         =     0.0000 |e|
redata: Max. number of SCF Iter          =    50
redata: Performing Pulay mixing using    =     3 iterations
redata: Mix DM in first SCF step ?       =     F
redata: Write Pulay info on disk?        =     F
redata: New DM Mixing Weight             =     0.2500
redata: New DM Occupancy tolerance       = 0.000000000001
redata: No kicks to SCF
redata: DM Mixing Weight for Kicks       =     0.5000
redata: DM Tolerance for SCF             =     0.000100
redata: Require Energy convergence for SCF =     F
redata: DM Energy tolerance for SCF      =     0.000100 eV
redata: Using Saved Data (generic)   =     F
redata: Use continuation files for DM    =     F
redata: Neglect nonoverlap interactions  =     F
redata: Method of Calculation            =     Diagonalization
redata: Divide and Conquer               =     T
redata: Electronic Temperature           =     0.0019  Ry
redata: Fix the spin of the system       =     F
redata: Dynamics option                  =     Broyden coord. optimization
redata: Variable cell                    =     F
redata: Maximum number of CG moves       =    20
redata: Force tolerance                  =     0.0016  Ry/Bohr
redata: ***********************************************************************

siesta: Atomic coordinates (Bohr) and species
siesta:      0.00000   0.00000   0.00000  1        1
siesta:      1.43052   1.10738   0.00000  2        2
siesta:     -1.43052   1.10738   0.00000  2        3

initatomlists: Number of atoms, orbitals, and projectors:      3    23    34
Total number of electrons:     8.000000
Total ionic charge:     8.000000

siesta: Automatic unit cell vectors (Ang):
siesta:    7.286412    0.000000    0.000000
siesta:    0.000000    5.746952    0.000000
siesta:    0.000000    0.000000    5.621012

siesta: System type = molecule  

siesta: k-grid: Number of k-points =     1
siesta: k-grid: Cutoff (effective) =     2.811 Ang
siesta: k-grid: Supercell and displacements
siesta: k-grid:    0   0   1      0.000
siesta: k-grid:    0   1   0      0.000
siesta: k-grid:    1   0   0      0.000

* Maximum dynamic memory allocated =     1 MB

siesta:                 ==============================
                            Begin CG move =      0
                        ==============================

outcell: Unit cell vectors (Ang):
        7.286412    0.000000    0.000000
        0.000000    5.746952    0.000000
        0.000000    0.000000    5.621012

outcell: Cell vector modules (Ang)   :    7.286412    5.746952    5.621012
outcell: Cell angles (23,13,12) (deg):     90.0000     90.0000     90.0000
outcell: Cell volume (Ang**3)        :    235.3780

InitMesh: MESH =    32 x    30 x    24 =       23040
InitMesh: Mesh cutoff (required, used) =    50.000    50.384 Ry

* Maximum dynamic memory allocated =     3 MB

stepf: Fermi-Dirac step function

siesta: Program's energy decomposition (eV):
siesta: Eions   =       815.854478
siesta: Ena     =       175.154321
siesta: Ekin    =       341.667405
siesta: Enl     =       -52.736757
siesta: DEna    =        -0.000001
siesta: DUscf   =         0.000000
siesta: DUext   =         0.000000
siesta: Exc     =      -109.951257
siesta: eta*DQ  =         0.000000
siesta: Emadel  =         0.000000
siesta: Emeta   =         0.000000
siesta: Emolmec =         0.000000
siesta: Ekinion =         0.000000
siesta: Eharris =      -466.432273
siesta: Etot    =      -461.720767
siesta: FreeEng =      -461.720767

siesta: iscf   Eharris(eV)      E_KS(eV)   FreeEng(eV)   dDmax  Ef(eV)
siesta:    1     -466.4323     -461.7208     -461.7208  1.4387 -4.2540
timer: Routine,Calls,Time,% = IterSCF        1       2.790  68.52
elaps: Routine,Calls,Wall,% = IterSCF        1       2.790  68.53
siesta:    2     -466.8722     -465.2445     -465.2445  0.1756 -0.1529
siesta:    3     -465.9118     -465.3184     -465.3184  0.0584 -1.6900
siesta:    4     -465.8412     -465.6146     -465.6146  0.0148 -2.1536
siesta:    5     -465.8408     -465.6664     -465.6664  0.0112 -2.1614
siesta:    6     -465.8407     -465.7933     -465.7933  0.0047 -2.1627
siesta:    7     -465.8407     -465.8144     -465.8144  0.0030 -2.1570
siesta:    8     -465.8407     -465.8306     -465.8306  0.0012 -2.1571
siesta:    9     -465.8407     -465.8395     -465.8395  0.0003 -2.1593
siesta:   10     -465.8407     -465.8399     -465.8399  0.0002 -2.1592
siesta:   11     -465.8407     -465.8400     -465.8400  0.0000 -2.1586

siesta: E_KS(eV) =             -465.8402

siesta: E_KS - E_eggbox =      -465.8402

siesta: Atomic forces (eV/Ang):
     1    0.000000   -0.501703    0.000000
     2    0.718325    0.278844    0.000000
     3   -0.718326    0.278844    0.000000
----------------------------------------
   Tot    0.000000    0.055986    0.000000
----------------------------------------
   Max    0.718326
   Res    0.399888    sqrt( Sum f_i^2 / 3N )
----------------------------------------
   Max    0.718326    constrained

Stress-tensor-Voigt (kbar):      -20.21       -3.68       22.43        0.00        0.00        0.00
Target enthalpy (eV/cell)     -465.8402
 
Broyden_optim: max_history for broyden:   6
Broyden_optim: cycle on maxit: T
Broyden_optim: initial inverse jacobian:   1.0000
 
Broyden_optim: No of elements:      9

* Maximum dynamic memory allocated =     3 MB

siesta:                 ==============================
                            Begin CG move =      1
                        ==============================

outcell: Unit cell vectors (Ang):
        7.286412    0.000000    0.000000
        0.000000    5.746952    0.000000
        0.000000    0.000000    5.621012

outcell: Cell vector modules (Ang)   :    7.286412    5.746952    5.621012
outcell: Cell angles (23,13,12) (deg):     90.0000     90.0000     90.0000
outcell: Cell volume (Ang**3)        :    235.3780

siesta: iscf   Eharris(eV)      E_KS(eV)   FreeEng(eV)   dDmax  Ef(eV)
siesta:    1     -465.8453     -465.6098     -465.6098  0.0412 -2.1006
siesta:    2     -465.8473     -465.8418     -465.8418  0.0144 -2.3100
siesta:    3     -465.8439     -465.7999     -465.7999  0.0037 -2.2067
siesta:    4     -465.8438     -465.8376     -465.8376  0.0010 -2.1854
siesta:    5     -465.8438     -465.8395     -465.8395  0.0007 -2.1859
siesta:    6     -465.8438     -465.8435     -465.8435  0.0000 -2.1871

siesta: E_KS(eV) =             -465.8435

siesta: Atomic forces (eV/Ang):
     1    0.000001    1.258965    0.000000
     2   -0.179756   -0.342743    0.000000
     3    0.179756   -0.342742    0.000000
----------------------------------------
   Tot    0.000001    0.573480    0.000000
----------------------------------------
   Max    1.258965
   Res    0.457598    sqrt( Sum f_i^2 / 3N )
----------------------------------------
   Max    1.258965    constrained

Stress-tensor-Voigt (kbar):      -11.31        1.52       22.72        0.00        0.00        0.00
Target enthalpy (eV/cell)     -465.8435

* Maximum dynamic memory allocated =     3 MB

siesta:                 ==============================
                            Begin CG move =      2
                        ==============================

outcell: Unit cell vectors (Ang):
        7.286412    0.000000    0.000000
        0.000000    5.746952    0.000000
        0.000000    0.000000    5.621012

outcell: Cell vector modules (Ang)   :    7.286412    5.746952    5.621012
outcell: Cell angles (23,13,12) (deg):     90.0000     90.0000     90.0000
outcell: Cell volume (Ang**3)        :    235.3780

siesta: iscf   Eharris(eV)      E_KS(eV)   FreeEng(eV)   dDmax  Ef(eV)
siesta:    1     -465.8530     -465.9502     -465.9502  0.0226 -2.1759
siesta:    2     -465.8541     -465.8514     -465.8514  0.0099 -2.0183
siesta:    3     -465.8524     -465.8736     -465.8736  0.0035 -2.0969
siesta:    4     -465.8523     -465.8539     -465.8539  0.0006 -2.1098
siesta:    5     -465.8524     -465.8533     -465.8533  0.0004 -2.1099
siesta:    6     -465.8523     -465.8523     -465.8523  0.0000 -2.1100

siesta: E_KS(eV) =             -465.8524

siesta: Atomic forces (eV/Ang):
     1   -0.000011   -0.030768    0.000002
     2    0.161269   -0.006102    0.000000
     3   -0.161269   -0.006103    0.000000
----------------------------------------
   Tot   -0.000012   -0.042974    0.000002
----------------------------------------
   Max    0.161269
   Res    0.076765    sqrt( Sum f_i^2 / 3N )
----------------------------------------
   Max    0.161269    constrained

Stress-tensor-Voigt (kbar):      -14.89       -1.44       22.54        0.00        0.00        0.00
Target enthalpy (eV/cell)     -465.8524

* Maximum dynamic memory allocated =     3 MB

siesta:                 ==============================
                            Begin CG move =      3
                        ==============================

outcell: Unit cell vectors (Ang):
        7.286412    0.000000    0.000000
        0.000000    5.746952    0.000000
        0.000000    0.000000    5.621012

outcell: Cell vector modules (Ang)   :    7.286412    5.746952    5.621012
outcell: Cell angles (23,13,12) (deg):     90.0000     90.0000     90.0000
outcell: Cell volume (Ang**3)        :    235.3780

siesta: iscf   Eharris(eV)      E_KS(eV)   FreeEng(eV)   dDmax  Ef(eV)
siesta:    1     -465.8532     -465.8263     -465.8263  0.0064 -2.0858
siesta:    2     -465.8532     -465.8532     -465.8532  0.0005 -2.0816
siesta:    3     -465.8532     -465.8520     -465.8520  0.0003 -2.0826
siesta:    4     -465.8532     -465.8529     -465.8529  0.0001 -2.0842

siesta: E_KS(eV) =             -465.8530

siesta: Atomic forces (eV/Ang):
     1    0.000054   -0.025634    0.000001
     2    0.028641   -0.045786    0.000000
     3   -0.028663   -0.045772   -0.000001
----------------------------------------
   Tot    0.000033   -0.117192    0.000001
----------------------------------------
   Max    0.045786
   Res    0.026854    sqrt( Sum f_i^2 / 3N )
----------------------------------------
   Max    0.045786    constrained

Stress-tensor-Voigt (kbar):      -13.62       -1.13       22.56        0.00        0.00        0.00
Target enthalpy (eV/cell)     -465.8530

* Maximum dynamic memory allocated =     3 MB

siesta:                 ==============================
                            Begin CG move =      4
                        ==============================

outcell: Unit cell vectors (Ang):
        7.286412    0.000000    0.000000
        0.000000    5.746952    0.000000
        0.000000    0.000000    5.621012

outcell: Cell vector modules (Ang)   :    7.286412    5.746952    5.621012
outcell: Cell angles (23,13,12) (deg):     90.0000     90.0000     90.0000
outcell: Cell volume (Ang**3)        :    235.3780

siesta: iscf   Eharris(eV)      E_KS(eV)   FreeEng(eV)   dDmax  Ef(eV)
siesta:    1     -465.8529     -465.8279     -465.8279  0.0044 -2.0745
siesta:    2     -465.8529     -465.8529     -465.8529  0.0014 -2.0957
siesta:    3     -465.8529     -465.8486     -465.8486  0.0004 -2.0857
siesta:    4     -465.8529     -465.8522     -465.8522  0.0001 -2.0835
siesta:    5     -465.8529     -465.8525     -465.8525  0.0001 -2.0836

siesta: E_KS(eV) =             -465.8529

siesta: Atomic forces (eV/Ang):
     1   -0.001040    0.367610    0.000025
     2   -0.071393   -0.107644    0.000000
     3    0.071838   -0.107967    0.000000
----------------------------------------
   Tot   -0.000596    0.152000    0.000025
----------------------------------------
   Max    0.367610
   Res    0.136886    sqrt( Sum f_i^2 / 3N )
----------------------------------------
   Max    0.367610    constrained

Stress-tensor-Voigt (kbar):      -12.63       -0.59       22.59        0.00        0.00        0.00
Target enthalpy (eV/cell)     -465.8529

* Maximum dynamic memory allocated =     3 MB

siesta:                 ==============================
                            Begin CG move =      5
                        ==============================

outcell: Unit cell vectors (Ang):
        7.286412    0.000000    0.000000
        0.000000    5.746952    0.000000
        0.000000    0.000000    5.621012

outcell: Cell vector modules (Ang)   :    7.286412    5.746952    5.621012
outcell: Cell angles (23,13,12) (deg):     90.0000     90.0000     90.0000
outcell: Cell volume (Ang**3)        :    235.3780

siesta: iscf   Eharris(eV)      E_KS(eV)   FreeEng(eV)   dDmax  Ef(eV)
siesta:    1     -465.8538     -465.8780     -465.8780  0.0067 -2.0736
siesta:    2     -465.8538     -465.8535     -465.8535  0.0034 -2.0188
siesta:    3     -465.8537     -465.8590     -465.8590  0.0013 -2.0460
siesta:    4     -465.8537     -465.8540     -465.8540  0.0001 -2.0506
siesta:    5     -465.8537     -465.8538     -465.8538  0.0001 -2.0507

siesta: E_KS(eV) =             -465.8536

siesta: Atomic forces (eV/Ang):
     1    0.004421    0.005251    0.000233
     2   -0.003735   -0.006929    0.000000
     3    0.001818   -0.005538    0.000000
----------------------------------------
   Tot    0.002504   -0.007216    0.000233
----------------------------------------
   Max    0.006929
   Res    0.003988    sqrt( Sum f_i^2 / 3N )
----------------------------------------
   Max    0.006929    constrained

Stress-tensor-Voigt (kbar):      -13.40       -1.42       22.53        0.01        0.00        0.00
Target enthalpy (eV/cell)     -465.8536

* Maximum dynamic memory allocated =     3 MB

outcoor: Relaxed atomic coordinates (Ang):                  
   -0.00002162    0.00079238    0.00000098   1       1  O
    0.77768695    0.58051661   -0.00000003   2       2  H
   -0.77767761    0.58050950   -0.00000012   2       3  H

siesta: Program's energy decomposition (eV):
siesta: Eions   =       815.854478
siesta: Ena     =       175.063686
siesta: Ekin    =       349.654348
siesta: Enl     =       -61.497234
siesta: DEna    =        -1.330996
siesta: DUscf   =         0.730047
siesta: DUext   =         0.000000
siesta: Exc     =      -112.618977
siesta: eta*DQ  =         0.000000
siesta: Emadel  =         0.000000
siesta: Emeta   =         0.000000
siesta: Emolmec =         0.000000
siesta: Ekinion =         0.000000
siesta: Eharris =      -465.853667
siesta: Etot    =      -465.853604
siesta: FreeEng =      -465.853604

siesta: Final energy (eV):
siesta:       Kinetic =     349.654348
siesta:       Hartree =     380.777460
siesta:    Ext. field =       0.000000
siesta:   Exch.-corr. =    -112.618977
siesta:  Ion-electron =   -1067.557172
siesta:       Ion-ion =     -16.109263
siesta:       Ekinion =       0.000000
siesta:         Total =    -465.853604

siesta: Stress tensor (static) (eV/Ang**3):
siesta:    -0.008364    0.000005    0.000000
siesta:     0.000005   -0.000884    0.000000
siesta:     0.000000    0.000000    0.014064

siesta: Cell volume =        235.378012 Ang**3

siesta: Pressure (static):
siesta:                Solid            Molecule  Units
siesta:          -0.00001748         -0.00001735  Ry/Bohr**3
siesta:          -0.00160537         -0.00159297  eV/Ang**3
siesta:          -2.57210900         -2.55224007  kBar

siesta: Electric dipole (a.u.)  =    0.000028    0.550769   -0.000002
siesta: Electric dipole (Debye) =    0.000071    1.399916   -0.000005

* Maximum dynamic memory allocated : Node    0 =     3 MB

* Maximum memory occured during MATEL                         

timer: CPU execution times:
timer:  Routine       Calls   Time/call    Tot.time        %
timer:  siesta            1       6.688       6.688   100.00
timer:  Setup             1       0.575       0.575     8.60
timer:  bands             1       0.000       0.000     0.00
timer:  writewave         1       0.000       0.000     0.00
timer:  KSV_init          1       0.000       0.000     0.00
timer:  IterMD            6       1.018       6.109    91.34
timer:  hsparse           7       0.002       0.015     0.22
timer:  overfsm          12       0.060       0.716    10.70
timer:  IterSCF          43       0.125       5.369    80.28
timer:  kinefsm          12       0.056       0.675    10.09
timer:  nlefsm           12       0.169       2.031    30.36
timer:  DHSCF            43       0.060       2.594    38.78
timer:  DHSCF1            1       0.037       0.037     0.55
timer:  DHSCF2            6       0.076       0.459     6.86
timer:  REORD           356       0.000       0.037     0.55
timer:  POISON           49       0.009       0.427     6.38
timer:  DHSCF3           43       0.039       1.666    24.91
timer:  rhoofd           43       0.008       0.352     5.26
timer:  cellXC           43       0.008       0.352     5.26
timer:  vmat             43       0.010       0.422     6.31
timer:  diagon           37       0.001       0.021     0.31
timer:  rdiag            37       0.001       0.020     0.30
timer:  rdiag1           37       0.000       0.001     0.01
timer:  rdiag2           37       0.000       0.002     0.03
timer:  rdiag3           37       0.000       0.014     0.21
timer:  rdiag4           37       0.000       0.001     0.01
timer:  MolMec           12       0.000       0.001     0.01
timer:  DHSCF4            6       0.071       0.427     6.38
timer:  dfscf             6       0.062       0.371     5.55
timer:  optical           1       0.000       0.000     0.00
  

elaps: ELAPSED times:
elaps:  Routine       Calls   Time/call    Tot.time        %
elaps:  siesta            1       6.688       6.688    99.99
elaps:  Setup             1       0.574       0.574     8.59
elaps:  bands             1       0.000       0.000     0.00
elaps:  writewave         1       0.000       0.000     0.00
elaps:  KSV_init          1       0.000       0.000     0.00
elaps:  IterMD            6       1.018       6.109    91.34
elaps:  hsparse           7       0.002       0.017     0.25
elaps:  overfsm          12       0.060       0.714    10.68
elaps:  IterSCF          43       0.125       5.371    80.30
elaps:  kinefsm          12       0.056       0.673    10.06
elaps:  nlefsm           12       0.169       2.032    30.38
elaps:  DHSCF            43       0.060       2.591    38.74
elaps:  DHSCF1            1       0.037       0.037     0.55
elaps:  DHSCF2            6       0.077       0.460     6.89
elaps:  REORD           356       0.000       0.036     0.54
elaps:  POISON           49       0.009       0.426     6.37
elaps:  DHSCF3           43       0.039       1.661    24.83
elaps:  rhoofd           43       0.008       0.349     5.21
elaps:  cellXC           43       0.008       0.353     5.27
elaps:  vmat             43       0.010       0.420     6.28
elaps:  diagon           37       0.001       0.022     0.33
elaps:  rdiag            37       0.000       0.018     0.27
elaps:  rdiag1           37       0.000       0.001     0.01
elaps:  rdiag2           37       0.000       0.002     0.03
elaps:  rdiag3           37       0.000       0.012     0.18
elaps:  rdiag4           37       0.000       0.001     0.02
elaps:  MolMec           12       0.000       0.000     0.00
elaps:  DHSCF4            6       0.071       0.428     6.40
elaps:  dfscf             6       0.062       0.371     5.54
elaps:  optical           1       0.000       0.000     0.00
  
>> End of run:  25-JAN-2007  18:01:52
