Siesta Version  : siesta-4.0--578
Architecture    : x86_64-linux-n-62-25-35
Compiler version: GNU Fortran (GCC) 7.3.0
Compiler flags  : mpif90 -m64 -fPIC -O3 -march=native -ftree-vectorize -fexpensive-optimizationns -funroll-loops -fprefetch-loop-arrays -fno-second-underscore
PP flags        : -I/zdata/groups/common/nicpa/2018-feb/generic/build-tools/1.0/include -I/zdatta/groups/common/nicpa/2018-feb/generic/gcc/7.3.0/include -I/zdata/groups/common/nicpa/2018-feb/generic/gcc/7.3.0/include -I/zdata/groups/common/nicpa/2018-feb/XeonE5-2660v3/zlib/1.2.11/gnu-7.3.0/include -I/zdata/groups/common/nicpa/2018-feb/generic/numactl/2.0.11/include -I/zdata/groups/common/nicpa/2018-feb/XeonE5-2660v3/libxml2/2.9.7/gnu-7.3.0/include -I/zdata/groups/common/nicpa/2018-feb/XeonE5-2660v3/hwloc/1.11.9/gnu-7.3.0/include -I/zdata/groups/common/nicpa/2018-feb/XeonE5-2660v3/openmpi/3.0.0/gnu-7.3.0/include -I/zdata/groups/common/nicpa/2018-feb/XeonE5-2660v3/szip/2.1.1/gnu-7.3.0/include -I/zdata/groups/common/nicpa/2018-feb/XeonE5-2660v3/hdf5-serial/1.8.18/gnu-7.3.0/include -I/zdata/groups/common/nicpa/2018-feb/XeonE5-2660v3/netcdf-serial/4.6.0/gnu-7.3.0/include -I/zdata/groups/common/nicpa/2018-feb/XeonE5-2660v3/scalapack/204/gnu-7.3.0/include -I/zdata/groups/common/nicpa/2018-feb/XeonE5-2660v3/openblas/0.2.20/gnu-7.3.0/include -I/zdata/groups/common/nicpa/2018-feb/XeonE5-2660v3/elpa/2017.05.003/gnu-7.3.0/include -DSIESTA__ELPA -DMPI -D1 -DFC_HAVE_ABORT -DCDF -DSIESTA__MRRR 
PARALLEL version
NetCDF support

* Running on    8 nodes in parallel
>> Start of run:  10-JUN-2018  21:47:37

                           ***********************       
                           *  WELCOME TO SIESTA  *       
                           ***********************       

reinit: Reading from standard input
************************** Dump of input data file ****************************
SystemName          Water molecule, using order-N method
SystemLabel         h2o_orderN
NumberOfAtoms       3
NumberOfSpecies     2
MeshCutoff  50 Ry
%block ChemicalSpeciesLabel
 1  8  O      # Species index, atomic number, species label
 2  1  H
%endblock ChemicalSpeciesLabel
AtomicCoordinatesFormat  Ang
%block AtomicCoordinatesAndAtomicSpecies
 0.000  0.000  0.000  1
 0.757  0.586  0.000  2
-0.757  0.586  0.000  2
%endblock AtomicCoordinatesAndAtomicSpecies
SolutionMethod   ordern
************************** End of input data file *****************************

reinit: -----------------------------------------------------------------------
reinit: System Name: Water molecule, using order-N method
reinit: -----------------------------------------------------------------------
reinit: System Label: h2o_orderN                                                  
reinit: -----------------------------------------------------------------------

initatom: Reading input for the pseudopotentials and atomic orbitals ----------
 Species number:            1  Label: O Atomic number:           8
 Species number:            2  Label: H Atomic number:           1
Ground state valence configuration:   2s02  2p04
Reading pseudopotential information in formatted form from O.psf

Valence configuration for pseudopotential generation:
2s( 2.00) rc: 1.14
2p( 4.00) rc: 1.14
3d( 0.00) rc: 1.14
4f( 0.00) rc: 1.14
Ground state valence configuration:   1s01
Reading pseudopotential information in formatted form from H.psf

Valence configuration for pseudopotential generation:
1s( 1.00) rc: 1.25
2p( 0.00) rc: 1.25
3d( 0.00) rc: 1.25
4f( 0.00) rc: 1.25
For O, standard SIESTA heuristics set lmxkb to 3
 (one more than the basis l, including polarization orbitals).
Use PS.lmax or PS.KBprojectors blocks to override.
For H, standard SIESTA heuristics set lmxkb to 2
 (one more than the basis l, including polarization orbitals).
Use PS.lmax or PS.KBprojectors blocks to override.

<basis_specs>
===============================================================================
O                    Z=   8    Mass=  16.000        Charge= 0.17977+309
Lmxo=1 Lmxkb= 3    BasisType=split      Semic=F
L=0  Nsemic=0  Cnfigmx=2
          n=1  nzeta=2  polorb=0
            splnorm:   0.15000    
               vcte:    0.0000    
               rinn:    0.0000    
               qcoe:    0.0000    
               qyuk:    0.0000    
               qwid:   0.10000E-01
                rcs:    0.0000      0.0000    
            lambdas:    1.0000      1.0000    
L=1  Nsemic=0  Cnfigmx=2
          n=1  nzeta=2  polorb=1
            splnorm:   0.15000    
               vcte:    0.0000    
               rinn:    0.0000    
               qcoe:    0.0000    
               qyuk:    0.0000    
               qwid:   0.10000E-01
                rcs:    0.0000      0.0000    
            lambdas:    1.0000      1.0000    
-------------------------------------------------------------------------------
L=0  Nkbl=1  erefs: 0.17977+309
L=1  Nkbl=1  erefs: 0.17977+309
L=2  Nkbl=1  erefs: 0.17977+309
L=3  Nkbl=1  erefs: 0.17977+309
===============================================================================
</basis_specs>

atom: Called for O                     (Z =   8)

read_vps: Pseudopotential generation method:
read_vps: ATM3      Troullier-Martins                       
Total valence charge:    6.00000

xc_check: Exchange-correlation functional:
xc_check: Ceperley-Alder
V l=0 = -2*Zval/r beyond r=  1.1278
V l=1 = -2*Zval/r beyond r=  1.1278
V l=2 = -2*Zval/r beyond r=  1.1278
V l=3 = -2*Zval/r beyond r=  1.1138
All V_l potentials equal beyond r=  1.1278
This should be close to max(r_c) in ps generation
All pots = -2*Zval/r beyond r=  1.1278

VLOCAL1: 99.0% of the norm of Vloc inside     34.126 Ry
VLOCAL1: 99.9% of the norm of Vloc inside     77.774 Ry
atom: Maximum radius for 4*pi*r*r*local-pseudopot. charge    1.37759
atom: Maximum radius for r*vlocal+2*Zval:    1.18566
GHOST: No ghost state for L =  0
GHOST: No ghost state for L =  1
GHOST: No ghost state for L =  2
GHOST: No ghost state for L =  3

KBgen: Kleinman-Bylander projectors: 
   l= 0   rc=  1.294105   el= -1.742414   Ekb=  9.135903   kbcos=  0.326910
   l= 1   rc=  1.294105   el= -0.676589   Ekb= -8.124878   kbcos= -0.395047
   l= 2   rc=  1.448233   el=  0.002386   Ekb= -2.039267   kbcos= -0.003484
   l= 3   rc=  1.561052   el=  0.003508   Ekb= -0.799141   kbcos= -0.000344

KBgen: Total number of  Kleinman-Bylander projectors:   16
atom: -------------------------------------------------------------------------

atom: SANKEY-TYPE ORBITALS:
atom: Selected multiple-zeta basis: split     

SPLIT: Orbitals with angular momentum L= 0

SPLIT: Basis orbitals for state 2s

SPLIT: PAO cut-off radius determined from an
SPLIT: energy shift=  0.020000 Ry

   izeta = 1
                 lambda =    1.000000
                     rc =    3.305093
                 energy =   -1.723766
                kinetic =    1.614911
    potential(screened) =   -3.338677
       potential(ionic) =  -11.304675

   izeta = 2
                 rmatch =    2.510382
              splitnorm =    0.150000
                 energy =   -1.471299
                kinetic =    2.446434
    potential(screened) =   -3.917732
       potential(ionic) =  -12.476133

SPLIT: Orbitals with angular momentum L= 1

SPLIT: Basis orbitals for state 2p

SPLIT: PAO cut-off radius determined from an
SPLIT: energy shift=  0.020000 Ry

   izeta = 1
                 lambda =    1.000000
                     rc =    3.937239
                 energy =   -0.658841
                kinetic =    5.005986
    potential(screened) =   -5.664827
       potential(ionic) =  -13.452360

   izeta = 2
                 rmatch =    2.541963
              splitnorm =    0.150000
                 energy =   -0.367441
                kinetic =    7.530509
    potential(screened) =   -7.897949
       potential(ionic) =  -16.611953

POLgen: Perturbative polarization orbital with L=  2

POLgen: Polarization orbital for state 2p

   izeta = 1
                     rc =    3.937239
                 energy =    2.398520
                kinetic =    4.716729
    potential(screened) =   -2.318209
       potential(ionic) =   -8.603170
atom: Total number of Sankey-type orbitals: 13

atm_pop: Valence configuration (for local Pseudopot. screening):
 2s( 2.00)                                                            
 2p( 4.00)                                                            
Vna: chval, zval:    6.00000   6.00000

Vna:  Cut-off radius for the neutral-atom potential:   3.937239

atom: _________________________________________________________________________

<basis_specs>
===============================================================================
H                    Z=   1    Mass=  1.0100        Charge= 0.17977+309
Lmxo=0 Lmxkb= 2    BasisType=split      Semic=F
L=0  Nsemic=0  Cnfigmx=1
          n=1  nzeta=2  polorb=1
            splnorm:   0.15000    
               vcte:    0.0000    
               rinn:    0.0000    
               qcoe:    0.0000    
               qyuk:    0.0000    
               qwid:   0.10000E-01
                rcs:    0.0000      0.0000    
            lambdas:    1.0000      1.0000    
-------------------------------------------------------------------------------
L=0  Nkbl=1  erefs: 0.17977+309
L=1  Nkbl=1  erefs: 0.17977+309
L=2  Nkbl=1  erefs: 0.17977+309
===============================================================================
</basis_specs>

atom: Called for H                     (Z =   1)

read_vps: Pseudopotential generation method:
read_vps: ATM3      Troullier-Martins                       
Total valence charge:    1.00000

xc_check: Exchange-correlation functional:
xc_check: Ceperley-Alder
V l=0 = -2*Zval/r beyond r=  1.2343
V l=1 = -2*Zval/r beyond r=  1.2189
V l=2 = -2*Zval/r beyond r=  1.2189
All V_l potentials equal beyond r=  1.2343
This should be close to max(r_c) in ps generation
All pots = -2*Zval/r beyond r=  1.2343

VLOCAL1: 99.0% of the norm of Vloc inside     28.493 Ry
VLOCAL1: 99.9% of the norm of Vloc inside     64.935 Ry
atom: Maximum radius for 4*pi*r*r*local-pseudopot. charge    1.45251
atom: Maximum radius for r*vlocal+2*Zval:    1.21892
GHOST: No ghost state for L =  0
GHOST: No ghost state for L =  1
GHOST: No ghost state for L =  2

KBgen: Kleinman-Bylander projectors: 
   l= 0   rc=  1.364359   el= -0.467325   Ekb= -2.005361   kbcos= -0.336422
   l= 1   rc=  1.434438   el=  0.001430   Ekb= -0.501708   kbcos= -0.021697
   l= 2   rc=  1.470814   el=  0.002365   Ekb= -0.190555   kbcos= -0.002281

KBgen: Total number of  Kleinman-Bylander projectors:    9
atom: -------------------------------------------------------------------------

atom: SANKEY-TYPE ORBITALS:
atom: Selected multiple-zeta basis: split     

SPLIT: Orbitals with angular momentum L= 0

SPLIT: Basis orbitals for state 1s

SPLIT: PAO cut-off radius determined from an
SPLIT: energy shift=  0.020000 Ry

   izeta = 1
                 lambda =    1.000000
                     rc =    4.828263
                 energy =   -0.449375
                kinetic =    0.929372
    potential(screened) =   -1.378747
       potential(ionic) =   -1.915047

   izeta = 2
                 rmatch =    3.854947
              splitnorm =    0.150000
                 energy =   -0.336153
                kinetic =    1.505294
    potential(screened) =   -1.841447
       potential(ionic) =   -2.413582

POLgen: Perturbative polarization orbital with L=  1

POLgen: Polarization orbital for state 1s

   izeta = 1
                     rc =    4.828263
                 energy =    0.706972
                kinetic =    1.396397
    potential(screened) =   -0.689424
       potential(ionic) =   -1.169792
atom: Total number of Sankey-type orbitals:  5

atm_pop: Valence configuration (for local Pseudopot. screening):
 1s( 1.00)                                                            
Vna: chval, zval:    1.00000   1.00000

Vna:  Cut-off radius for the neutral-atom potential:   4.828263

atom: _________________________________________________________________________

prinput: Basis input ----------------------------------------------------------

PAO.BasisType split     

%block ChemicalSpeciesLabel
    1    8 O                       # Species index, atomic number, species label
    2    1 H                       # Species index, atomic number, species label
%endblock ChemicalSpeciesLabel

%block PAO.Basis                 # Define Basis set
O                     2                    # Species label, number of l-shells
 n=2   0   2                         # n, l, Nzeta 
   3.305      2.510   
   1.000      1.000   
 n=2   1   2 P   1                   # n, l, Nzeta, Polarization, NzetaPol
   3.937      2.542   
   1.000      1.000   
H                     1                    # Species label, number of l-shells
 n=1   0   2 P   1                   # n, l, Nzeta, Polarization, NzetaPol
   4.828      3.855   
   1.000      1.000   
%endblock PAO.Basis

prinput: ----------------------------------------------------------------------

Dumping basis to NetCDF file O.ion.nc
Dumping basis to NetCDF file H.ion.nc
coor:   Atomic-coordinates input format  =     Cartesian coordinates
coor:                                          (in Angstroms)

siesta: Atomic coordinates (Bohr) and species
siesta:      0.00000   0.00000   0.00000  1        1
siesta:      1.43052   1.10738   0.00000  2        2
siesta:     -1.43052   1.10738   0.00000  2        3

siesta: Automatic unit cell vectors (Ang):
siesta:    7.286412    0.000000    0.000000
siesta:    0.000000    5.746952    0.000000
siesta:    0.000000    0.000000    5.621012

siesta: System type = molecule  

initatomlists: Number of atoms, orbitals, and projectors:      3    23    34

siesta: ******************** Simulation parameters ****************************
siesta:
siesta: The following are some of the parameters of the simulation.
siesta: A complete list of the parameters used, including default values,
siesta: can be found in file out.fdf
siesta:
redata: Non-Collinear-spin run           =     F
redata: SpinPolarized (Up/Down) run      =     F
redata: Number of spin components        =     1
redata: Long output                      =     F
redata: Number of Atomic Species         =        2
redata: Charge density info will appear in .RHO file
redata: Write Mulliken Pop.              =     NO
redata: Matel table size (NRTAB)         =     1024
redata: Mesh Cutoff                      =    50.0000 Ry
redata: Net charge of the system         =     0.0000 |e|
redata: Min. number of SCF Iter          =        0
redata: Max. number of SCF Iter          =       50
redata: Mix DM or H after convergence    =     F
redata: Recompute H after scf cycle      =     F
redata: Mixing is linear
redata: Mix DM in first SCF step ?       =     F
redata: Write Pulay info on disk?        =     F
redata: Discard 1st Pulay DM after  kick =     F
redata: New DM Mixing Weight             =     0.2500
redata: New DM Occupancy tolerance       = 0.000000000001
redata: No kicks to SCF
redata: DM Mixing Weight for Kicks       =     0.5000
redata: DM Tolerance for SCF             =     0.000100
redata: Require (free) Energy convergence in SCF =     F
redata: DM (free)Energy tolerance for SCF =     0.000010 eV
redata: Require Harris convergence for SCF =     F
redata: DM Harris energy tolerance for SCF =     0.000010 eV
redata: Using Saved Data (generic)   =     F
redata: Use continuation files for DM    =     F
redata: Neglect nonoverlap interactions  =     F
redata: Method of Calculation            =     Order-N
redata: Fix the spin of the system       =     F
redata: Maximum number of iterations     =     1000
redata: Relative tolerance               =     0.10D-07
redata: Eta (Fermi level parameter)      =     0.0000  Ry
redata: Radius of LWFs                   =     9.5000  Bohr
redata: Use continuation files for LWF   =     F
redata: Method to build LWFs             =     kim          
redata: Dynamics option                  =     Single-point calculation
redata: ***********************************************************************
Total number of electrons:     8.000000
Total ionic charge:     8.000000

* ProcessorY, Blocksize:    2   3


* Orbital distribution balance (max,min):     3     2

 Kpoints in:            1 . Kpoints trimmed:            1

siesta: k-grid: Number of k-points =     1
siesta: k-grid: Cutoff (effective) =     2.811 Ang
siesta: k-grid: Supercell and displacements
siesta: k-grid:    1   0   0      0.000
siesta: k-grid:    0   1   0      0.000
siesta: k-grid:    0   0   1      0.000

                     ====================================
                        Single-point calculation
                     ====================================

outcell: Unit cell vectors (Ang):
        7.286412    0.000000    0.000000
        0.000000    5.746952    0.000000
        0.000000    0.000000    5.621012

outcell: Cell vector modules (Ang)   :    7.286412    5.746952    5.621012
outcell: Cell angles (23,13,12) (deg):     90.0000     90.0000     90.0000
outcell: Cell volume (Ang**3)        :    235.3780
New_DM. Step:     1
Initializing Density Matrix...
New grid distribution:   1
           1       1:   16    1:    8    1:    3
           2       1:   16    1:    8    4:    6
           3       1:   16    1:    8    7:    9
           4       1:   16    1:    8   10:   12
           5       1:   16    9:   15    1:    3
           6       1:   16    9:   15    4:    6
           7       1:   16    9:   15    7:    9
           8       1:   16    9:   15   10:   12

InitMesh: MESH =    32 x    30 x    24 =       23040
InitMesh: (bp) =    16 x    15 x    12 =        2880
InitMesh: Mesh cutoff (required, used) =    50.000    50.384 Ry
ExtMesh (bp) on 0 =    40 x    36 x    27 =       38880
New grid distribution:   2
           1       5:   16    5:   15    1:    4
           2       5:   16    1:    4    1:    4
           3       5:   16    1:    4    5:   12
           4       1:    4    1:    4    5:   12
           5       1:    4    5:   15    1:    4
           6       1:    4    1:    4    1:    4
           7       5:   16    5:   15    5:   12
           8       1:    4    5:   15    5:   12
New grid distribution:   3
           1       1:    7    6:   15    1:    4
           2       8:   16    1:    5    1:    5
           3       1:    7    6:   15    5:   12
           4       8:   16    1:    5    6:   12
           5       8:   16    6:   15    1:    4
           6       1:    7    1:    5    6:   12
           7       8:   16    6:   15    5:   12
           8       1:    7    1:    5    1:    5
Setting up quadratic distribution...
ExtMesh (bp) on 0 =    36 x    39 x    28 =       39312
PhiOnMesh: Number of (b)points on node 0 =                  528
PhiOnMesh: nlist on node 0 =                 2325

ordern: enum =      8.0000

ordern: ioptlwf =  1
cgwf: iter =    1      grad =        -315.350989      Eb(Ry) =      -1.263074
cgwf: iter =    2      grad =         -18.585030      Eb(Ry) =      -2.966263
cgwf: iter =    3      grad =          -6.814965      Eb(Ry) =      -3.403826
cgwf: iter =    4      grad =          -5.093816      Eb(Ry) =      -3.585045
cgwf: iter =    5      grad =          -6.675783      Eb(Ry) =      -3.741383
cgwf: iter =    6      grad =          -6.253411      Eb(Ry) =      -4.063478
cgwf: iter =    7      grad =          -4.288328      Eb(Ry) =      -4.204659
cgwf: iter =    8      grad =          -2.593234      Eb(Ry) =      -4.284125
cgwf: iter =    9      grad =          -0.914801      Eb(Ry) =      -4.341176
cgwf: iter =   10      grad =          -0.678374      Eb(Ry) =      -4.367665
cgwf: iter =   11      grad =          -0.484968      Eb(Ry) =      -4.384676
cgwf: iter =   12      grad =          -0.226386      Eb(Ry) =      -4.394204
cgwf: iter =   13      grad =          -0.195138      Eb(Ry) =      -4.403374
cgwf: iter =   14      grad =          -0.215462      Eb(Ry) =      -4.409665
cgwf: iter =   15      grad =          -0.208725      Eb(Ry) =      -4.415468
cgwf: iter =   16      grad =          -0.167100      Eb(Ry) =      -4.421415
cgwf: iter =   17      grad =          -0.245479      Eb(Ry) =      -4.430067
cgwf: iter =   18      grad =          -0.307202      Eb(Ry) =      -4.437084
cgwf: iter =   19      grad =          -0.381765      Eb(Ry) =      -4.447967
cgwf: iter =   20      grad =          -0.286798      Eb(Ry) =      -4.460740
cgwf: iter =   21      grad =          -0.281736      Eb(Ry) =      -4.471830
cgwf: iter =   22      grad =          -0.151680      Eb(Ry) =      -4.477405
cgwf: iter =   23      grad =          -0.080732      Eb(Ry) =      -4.480694
cgwf: iter =   24      grad =          -0.077466      Eb(Ry) =      -4.484673
cgwf: iter =   25      grad =          -0.086311      Eb(Ry) =      -4.487275
cgwf: iter =   26      grad =          -0.045908      Eb(Ry) =      -4.489071
cgwf: iter =   27      grad =          -0.025263      Eb(Ry) =      -4.490091
cgwf: iter =   28      grad =          -0.037807      Eb(Ry) =      -4.491719
cgwf: iter =   29      grad =          -0.041107      Eb(Ry) =      -4.492802
cgwf: iter =   30      grad =          -0.047494      Eb(Ry) =      -4.493995
cgwf: iter =   31      grad =          -0.032538      Eb(Ry) =      -4.495401
cgwf: iter =   32      grad =          -0.036673      Eb(Ry) =      -4.497143
cgwf: iter =   33      grad =          -0.022887      Eb(Ry) =      -4.498125
cgwf: iter =   34      grad =          -0.021316      Eb(Ry) =      -4.498591
cgwf: iter =   35      grad =          -0.016118      Eb(Ry) =      -4.499579
cgwf: iter =   36      grad =          -0.020503      Eb(Ry) =      -4.500290
cgwf: iter =   37      grad =          -0.014253      Eb(Ry) =      -4.501066
cgwf: iter =   38      grad =          -0.011956      Eb(Ry) =      -4.501354
cgwf: iter =   39      grad =          -0.009640      Eb(Ry) =      -4.501709
cgwf: iter =   40      grad =          -0.014110      Eb(Ry) =      -4.502180
cgwf: iter =   41      grad =          -0.010997      Eb(Ry) =      -4.502854
cgwf: iter =   42      grad =          -0.012547      Eb(Ry) =      -4.503184
cgwf: iter =   43      grad =          -0.012142      Eb(Ry) =      -4.503499
cgwf: iter =   44      grad =          -0.006251      Eb(Ry) =      -4.503857
cgwf: iter =   45      grad =          -0.012422      Eb(Ry) =      -4.504306
cgwf: iter =   46      grad =          -0.021134      Eb(Ry) =      -4.504853
cgwf: iter =   47      grad =          -0.013641      Eb(Ry) =      -4.505310
cgwf: iter =   48      grad =          -0.007398      Eb(Ry) =      -4.505663
cgwf: iter =   49      grad =          -0.005109      Eb(Ry) =      -4.505988
cgwf: iter =   50      grad =          -0.003427      Eb(Ry) =      -4.506131
cgwf: iter =   51      grad =          -0.003069      Eb(Ry) =      -4.506211
cgwf: iter =   52      grad =          -0.002062      Eb(Ry) =      -4.506288
cgwf: iter =   53      grad =          -0.002195      Eb(Ry) =      -4.506388
cgwf: iter =   54      grad =          -0.001658      Eb(Ry) =      -4.506468
cgwf: iter =   55      grad =          -0.002320      Eb(Ry) =      -4.506525
cgwf: iter =   56      grad =          -0.001055      Eb(Ry) =      -4.506568
cgwf: iter =   57      grad =          -0.002103      Eb(Ry) =      -4.506640
cgwf: iter =   58      grad =          -0.001793      Eb(Ry) =      -4.506723
cgwf: iter =   59      grad =          -0.002622      Eb(Ry) =      -4.506791
cgwf: iter =   60      grad =          -0.001133      Eb(Ry) =      -4.506839
cgwf: iter =   61      grad =          -0.001013      Eb(Ry) =      -4.506877
cgwf: iter =   62      grad =          -0.000653      Eb(Ry) =      -4.506920
cgwf: iter =   63      grad =          -0.000751      Eb(Ry) =      -4.506942
cgwf: iter =   64      grad =          -0.000712      Eb(Ry) =      -4.506961
cgwf: iter =   65      grad =          -0.000372      Eb(Ry) =      -4.506978
cgwf: iter =   66      grad =          -0.000216      Eb(Ry) =      -4.506995
cgwf: iter =   67      grad =          -0.000318      Eb(Ry) =      -4.507004
cgwf: iter =   68      grad =          -0.000390      Eb(Ry) =      -4.507013
cgwf: iter =   69      grad =          -0.000338      Eb(Ry) =      -4.507024
cgwf: iter =   70      grad =          -0.000444      Eb(Ry) =      -4.507044
cgwf: iter =   71      grad =          -0.000412      Eb(Ry) =      -4.507061
cgwf: iter =   72      grad =          -0.000448      Eb(Ry) =      -4.507074
cgwf: iter =   73      grad =          -0.000283      Eb(Ry) =      -4.507083
cgwf: iter =   74      grad =          -0.000330      Eb(Ry) =      -4.507095
cgwf: iter =   75      grad =          -0.000202      Eb(Ry) =      -4.507107
cgwf: iter =   76      grad =          -0.000146      Eb(Ry) =      -4.507114
cgwf: iter =   77      grad =          -0.000110      Eb(Ry) =      -4.507117
cgwf: iter =   78      grad =          -0.000075      Eb(Ry) =      -4.507121
cgwf: iter =   79      grad =          -0.000062      Eb(Ry) =      -4.507124
cgwf: iter =   80      grad =          -0.000074      Eb(Ry) =      -4.507127
cgwf: iter =   81      grad =          -0.000049      Eb(Ry) =      -4.507128
cgwf: iter =   82      grad =          -0.000037      Eb(Ry) =      -4.507129
cgwf: iter =   83      grad =          -0.000033      Eb(Ry) =      -4.507131
cgwf: iter =   84      grad =          -0.000047      Eb(Ry) =      -4.507133
cgwf: iter =   85      grad =          -0.000047      Eb(Ry) =      -4.507134
cgwf: iter =   86      grad =          -0.000065      Eb(Ry) =      -4.507135
cgwf: iter =   87      grad =          -0.000032      Eb(Ry) =      -4.507138
cgwf: iter =   88      grad =          -0.000052      Eb(Ry) =      -4.507140
cgwf: iter =   89      grad =          -0.000050      Eb(Ry) =      -4.507141
cgwf: iter =   90      grad =          -0.000027      Eb(Ry) =      -4.507142
cgwf: iter =   91      grad =          -0.000021      Eb(Ry) =      -4.507143
cgwf: iter =   92      grad =          -0.000017      Eb(Ry) =      -4.507144
cgwf: iter =   93      grad =          -0.000011      Eb(Ry) =      -4.507145
cgwf: iter =   94      grad =          -0.000006      Eb(Ry) =      -4.507145
cgwf: iter =   95      grad =          -0.000006      Eb(Ry) =      -4.507145
cgwf: iter =   96      grad =          -0.000005      Eb(Ry) =      -4.507145
cgwf: iter =   97      grad =          -0.000011      Eb(Ry) =      -4.507146
cgwf: iter =   98      grad =          -0.000012      Eb(Ry) =      -4.507146
cgwf: iter =   99      grad =          -0.000009      Eb(Ry) =      -4.507146
cgwf: iter =  100      grad =          -0.000006      Eb(Ry) =      -4.507147
cgwf: iter =  101      grad =          -0.000007      Eb(Ry) =      -4.507147
cgwf: iter =  102      grad =          -0.000009      Eb(Ry) =      -4.507147
cgwf: iter =  103      grad =          -0.000007      Eb(Ry) =      -4.507147
cgwf: iter =  104      grad =          -0.000004      Eb(Ry) =      -4.507148
cgwf: iter =  105      grad =          -0.000003      Eb(Ry) =      -4.507148
cgwf: iter =  106      grad =          -0.000003      Eb(Ry) =      -4.507148
cgwf: iter =  107      grad =          -0.000003      Eb(Ry) =      -4.507148
cgwf: iter =  108      grad =          -0.000002      Eb(Ry) =      -4.507148
cgwf: iter =  109      grad =          -0.000003      Eb(Ry) =      -4.507148
cgwf: iter =  110      grad =          -0.000004      Eb(Ry) =      -4.507148
cgwf: iter =  111      grad =          -0.000005      Eb(Ry) =      -4.507148
cgwf: iter =  112      grad =          -0.000002      Eb(Ry) =      -4.507148
cgwf: iter =  113      grad =          -0.000003      Eb(Ry) =      -4.507149
cgwf: iter =  114      grad =          -0.000003      Eb(Ry) =      -4.507149
cgwf: iter =  115      grad =          -0.000004      Eb(Ry) =      -4.507149
cgwf: iter =  116      grad =          -0.000001      Eb(Ry) =      -4.507149

cgwf:  CG tolerance reached

denmat: qtot (before DM normalization) =       8.0000
ordern: qtot (after  DM normalization) =       8.0000

siesta: Program's energy decomposition (eV):
siesta: Ebs     =      -122.646728
siesta: Eions   =       815.854478
siesta: Ena     =       175.155695
siesta: Ekin    =       341.667406
siesta: Enl     =       -52.736859
siesta: DEna    =        -0.000003
siesta: DUscf   =         0.000000
siesta: DUext   =         0.000000
siesta: Exc     =      -109.951257
siesta: eta*DQ  =         0.000000
siesta: Emadel  =         0.000000
siesta: Emeta   =         0.000000
siesta: Emolmec =         0.000000
siesta: Ekinion =         0.000000
siesta: Eharris =      -466.430732
siesta: Etot    =      -461.719497
siesta: FreeEng =      -461.719497

siesta: iscf =    1
Eharris(eV) =       -466.4307  E_KS(eV) =       -461.7195  dDmax =  1.4378

timer: Routine,Calls,Time,% =    IterSCF     1       0.030   2.43

ordern: enum =      8.0000
cgwf: iter =    1      grad =          -0.399244      Eb(Ry) =      -3.180211
cgwf: iter =    2      grad =          -0.686913      Eb(Ry) =      -3.221514
cgwf: iter =    3      grad =          -0.107748      Eb(Ry) =      -3.229883
cgwf: iter =    4      grad =          -0.072659      Eb(Ry) =      -3.235192
cgwf: iter =    5      grad =          -0.017118      Eb(Ry) =      -3.237945
cgwf: iter =    6      grad =          -0.005716      Eb(Ry) =      -3.238530
cgwf: iter =    7      grad =          -0.005411      Eb(Ry) =      -3.238654
cgwf: iter =    8      grad =          -0.001215      Eb(Ry) =      -3.238891
cgwf: iter =    9      grad =          -0.001445      Eb(Ry) =      -3.239063
cgwf: iter =   10      grad =          -0.001179      Eb(Ry) =      -3.239105
cgwf: iter =   11      grad =          -0.005167      Eb(Ry) =      -3.239196
cgwf: iter =   12      grad =          -0.001839      Eb(Ry) =      -3.239356
cgwf: iter =   13      grad =          -0.001566      Eb(Ry) =      -3.239424
cgwf: iter =   14      grad =          -0.000796      Eb(Ry) =      -3.239567
cgwf: iter =   15      grad =          -0.002597      Eb(Ry) =      -3.239621
cgwf: iter =   16      grad =          -0.000617      Eb(Ry) =      -3.239677
cgwf: iter =   17      grad =          -0.000428      Eb(Ry) =      -3.239695
cgwf: iter =   18      grad =          -0.000907      Eb(Ry) =      -3.239722
cgwf: iter =   19      grad =          -0.000261      Eb(Ry) =      -3.239737
cgwf: iter =   20      grad =          -0.000403      Eb(Ry) =      -3.239760
cgwf: iter =   21      grad =          -0.000427      Eb(Ry) =      -3.239777
cgwf: iter =   22      grad =          -0.000508      Eb(Ry) =      -3.239793
cgwf: iter =   23      grad =          -0.000411      Eb(Ry) =      -3.239806
cgwf: iter =   24      grad =          -0.000155      Eb(Ry) =      -3.239827
cgwf: iter =   25      grad =          -0.000184      Eb(Ry) =      -3.239833
cgwf: iter =   26      grad =          -0.000390      Eb(Ry) =      -3.239842
cgwf: iter =   27      grad =          -0.000151      Eb(Ry) =      -3.239854
cgwf: iter =   28      grad =          -0.000234      Eb(Ry) =      -3.239870
cgwf: iter =   29      grad =          -0.000349      Eb(Ry) =      -3.239877
cgwf: iter =   30      grad =          -0.000370      Eb(Ry) =      -3.239891
cgwf: iter =   31      grad =          -0.000146      Eb(Ry) =      -3.239909
cgwf: iter =   32      grad =          -0.000254      Eb(Ry) =      -3.239917
cgwf: iter =   33      grad =          -0.000077      Eb(Ry) =      -3.239922
cgwf: iter =   34      grad =          -0.000137      Eb(Ry) =      -3.239926
cgwf: iter =   35      grad =          -0.000101      Eb(Ry) =      -3.239933
cgwf: iter =   36      grad =          -0.000132      Eb(Ry) =      -3.239940
cgwf: iter =   37      grad =          -0.000096      Eb(Ry) =      -3.239943
cgwf: iter =   38      grad =          -0.000054      Eb(Ry) =      -3.239947
cgwf: iter =   39      grad =          -0.000046      Eb(Ry) =      -3.239948
cgwf: iter =   40      grad =          -0.000021      Eb(Ry) =      -3.239951
cgwf: iter =   41      grad =          -0.000022      Eb(Ry) =      -3.239953
cgwf: iter =   42      grad =          -0.000012      Eb(Ry) =      -3.239953
cgwf: iter =   43      grad =          -0.000021      Eb(Ry) =      -3.239954
cgwf: iter =   44      grad =          -0.000016      Eb(Ry) =      -3.239955
cgwf: iter =   45      grad =          -0.000024      Eb(Ry) =      -3.239956
cgwf: iter =   46      grad =          -0.000013      Eb(Ry) =      -3.239957
cgwf: iter =   47      grad =          -0.000017      Eb(Ry) =      -3.239958
cgwf: iter =   48      grad =          -0.000010      Eb(Ry) =      -3.239958
cgwf: iter =   49      grad =          -0.000006      Eb(Ry) =      -3.239958
cgwf: iter =   50      grad =          -0.000017      Eb(Ry) =      -3.239959
cgwf: iter =   51      grad =          -0.000008      Eb(Ry) =      -3.239959
cgwf: iter =   52      grad =          -0.000008      Eb(Ry) =      -3.239959
cgwf: iter =   53      grad =          -0.000004      Eb(Ry) =      -3.239960
cgwf: iter =   54      grad =          -0.000009      Eb(Ry) =      -3.239960
cgwf: iter =   55      grad =          -0.000010      Eb(Ry) =      -3.239961
cgwf: iter =   56      grad =          -0.000009      Eb(Ry) =      -3.239961
cgwf: iter =   57      grad =          -0.000006      Eb(Ry) =      -3.239961
cgwf: iter =   58      grad =          -0.000006      Eb(Ry) =      -3.239962
cgwf: iter =   59      grad =          -0.000008      Eb(Ry) =      -3.239962
cgwf: iter =   60      grad =          -0.000009      Eb(Ry) =      -3.239963
cgwf: iter =   61      grad =          -0.000010      Eb(Ry) =      -3.239963
cgwf: iter =   62      grad =          -0.000004      Eb(Ry) =      -3.239963
cgwf: iter =   63      grad =          -0.000014      Eb(Ry) =      -3.239964
cgwf: iter =   64      grad =          -0.000003      Eb(Ry) =      -3.239965
cgwf: iter =   65      grad =          -0.000002      Eb(Ry) =      -3.239965
cgwf: iter =   66      grad =          -0.000004      Eb(Ry) =      -3.239965
cgwf: iter =   67      grad =          -0.000002      Eb(Ry) =      -3.239965
cgwf: iter =   68      grad =          -0.000002      Eb(Ry) =      -3.239965
cgwf: iter =   69      grad =          -0.000000      Eb(Ry) =      -3.239965

cgwf:  CG tolerance reached

denmat: qtot (before DM normalization) =       8.0000
ordern: qtot (after  DM normalization) =       8.0000

siesta: iscf =    2
Eharris(eV) =       -466.8695  E_KS(eV) =       -465.2435  dDmax =  0.1759


ordern: enum =      8.0000
cgwf: iter =    1      grad =          -0.081959      Eb(Ry) =      -3.657657
cgwf: iter =    2      grad =          -0.084290      Eb(Ry) =      -3.667625
cgwf: iter =    3      grad =          -0.015569      Eb(Ry) =      -3.668581
cgwf: iter =    4      grad =          -0.009256      Eb(Ry) =      -3.669716
cgwf: iter =    5      grad =          -0.001170      Eb(Ry) =      -3.669930
cgwf: iter =    6      grad =          -0.000478      Eb(Ry) =      -3.669963
cgwf: iter =    7      grad =          -0.000854      Eb(Ry) =      -3.669999
cgwf: iter =    8      grad =          -0.000403      Eb(Ry) =      -3.670029
cgwf: iter =    9      grad =          -0.000730      Eb(Ry) =      -3.670041
cgwf: iter =   10      grad =          -0.000255      Eb(Ry) =      -3.670073
cgwf: iter =   11      grad =          -0.000421      Eb(Ry) =      -3.670085
cgwf: iter =   12      grad =          -0.000910      Eb(Ry) =      -3.670102
cgwf: iter =   13      grad =          -0.000292      Eb(Ry) =      -3.670129
cgwf: iter =   14      grad =          -0.000168      Eb(Ry) =      -3.670136
cgwf: iter =   15      grad =          -0.000354      Eb(Ry) =      -3.670144
cgwf: iter =   16      grad =          -0.000103      Eb(Ry) =      -3.670150
cgwf: iter =   17      grad =          -0.000079      Eb(Ry) =      -3.670153
cgwf: iter =   18      grad =          -0.000275      Eb(Ry) =      -3.670171
cgwf: iter =   19      grad =          -0.000166      Eb(Ry) =      -3.670176
cgwf: iter =   20      grad =          -0.000127      Eb(Ry) =      -3.670182
cgwf: iter =   21      grad =          -0.000169      Eb(Ry) =      -3.670189
cgwf: iter =   22      grad =          -0.000234      Eb(Ry) =      -3.670198
cgwf: iter =   23      grad =          -0.000160      Eb(Ry) =      -3.670203
cgwf: iter =   24      grad =          -0.000119      Eb(Ry) =      -3.670209
cgwf: iter =   25      grad =          -0.000092      Eb(Ry) =      -3.670212
cgwf: iter =   26      grad =          -0.000081      Eb(Ry) =      -3.670214
cgwf: iter =   27      grad =          -0.000039      Eb(Ry) =      -3.670216
cgwf: iter =   28      grad =          -0.000043      Eb(Ry) =      -3.670217
cgwf: iter =   29      grad =          -0.000044      Eb(Ry) =      -3.670218
cgwf: iter =   30      grad =          -0.000039      Eb(Ry) =      -3.670220
cgwf: iter =   31      grad =          -0.000193      Eb(Ry) =      -3.670226
cgwf: iter =   32      grad =          -0.000060      Eb(Ry) =      -3.670230
cgwf: iter =   33      grad =          -0.000059      Eb(Ry) =      -3.670233
cgwf: iter =   34      grad =          -0.000026      Eb(Ry) =      -3.670234
cgwf: iter =   35      grad =          -0.000021      Eb(Ry) =      -3.670235
cgwf: iter =   36      grad =          -0.000061      Eb(Ry) =      -3.670236
cgwf: iter =   37      grad =          -0.000056      Eb(Ry) =      -3.670238
cgwf: iter =   38      grad =          -0.000025      Eb(Ry) =      -3.670240
cgwf: iter =   39      grad =          -0.000033      Eb(Ry) =      -3.670241
cgwf: iter =   40      grad =          -0.000042      Eb(Ry) =      -3.670242
cgwf: iter =   41      grad =          -0.000035      Eb(Ry) =      -3.670243
cgwf: iter =   42      grad =          -0.000098      Eb(Ry) =      -3.670250
cgwf: iter =   43      grad =          -0.000054      Eb(Ry) =      -3.670252
cgwf: iter =   44      grad =          -0.000050      Eb(Ry) =      -3.670254
cgwf: iter =   45      grad =          -0.000040      Eb(Ry) =      -3.670256
cgwf: iter =   46      grad =          -0.000027      Eb(Ry) =      -3.670258
cgwf: iter =   47      grad =          -0.000040      Eb(Ry) =      -3.670259
cgwf: iter =   48      grad =          -0.000020      Eb(Ry) =      -3.670260
cgwf: iter =   49      grad =          -0.000011      Eb(Ry) =      -3.670260
cgwf: iter =   50      grad =          -0.000015      Eb(Ry) =      -3.670261
cgwf: iter =   51      grad =          -0.000006      Eb(Ry) =      -3.670261
cgwf: iter =   52      grad =          -0.000003      Eb(Ry) =      -3.670261
cgwf: iter =   53      grad =          -0.000006      Eb(Ry) =      -3.670261
cgwf: iter =   54      grad =          -0.000014      Eb(Ry) =      -3.670262
cgwf: iter =   55      grad =          -0.000001      Eb(Ry) =      -3.670262
cgwf: iter =   56      grad =          -0.000002      Eb(Ry) =      -3.670262
cgwf: iter =   57      grad =          -0.000001      Eb(Ry) =      -3.670262
cgwf: iter =   58      grad =          -0.000001      Eb(Ry) =      -3.670262
cgwf: iter =   59      grad =          -0.000002      Eb(Ry) =      -3.670262
cgwf: iter =   60      grad =          -0.000002      Eb(Ry) =      -3.670262
cgwf: iter =   61      grad =          -0.000002      Eb(Ry) =      -3.670262
cgwf: iter =   62      grad =          -0.000002      Eb(Ry) =      -3.670262
cgwf: iter =   63      grad =          -0.000002      Eb(Ry) =      -3.670262
cgwf: iter =   64      grad =          -0.000003      Eb(Ry) =      -3.670263
cgwf: iter =   65      grad =          -0.000006      Eb(Ry) =      -3.670263
cgwf: iter =   66      grad =          -0.000005      Eb(Ry) =      -3.670263
cgwf: iter =   67      grad =          -0.000002      Eb(Ry) =      -3.670263
cgwf: iter =   68      grad =          -0.000001      Eb(Ry) =      -3.670263
cgwf: iter =   69      grad =          -0.000001      Eb(Ry) =      -3.670263
cgwf: iter =   70      grad =          -0.000001      Eb(Ry) =      -3.670263

cgwf:  CG tolerance reached

denmat: qtot (before DM normalization) =       8.0000
ordern: qtot (after  DM normalization) =       8.0000

siesta: iscf =    3
Eharris(eV) =       -465.9269  E_KS(eV) =       -465.4665  dDmax =  0.0512


ordern: enum =      8.0000
cgwf: iter =    1      grad =          -0.006672      Eb(Ry) =      -3.794845
cgwf: iter =    2      grad =          -0.010859      Eb(Ry) =      -3.795583
cgwf: iter =    3      grad =          -0.001237      Eb(Ry) =      -3.795702
cgwf: iter =    4      grad =          -0.001199      Eb(Ry) =      -3.795785
cgwf: iter =    5      grad =          -0.000090      Eb(Ry) =      -3.795814
cgwf: iter =    6      grad =          -0.000069      Eb(Ry) =      -3.795820
cgwf: iter =    7      grad =          -0.000067      Eb(Ry) =      -3.795823
cgwf: iter =    8      grad =          -0.000068      Eb(Ry) =      -3.795825
cgwf: iter =    9      grad =          -0.000080      Eb(Ry) =      -3.795827
cgwf: iter =   10      grad =          -0.000029      Eb(Ry) =      -3.795830
cgwf: iter =   11      grad =          -0.000038      Eb(Ry) =      -3.795834
cgwf: iter =   12      grad =          -0.000037      Eb(Ry) =      -3.795839
cgwf: iter =   13      grad =          -0.000036      Eb(Ry) =      -3.795840
cgwf: iter =   14      grad =          -0.000052      Eb(Ry) =      -3.795841
cgwf: iter =   15      grad =          -0.000021      Eb(Ry) =      -3.795843
cgwf: iter =   16      grad =          -0.000023      Eb(Ry) =      -3.795845
cgwf: iter =   17      grad =          -0.000018      Eb(Ry) =      -3.795847
cgwf: iter =   18      grad =          -0.000009      Eb(Ry) =      -3.795848
cgwf: iter =   19      grad =          -0.000007      Eb(Ry) =      -3.795848
cgwf: iter =   20      grad =          -0.000004      Eb(Ry) =      -3.795848
cgwf: iter =   21      grad =          -0.000007      Eb(Ry) =      -3.795849
cgwf: iter =   22      grad =          -0.000002      Eb(Ry) =      -3.795849
cgwf: iter =   23      grad =          -0.000007      Eb(Ry) =      -3.795849
cgwf: iter =   24      grad =          -0.000003      Eb(Ry) =      -3.795850
cgwf: iter =   25      grad =          -0.000008      Eb(Ry) =      -3.795850
cgwf: iter =   26      grad =          -0.000002      Eb(Ry) =      -3.795850
cgwf: iter =   27      grad =          -0.000001      Eb(Ry) =      -3.795850
cgwf: iter =   28      grad =          -0.000003      Eb(Ry) =      -3.795850
cgwf: iter =   29      grad =          -0.000004      Eb(Ry) =      -3.795850
cgwf: iter =   30      grad =          -0.000002      Eb(Ry) =      -3.795851
cgwf: iter =   31      grad =          -0.000002      Eb(Ry) =      -3.795851
cgwf: iter =   32      grad =          -0.000002      Eb(Ry) =      -3.795851
cgwf: iter =   33      grad =          -0.000001      Eb(Ry) =      -3.795851

cgwf:  CG tolerance reached

denmat: qtot (before DM normalization) =       8.0000
ordern: qtot (after  DM normalization) =       8.0000

siesta: iscf =    4
Eharris(eV) =       -465.8476  E_KS(eV) =       -465.5664  dDmax =  0.0165


ordern: enum =      8.0000
cgwf: iter =    1      grad =          -0.000616      Eb(Ry) =      -3.833239
cgwf: iter =    2      grad =          -0.000718      Eb(Ry) =      -3.833307
cgwf: iter =    3      grad =          -0.000128      Eb(Ry) =      -3.833316
cgwf: iter =    4      grad =          -0.000128      Eb(Ry) =      -3.833323
cgwf: iter =    5      grad =          -0.000012      Eb(Ry) =      -3.833326
cgwf: iter =    6      grad =          -0.000006      Eb(Ry) =      -3.833327
cgwf: iter =    7      grad =          -0.000005      Eb(Ry) =      -3.833327
cgwf: iter =    8      grad =          -0.000007      Eb(Ry) =      -3.833327
cgwf: iter =    9      grad =          -0.000008      Eb(Ry) =      -3.833327
cgwf: iter =   10      grad =          -0.000003      Eb(Ry) =      -3.833328
cgwf: iter =   11      grad =          -0.000003      Eb(Ry) =      -3.833328
cgwf: iter =   12      grad =          -0.000007      Eb(Ry) =      -3.833328
cgwf: iter =   13      grad =          -0.000002      Eb(Ry) =      -3.833329
cgwf: iter =   14      grad =          -0.000005      Eb(Ry) =      -3.833329
cgwf: iter =   15      grad =          -0.000003      Eb(Ry) =      -3.833329
cgwf: iter =   16      grad =          -0.000002      Eb(Ry) =      -3.833329
cgwf: iter =   17      grad =          -0.000002      Eb(Ry) =      -3.833329
cgwf: iter =   18      grad =          -0.000000      Eb(Ry) =      -3.833329

cgwf:  CG tolerance reached

denmat: qtot (before DM normalization) =       8.0000
ordern: qtot (after  DM normalization) =       8.0000

siesta: iscf =    5
Eharris(eV) =       -465.8401  E_KS(eV) =       -465.6353  dDmax =  0.0079


ordern: enum =      8.0000
cgwf: iter =    1      grad =          -0.000064      Eb(Ry) =      -3.844620
cgwf: iter =    2      grad =          -0.000069      Eb(Ry) =      -3.844626
cgwf: iter =    3      grad =          -0.000015      Eb(Ry) =      -3.844627
cgwf: iter =    4      grad =          -0.000018      Eb(Ry) =      -3.844628
cgwf: iter =    5      grad =          -0.000002      Eb(Ry) =      -3.844628
cgwf: iter =    6      grad =          -0.000001      Eb(Ry) =      -3.844629

cgwf:  CG tolerance reached

denmat: qtot (before DM normalization) =       8.0000
ordern: qtot (after  DM normalization) =       8.0000

siesta: iscf =    6
Eharris(eV) =       -465.8393  E_KS(eV) =       -465.6863  dDmax =  0.0061


ordern: enum =      8.0000
cgwf: iter =    1      grad =          -0.000009      Eb(Ry) =      -3.848078
cgwf: iter =    2      grad =          -0.000009      Eb(Ry) =      -3.848078
cgwf: iter =    3      grad =          -0.000002      Eb(Ry) =      -3.848079
cgwf: iter =    4      grad =          -0.000002      Eb(Ry) =      -3.848079
cgwf: iter =    5      grad =          -0.000001      Eb(Ry) =      -3.848079

cgwf:  CG tolerance reached

denmat: qtot (before DM normalization) =       8.0000
ordern: qtot (after  DM normalization) =       8.0000

siesta: iscf =    7
Eharris(eV) =       -465.8392  E_KS(eV) =       -465.7246  dDmax =  0.0045


ordern: enum =      8.0000
cgwf: iter =    1      grad =          -0.000002      Eb(Ry) =      -3.848995
cgwf: iter =    2      grad =          -0.000002      Eb(Ry) =      -3.848995
cgwf: iter =    3      grad =          -0.000000      Eb(Ry) =      -3.848995

cgwf:  CG tolerance reached

denmat: qtot (before DM normalization) =       8.0000
ordern: qtot (after  DM normalization) =       8.0000

siesta: iscf =    8
Eharris(eV) =       -465.8391  E_KS(eV) =       -465.7532  dDmax =  0.0034


ordern: enum =      8.0000
cgwf: iter =    1      grad =          -0.000001      Eb(Ry) =      -3.849418

cgwf:  CG tolerance reached

denmat: qtot (before DM normalization) =       8.0000
ordern: qtot (after  DM normalization) =       8.0000

siesta: iscf =    9
Eharris(eV) =       -465.8391  E_KS(eV) =       -465.7747  dDmax =  0.0026


ordern: enum =      8.0000
cgwf: iter =    1      grad =          -0.000001      Eb(Ry) =      -3.849704

cgwf:  CG tolerance reached

denmat: qtot (before DM normalization) =       8.0000
ordern: qtot (after  DM normalization) =       8.0000

siesta: iscf =   10
Eharris(eV) =       -465.8391  E_KS(eV) =       -465.7908  dDmax =  0.0019


ordern: enum =      8.0000
cgwf: iter =    1      grad =          -0.000002      Eb(Ry) =      -3.849887

cgwf:  CG tolerance reached

denmat: qtot (before DM normalization) =       8.0000
ordern: qtot (after  DM normalization) =       8.0000

siesta: iscf =   11
Eharris(eV) =       -465.8391  E_KS(eV) =       -465.8029  dDmax =  0.0015


ordern: enum =      8.0000
cgwf: iter =    1      grad =          -0.000001      Eb(Ry) =      -3.849986

cgwf:  CG tolerance reached

denmat: qtot (before DM normalization) =       8.0000
ordern: qtot (after  DM normalization) =       8.0000

siesta: iscf =   12
Eharris(eV) =       -465.8391  E_KS(eV) =       -465.8119  dDmax =  0.0011


ordern: enum =      8.0000
cgwf: iter =    1      grad =          -0.000002      Eb(Ry) =      -3.850032

cgwf:  CG tolerance reached

denmat: qtot (before DM normalization) =       8.0000
ordern: qtot (after  DM normalization) =       8.0000

siesta: iscf =   13
Eharris(eV) =       -465.8391  E_KS(eV) =       -465.8187  dDmax =  0.0008


ordern: enum =      8.0000
cgwf: iter =    1      grad =          -0.000001      Eb(Ry) =      -3.850032

cgwf:  CG tolerance reached

denmat: qtot (before DM normalization) =       8.0000
ordern: qtot (after  DM normalization) =       8.0000

siesta: iscf =   14
Eharris(eV) =       -465.8391  E_KS(eV) =       -465.8238  dDmax =  0.0006


ordern: enum =      8.0000
cgwf: iter =    1      grad =          -0.000001      Eb(Ry) =      -3.850011

cgwf:  CG tolerance reached

denmat: qtot (before DM normalization) =       8.0000
ordern: qtot (after  DM normalization) =       8.0000

siesta: iscf =   15
Eharris(eV) =       -465.8391  E_KS(eV) =       -465.8277  dDmax =  0.0005


ordern: enum =      8.0000
cgwf: iter =    1      grad =          -0.000001      Eb(Ry) =      -3.849970

cgwf:  CG tolerance reached

denmat: qtot (before DM normalization) =       8.0000
ordern: qtot (after  DM normalization) =       8.0000

siesta: iscf =   16
Eharris(eV) =       -465.8391  E_KS(eV) =       -465.8305  dDmax =  0.0004


ordern: enum =      8.0000
cgwf: iter =    1      grad =          -0.000001      Eb(Ry) =      -3.849928

cgwf:  CG tolerance reached

denmat: qtot (before DM normalization) =       8.0000
ordern: qtot (after  DM normalization) =       8.0000

siesta: iscf =   17
Eharris(eV) =       -465.8391  E_KS(eV) =       -465.8327  dDmax =  0.0003


ordern: enum =      8.0000
cgwf: iter =    1      grad =          -0.000001      Eb(Ry) =      -3.849881

cgwf:  CG tolerance reached

denmat: qtot (before DM normalization) =       8.0000
ordern: qtot (after  DM normalization) =       8.0000

siesta: iscf =   18
Eharris(eV) =       -465.8391  E_KS(eV) =       -465.8343  dDmax =  0.0002


ordern: enum =      8.0000
cgwf: iter =    1      grad =          -0.000001      Eb(Ry) =      -3.849841

cgwf:  CG tolerance reached

denmat: qtot (before DM normalization) =       8.0000
ordern: qtot (after  DM normalization) =       8.0000

siesta: iscf =   19
Eharris(eV) =       -465.8391  E_KS(eV) =       -465.8355  dDmax =  0.0002


ordern: enum =      8.0000
cgwf: iter =    1      grad =          -0.000000      Eb(Ry) =      -3.849802

cgwf:  CG tolerance reached

denmat: qtot (before DM normalization) =       8.0000
ordern: qtot (after  DM normalization) =       8.0000

siesta: iscf =   20
Eharris(eV) =       -465.8391  E_KS(eV) =       -465.8364  dDmax =  0.0002


ordern: enum =      8.0000
cgwf: iter =    1      grad =          -0.000000      Eb(Ry) =      -3.849774

cgwf:  CG tolerance reached

denmat: qtot (before DM normalization) =       8.0000
ordern: qtot (after  DM normalization) =       8.0000

siesta: iscf =   21
Eharris(eV) =       -465.8391  E_KS(eV) =       -465.8371  dDmax =  0.0001


ordern: enum =      8.0000
cgwf: iter =    1      grad =          -0.000000      Eb(Ry) =      -3.849747

cgwf:  CG tolerance reached

denmat: qtot (before DM normalization) =       8.0000
ordern: qtot (after  DM normalization) =       8.0000

siesta: iscf =   22
Eharris(eV) =       -465.8391  E_KS(eV) =       -465.8376  dDmax =  0.0001


ordern: enum =      8.0000
cgwf: iter =    1      grad =          -0.000000      Eb(Ry) =      -3.849731

cgwf:  CG tolerance reached

denmat: qtot (before DM normalization) =       8.0000
ordern: qtot (after  DM normalization) =       8.0000

siesta: iscf =   23
Eharris(eV) =       -465.8391  E_KS(eV) =       -465.8380  dDmax =  0.0001


ordern: enum =      8.0000
cgwf: iter =    1      grad =          -0.000000      Eb(Ry) =      -3.849716

cgwf:  CG tolerance reached

denmat: qtot (before DM normalization) =       8.0000
ordern: qtot (after  DM normalization) =       8.0000

siesta: iscf =   24
Eharris(eV) =       -465.8391  E_KS(eV) =       -465.8383  dDmax =  0.0001


SCF Convergence by dMax criterion
max |DM_out - DM_in|:     0.00009417
SCF cycle converged after   24 iterations

Using DM_out to compute the final energy and forces

siesta: E_KS(eV) =             -465.8391

siesta: E_KS - E_eggbox =      -465.8391

siesta: Atomic forces (eV/Ang):
----------------------------------------
   Tot   -0.000000    0.057375    0.000018
----------------------------------------
   Max    0.694070
   Res    0.382758    sqrt( Sum f_i^2 / 3N )
----------------------------------------
   Max    0.694070    constrained

Stress-tensor-Voigt (kbar):      -19.96       -3.54       22.42        0.00       -0.00       -0.00
(Free)E + p*V (eV/cell)     -465.7861
Target enthalpy (eV/cell)     -465.8391

siesta: Program's energy decomposition (eV):
siesta: Ebs     =      -104.756934
siesta: Eions   =       815.854478
siesta: Ena     =       175.155695
siesta: Ekin    =       350.756109
siesta: Enl     =       -61.950898
siesta: DEna    =        -1.762776
siesta: DUscf   =         0.727607
siesta: DUext   =         0.000000
siesta: Exc     =      -112.910390
siesta: eta*DQ  =         0.000000
siesta: Emadel  =         0.000000
siesta: Emeta   =         0.000000
siesta: Emolmec =         0.000000
siesta: Ekinion =         0.000000
siesta: Eharris =      -465.839132
siesta: Etot    =      -465.839132
siesta: FreeEng =      -465.839132

siesta: Final energy (eV):
siesta:  Band Struct. =    -104.756934
siesta:       Kinetic =     350.756109
siesta:       Hartree =     382.606616
siesta:    Ext. field =       0.000000
siesta:   Exch.-corr. =    -112.910390
siesta:  Ion-electron =   -1072.786966
siesta:       Ion-ion =     -13.504501
siesta:       Ekinion =       0.000000
siesta:         Total =    -465.839132

siesta: Atomic forces (eV/Ang):
siesta:      1    0.000003   -0.466656    0.000008
siesta:      2    0.694067    0.262015    0.000005
siesta:      3   -0.694070    0.262016    0.000005
siesta: ----------------------------------------
siesta:    Tot   -0.000000    0.057375    0.000018

siesta: Stress tensor (static) (eV/Ang**3):
siesta:    -0.012458    0.000000   -0.000000
siesta:     0.000000   -0.002211    0.000000
siesta:    -0.000000   -0.000000    0.013992

siesta: Cell volume =        235.378012 Ang**3

siesta: Pressure (static):
siesta:                Solid            Molecule  Units
siesta:           0.00000246         -0.00001814  Ry/Bohr**3
siesta:           0.00022544         -0.00166583  eV/Ang**3
siesta:           0.36119499         -2.66897995  kBar
(Free)E+ p_basis*V_orbitals  =        -465.253965
(Free)Eharris+ p_basis*V_orbitals  =        -465.253965

siesta: Electric dipole (a.u.)  =   -0.000000    0.559024   -0.000002
siesta: Electric dipole (Debye) =   -0.000000    1.420898   -0.000006
>> End of run:  10-JUN-2018  21:47:38
Job completed
