Siesta Version:                                        siesta-3.1
Architecture  : ifort11-macosx64
Compiler flags: ifort  -O2
SERIAL version

* Running in serial mode
>> Start of run:  10-JUN-2011  14:33:46

                           ***********************       
                           *  WELCOME TO SIESTA  *       
                           ***********************       

reinit: Reading from standard input
************************** Dump of input data file ****************************
SystemName          Water molecule with more basis generation options
SystemLabel         h2o_basis
NumberOfAtoms       3
NumberOfSpecies     2
MeshCutoff  50 Ry
%block ChemicalSpeciesLabel
 1  8  O      # Species index, atomic number, species label
 2  1  H
%endblock ChemicalSpeciesLabel
PAO.BasisSize TZTP       # Default basis size
PAO.SoftDefault T        # Trigger default soft-confinement options
PAO.SoftInnerRadius 0.75 # Default fractional r_inner
#
# Specify H options completely. Defaults will aply only to O
#
%block PAO.Basis
H    1  0.00
n=1  0  2   S 0.35  P 2 E 30.0 -0.5     # Split norm, fractional r_inner
    8.34 0.0
    1.0 1.0
O    2  0.00
n=2  0  2  E 30.0 -0.5     # fractional r_inner
    6.34 -0.8              # fractional second_zeta
    1.0 1.0
n=2  1  3  S 0.4 E 40.0 -0.7 P      #  Split_norm, fractional r_inner
    0.0 0.0 -0.8
    1.0 1.0  1.0
%endblock PAO.Basis
AtomicCoordinatesFormat  Ang
%block AtomicCoordinatesAndAtomicSpecies
 0.000  0.000  0.000  1
 0.757  0.586  0.000  2
-0.757  0.586  0.000  2
%endblock AtomicCoordinatesAndAtomicSpecies
************************** End of input data file *****************************

reinit: -----------------------------------------------------------------------
reinit: System Name: Water molecule with more basis generation options
reinit: -----------------------------------------------------------------------
reinit: System Label: h2o_basis                                                   
reinit: -----------------------------------------------------------------------

initatom: Reading input for the pseudopotentials and atomic orbitals ----------
 Species number:            1  Label: O Atomic number:           8
 Species number:            2  Label: H Atomic number:           1
Ground state valence configuration:   2s02  2p04
Reading pseudopotential information in formatted form from O.psf

Valence configuration for pseudopotential generation:
2s( 2.00) rc: 1.14
2p( 4.00) rc: 1.14
3d( 0.00) rc: 1.14
4f( 0.00) rc: 1.14
Ground state valence configuration:   1s01
Reading pseudopotential information in formatted form from H.psf

Valence configuration for pseudopotential generation:
1s( 1.00) rc: 1.25
2p( 0.00) rc: 1.25
3d( 0.00) rc: 1.25
4f( 0.00) rc: 1.25

*Warning: Per-shell split_norm parameter will not apply to zeta-3. rc= -0.8000

For O, standard SIESTA heuristics set lmxkb to 3
 (one more than the basis l, including polarization orbitals).
Use PS.lmax or PS.KBprojectors blocks to override.
For H, standard SIESTA heuristics set lmxkb to 2
 (one more than the basis l, including polarization orbitals).
Use PS.lmax or PS.KBprojectors blocks to override.

<basis_specs>
===============================================================================
O                    Z=   8    Mass=  16.000        Charge=  0.0000    
Lmxo=1 Lmxkb=3     BasisType=split      Semic=F
L=0  Nsemic=0  Cnfigmx=2
          n=1  nzeta=2  polorb=0
            splnorm:   0.15000    
               vcte:    30.000    
               rinn:  -0.50000    
                rcs:    6.3400    -0.80000    
            lambdas:    1.0000      1.0000    
L=1  Nsemic=0  Cnfigmx=2
          n=1  nzeta=3  polorb=1
            splnorm:   0.40000    
               vcte:    40.000    
               rinn:  -0.70000    
                rcs:    0.0000      0.0000    -0.80000    
            lambdas:    1.0000      1.0000      1.0000    
-------------------------------------------------------------------------------
L=0  Nkbl=1  erefs: 0.17977+309
L=1  Nkbl=1  erefs: 0.17977+309
L=2  Nkbl=1  erefs: 0.17977+309
L=3  Nkbl=1  erefs: 0.17977+309
===============================================================================
</basis_specs>

atom: Called for O                     (Z =   8)

read_vps: Pseudopotential generation method:
read_vps: ATM3      Troullier-Martins                       
Total valence charge:    6.00000

xc_check: Exchange-correlation functional:
xc_check: Ceperley-Alder
V l=0 = -2*Zval/r beyond r=  1.1278
V l=1 = -2*Zval/r beyond r=  1.1278
V l=2 = -2*Zval/r beyond r=  1.1278
V l=3 = -2*Zval/r beyond r=  1.1138
All V_l potentials equal beyond r=  1.1278
This should be close to max(r_c) in ps generation
All pots = -2*Zval/r beyond r=  1.1278

VLOCAL1: 99.0% of the norm of Vloc inside     34.126 Ry
VLOCAL1: 99.9% of the norm of Vloc inside     77.774 Ry
atom: Maximum radius for 4*pi*r*r*local-pseudopot. charge    1.37759
atom: Maximum radius for r*vlocal+2*Zval:    1.18566
GHOST: No ghost state for L =  0
GHOST: No ghost state for L =  1
GHOST: No ghost state for L =  2
GHOST: No ghost state for L =  3

KBgen: Kleinman-Bylander projectors: 
   l= 0   rc=  1.294105   el= -1.742414   Ekb=  9.135903   kbcos=  0.326910
   l= 1   rc=  1.294105   el= -0.676589   Ekb= -8.124878   kbcos= -0.395047
   l= 2   rc=  1.448233   el=  0.002386   Ekb= -2.039267   kbcos= -0.003484
   l= 3   rc=  1.561052   el=  0.003508   Ekb= -0.799141   kbcos= -0.000344

KBgen: Total number of  Kleinman-Bylander projectors:   16
atom: -------------------------------------------------------------------------

atom: SANKEY-TYPE ORBITALS:
atom: Selected multiple-zeta basis: split     

SPLIT: Orbitals with angular momentum L= 0

SPLIT: Basis orbitals for state 2s

   izeta = 1
                 lambda =    1.000000
                     rc =    6.331325
                 energy =   -1.742353
                kinetic =    1.525815
    potential(screened) =   -3.268168
       potential(ionic) =  -11.144890

   izeta = 2
                 rmatch =    5.055603
              splitnorm =    0.000434
                 energy =   -1.741431
* WARNING: effective split_norm is quite small. Orbitals will be very similar.
                kinetic =    1.555161
    potential(screened) =   -3.296593
       potential(ionic) =  -11.207341

SPLIT: Orbitals with angular momentum L= 1

SPLIT: Basis orbitals for state 2p

SPLIT: PAO cut-off radius determined from an
SPLIT: energy shift=  0.020000 Ry

   izeta = 1
                 lambda =    1.000000
                     rc =    3.937239
                 energy =   -0.646229
                kinetic =    5.212446
    potential(screened) =   -5.858675
       potential(ionic) =  -13.762025

   izeta = 2
                 rmatch =    1.725262
              splitnorm =    0.400000
                 energy =    0.721102
                kinetic =   11.655444
    potential(screened) =  -10.934342
       potential(ionic) =  -20.356156

   izeta = 3
                 rmatch =    3.143887
              splitnorm =    0.037357
                 energy =   -0.563102
* WARNING: effective split_norm is quite small. Orbitals will be very similar.
                kinetic =    6.250790
    potential(screened) =   -6.813892
       potential(ionic) =  -15.146819

POLgen: Perturbative polarization orbital with L=  2

POLgen: Polarization orbital for state 2p

   izeta = 1
                     rc =    3.937239
                 energy =    2.720185
                kinetic =    5.268186
    potential(screened) =   -2.548001
       potential(ionic) =   -9.134131
atom: Total number of Sankey-type orbitals: 16

atm_pop: Valence configuration (for local Pseudopot. screening):
 2s( 2.00)                                                            
 2p( 4.00)                                                            
Vna: chval, zval:    6.00000   6.00000

Vna:  Cut-off radius for the neutral-atom potential:   6.331325

atom: _________________________________________________________________________

<basis_specs>
===============================================================================
H                    Z=   1    Mass=  1.0100        Charge=  0.0000    
Lmxo=0 Lmxkb=2     BasisType=split      Semic=F
L=0  Nsemic=0  Cnfigmx=1
          n=1  nzeta=2  polorb=2
            splnorm:   0.35000    
               vcte:    30.000    
               rinn:  -0.50000    
                rcs:    8.3400      0.0000    
            lambdas:    1.0000      1.0000    
-------------------------------------------------------------------------------
L=0  Nkbl=1  erefs: 0.17977+309
L=1  Nkbl=1  erefs: 0.17977+309
L=2  Nkbl=1  erefs: 0.17977+309
===============================================================================
</basis_specs>

atom: Called for H                     (Z =   1)

read_vps: Pseudopotential generation method:
read_vps: ATM3      Troullier-Martins                       
Total valence charge:    1.00000

xc_check: Exchange-correlation functional:
xc_check: Ceperley-Alder
V l=0 = -2*Zval/r beyond r=  1.2343
V l=1 = -2*Zval/r beyond r=  1.2189
V l=2 = -2*Zval/r beyond r=  1.2189
All V_l potentials equal beyond r=  1.2343
This should be close to max(r_c) in ps generation
All pots = -2*Zval/r beyond r=  1.2343

VLOCAL1: 99.0% of the norm of Vloc inside     28.493 Ry
VLOCAL1: 99.9% of the norm of Vloc inside     64.935 Ry
atom: Maximum radius for 4*pi*r*r*local-pseudopot. charge    1.45251
atom: Maximum radius for r*vlocal+2*Zval:    1.21892
GHOST: No ghost state for L =  0
GHOST: No ghost state for L =  1
GHOST: No ghost state for L =  2

KBgen: Kleinman-Bylander projectors: 
   l= 0   rc=  1.364359   el= -0.467325   Ekb= -2.005361   kbcos= -0.336422
   l= 1   rc=  1.434438   el=  0.001430   Ekb= -0.501708   kbcos= -0.021697
   l= 2   rc=  1.470814   el=  0.002365   Ekb= -0.190555   kbcos= -0.002281

KBgen: Total number of  Kleinman-Bylander projectors:    9
atom: -------------------------------------------------------------------------

atom: SANKEY-TYPE ORBITALS:
atom: Selected multiple-zeta basis: split     

SPLIT: Orbitals with angular momentum L= 0

SPLIT: Basis orbitals for state 1s

   izeta = 1
                 lambda =    1.000000
                     rc =    8.370419
                 energy =   -0.465979
                kinetic =    0.843626
    potential(screened) =   -1.309604
       potential(ionic) =   -1.836649

   izeta = 2
                 rmatch =    3.116482
              splitnorm =    0.350000
                 energy =   -0.162430
                kinetic =    1.991443
    potential(screened) =   -2.153873
       potential(ionic) =   -2.741389

POLgen: Perturbative polarization orbital with L=  1

POLgen: Polarization orbital for state 1s

   izeta = 1
                     rc =    8.370419
                 energy =    0.515621
                kinetic =    1.103746
    potential(screened) =   -0.588125
       potential(ionic) =   -1.051458

POLgen: Polarization orbital for state 1s

   izeta = 2
                 rmatch =    3.903467
              splitnorm =    0.350000
                 energy =    1.286236
                kinetic =    2.252325
    potential(screened) =   -0.966089
       potential(ionic) =   -1.492586
atom: Total number of Sankey-type orbitals:  8

atm_pop: Valence configuration (for local Pseudopot. screening):
 1s( 1.00)                                                            
Vna: chval, zval:    1.00000   1.00000

Vna:  Cut-off radius for the neutral-atom potential:   8.370419

atom: _________________________________________________________________________

prinput: Basis input ----------------------------------------------------------

PAO.BasisType split     

%block ChemicalSpeciesLabel
    1    8 O                       # Species index, atomic number, species label
    2    1 H                       # Species index, atomic number, species label
%endblock ChemicalSpeciesLabel

%block PAO.Basis                 # Define Basis set
O                     2                    # Species label, number of l-shells
 n=2   0   2                         # n, l, Nzeta 
   6.331      5.056   
   1.000      1.000   
 n=2   1   3 P   1                   # n, l, Nzeta, Polarization, NzetaPol
   3.937      1.725      3.144   
   1.000      1.000      1.000   
H                     1                    # Species label, number of l-shells
 n=1   0   2 P   2                   # n, l, Nzeta, Polarization, NzetaPol
   8.370      3.116   
   1.000      1.000   
%endblock PAO.Basis

prinput: ----------------------------------------------------------------------

coor:   Atomic-coordinates input format  =     Cartesian coordinates
coor:                                          (in Angstroms)

siesta: Atomic coordinates (Bohr) and species
siesta:      0.00000   0.00000   0.00000  1        1
siesta:      1.43052   1.10738   0.00000  2        2
siesta:     -1.43052   1.10738   0.00000  2        3

siesta: Automatic unit cell vectors (Ang):
siesta:   11.410153    0.000000    0.000000
siesta:    0.000000    9.744753    0.000000
siesta:    0.000000    0.000000    9.744753

siesta: System type = molecule  

initatomlists: Number of atoms, orbitals, and projectors:      3    32    34

siesta: ******************** Simulation parameters ****************************
siesta:
siesta: The following are some of the parameters of the simulation.
siesta: A complete list of the parameters used, including default values,
siesta: can be found in file out.fdf
siesta:
redata: Non-Collinear-spin run           =     F
redata: SpinPolarized (Up/Down) run      =     F
redata: Number of spin components        =     1
redata: Long output                      =     F
redata: Number of Atomic Species         =        2
redata: Charge density info will appear in .RHO file
redata: Write Mulliken Pop.              =     NO
redata: Mesh Cutoff                      =    50.0000  Ry
redata: Net charge of the system         =     0.0000 |e|
redata: Max. number of SCF Iter          =       50
redata: Mixing is linear
redata: Mix DM in first SCF step ?       =     F
redata: Write Pulay info on disk?        =     F
redata: Discard 1st Pulay DM after  kick =     F
redata: New DM Mixing Weight             =     0.2500
redata: New DM Occupancy tolerance       = 0.000000000001
redata: No kicks to SCF
redata: DM Mixing Weight for Kicks       =     0.5000
redata: DM Tolerance for SCF             =     0.000100
redata: Require Energy convergence for SCF =     F
redata: DM Energy tolerance for SCF      =     0.000100 eV
redata: Require Harris convergence for SCF =     F
redata: DM Harris energy tolerance for SCF =     0.000100 eV
redata: Using Saved Data (generic)   =     F
redata: Use continuation files for DM    =     F
redata: Neglect nonoverlap interactions  =     F
redata: Method of Calculation            =     Diagonalization
redata: Divide and Conquer               =     T
redata: Electronic Temperature           =     0.0019  Ry
redata: Fix the spin of the system       =     F
redata: Dynamics option                  =     Verlet MD run
redata: Initial MD time step             =        1
redata:   Final MD time step             =        1
redata: Length of MD time step           =     1.0000  fs
redata: Initial Temperature of MD run    =     0.0000  K
redata: Perform a MD quench              =     F
redata: ***********************************************************************
Total number of electrons:     8.000000
Total ionic charge:     8.000000
 Kpoints in:            1 . Kpoints trimmed:            1

siesta: k-grid: Number of k-points =     1
siesta: k-grid: Cutoff (effective) =     4.872 Ang
siesta: k-grid: Supercell and displacements
siesta: k-grid:    1   0   0      0.000
siesta: k-grid:    0   1   0      0.000
siesta: k-grid:    0   0   1      0.000

* Maximum dynamic memory allocated =     2 MB

siesta:                 ==============================
                            Begin MD step =      1
                        ==============================

outcell: Unit cell vectors (Ang):
       11.410153    0.000000    0.000000
        0.000000    9.744753    0.000000
        0.000000    0.000000    9.744753

outcell: Cell vector modules (Ang)   :   11.410153    9.744753    9.744753
outcell: Cell angles (23,13,12) (deg):     90.0000     90.0000     90.0000
outcell: Cell volume (Ang**3)        :   1083.5105
New_DM. Step:     1
Initializing Density Matrix...

InitMesh: MESH =    50 x    48 x    48 =      115200
InitMesh: Mesh cutoff (required, used) =    50.000    53.071 Ry

* Maximum dynamic memory allocated =     8 MB

stepf: Fermi-Dirac step function

siesta: Program's energy decomposition (eV):
siesta: Ebs     =      -122.669982
siesta: Eions   =       815.854479
siesta: Ena     =       172.658771
siesta: Ekin    =       348.160773
siesta: Enl     =       -56.171076
siesta: DEna    =        -0.000024
siesta: DUscf   =         0.000000
siesta: DUext   =         0.000000
siesta: Exc     =      -110.230195
siesta: eta*DQ  =         0.000000
siesta: Emadel  =         0.000000
siesta: Emeta   =         0.000000
siesta: Emolmec =         0.000000
siesta: Ekinion =         0.000000
siesta: Eharris =      -467.028487
siesta: Etot    =      -461.436229
siesta: FreeEng =      -461.436229

siesta: iscf   Eharris(eV)      E_KS(eV)   FreeEng(eV)   dDmax  Ef(eV)
siesta:    1     -467.0285     -461.4362     -461.4362 62.2293 -4.9416
timer: Routine,Calls,Time,% = IterSCF        1       2.436  69.27
elaps: Routine,Calls,Wall,% = IterSCF        1       2.435  69.26
siesta:    2     -467.0634     -466.4813     -466.4813  9.2222 -1.9351
siesta:    3     -466.7143     -466.5557     -466.5557  4.6190 -2.9712
siesta:    4     -466.6945     -466.5914     -466.5914  2.9986 -3.2187
siesta:    5     -466.6929     -466.6168     -466.6168  2.1146 -3.2868
siesta:    6     -466.6928     -466.6359     -466.6359  1.5376 -3.3087
siesta:    7     -466.6928     -466.6502     -466.6502  1.1309 -3.3179
siesta:    8     -466.6928     -466.6609     -466.6609  0.8357 -3.3229
siesta:    9     -466.6927     -466.6688     -466.6688  0.6188 -3.3262
siesta:   10     -466.6927     -466.6748     -466.6748  0.4589 -3.3286
siesta:   11     -466.6927     -466.6793     -466.6793  0.3405 -3.3303
siesta:   12     -466.6928     -466.6827     -466.6827  0.2530 -3.3316
siesta:   13     -466.6928     -466.6852     -466.6852  0.1880 -3.3325
siesta:   14     -466.6927     -466.6870     -466.6870  0.1398 -3.3333
siesta:   15     -466.6927     -466.6884     -466.6884  0.1040 -3.3338
siesta:   16     -466.6927     -466.6895     -466.6895  0.0775 -3.3341
siesta:   17     -466.6927     -466.6903     -466.6903  0.0577 -3.3344
siesta:   18     -466.6927     -466.6909     -466.6909  0.0431 -3.3346
siesta:   19     -466.6928     -466.6914     -466.6914  0.0322 -3.3348
siesta:   20     -466.6927     -466.6917     -466.6917  0.0240 -3.3349
siesta:   21     -466.6927     -466.6920     -466.6920  0.0179 -3.3350
siesta:   22     -466.6927     -466.6921     -466.6921  0.0134 -3.3350
siesta:   23     -466.6927     -466.6923     -466.6923  0.0100 -3.3350
siesta:   24     -466.6928     -466.6924     -466.6924  0.0075 -3.3351
siesta:   25     -466.6927     -466.6925     -466.6925  0.0056 -3.3351
siesta:   26     -466.6927     -466.6925     -466.6925  0.0042 -3.3351
siesta:   27     -466.6928     -466.6926     -466.6926  0.0032 -3.3351
siesta:   28     -466.6926     -466.6925     -466.6925  0.0023 -3.3352
siesta:   29     -466.6927     -466.6926     -466.6926  0.0018 -3.3351
siesta:   30     -466.6927     -466.6927     -466.6927  0.0013 -3.3352
siesta:   31     -466.6927     -466.6927     -466.6927  0.0010 -3.3352
siesta:   32     -466.6928     -466.6927     -466.6927  0.0007 -3.3352
siesta:   33     -466.6927     -466.6927     -466.6927  0.0006 -3.3352
siesta:   34     -466.6927     -466.6927     -466.6927  0.0004 -3.3352
siesta:   35     -466.6928     -466.6928     -466.6928  0.0003 -3.3352
siesta:   36     -466.6927     -466.6927     -466.6927  0.0002 -3.3352
siesta:   37     -466.6927     -466.6927     -466.6927  0.0002 -3.3352
siesta:   38     -466.6927     -466.6927     -466.6927  0.0001 -3.3352
siesta:   39     -466.6927     -466.6927     -466.6927  0.0001 -3.3352

siesta: E_KS(eV) =             -466.6927

siesta: E_KS - E_eggbox =      -466.6927

siesta: Atomic forces (eV/Ang):
----------------------------------------
   Tot   -0.000011    0.320893    0.000000
----------------------------------------
   Max    1.008634
   Res    0.543472    sqrt( Sum f_i^2 / 3N )
----------------------------------------
   Max    1.008634    constrained

Stress-tensor-Voigt (kbar):       -5.10       -1.09        0.27        0.00        0.00        0.00
(Free)E + p*V (eV/cell)     -465.3583
Target enthalpy (eV/cell)     -466.6927

siesta: Stress tensor (static) (eV/Ang**3):
        -0.003181    0.000000    0.000000
         0.000000   -0.000682    0.000000
         0.000000    0.000000    0.000169

siesta: Pressure (static):          1.97308605  kBar

siesta: Stress tensor (total) (eV/Ang**3):
        -0.003181    0.000000    0.000000
         0.000000   -0.000682    0.000000
         0.000000    0.000000    0.000169

siesta: Pressure (total):          1.97308605  kBar

siesta: Temp_ion =       0.000 K

* Maximum dynamic memory allocated =     8 MB

siesta: Program's energy decomposition (eV):
siesta: Ebs     =      -109.598714
siesta: Eions   =       815.854479
siesta: Ena     =       172.658771
siesta: Ekin    =       349.690875
siesta: Enl     =       -62.790571
siesta: DEna    =         1.227656
siesta: DUscf   =         0.632530
siesta: DUext   =         0.000000
siesta: Exc     =      -112.257452
siesta: eta*DQ  =         0.000000
siesta: Emadel  =         0.000000
siesta: Emeta   =         0.000000
siesta: Emolmec =         0.000000
siesta: Ekinion =         0.000000
siesta: Eharris =      -466.692689
siesta: Etot    =      -466.692671
siesta: FreeEng =      -466.692671

siesta: Final energy (eV):
siesta:  Band Struct. =    -109.598714
siesta:       Kinetic =     349.690875
siesta:       Hartree =     455.920924
siesta:    Ext. field =       0.000000
siesta:   Exch.-corr. =    -112.257452
siesta:  Ion-electron =   -1224.048920
siesta:       Ion-ion =      64.001902
siesta:       Ekinion =       0.000000
siesta:         Total =    -466.692671

siesta: Atomic forces (eV/Ang):
siesta:      1   -0.000012   -0.519800    0.000000
siesta:      2    1.008634    0.420347    0.000000
siesta:      3   -1.008633    0.420346    0.000000
siesta: ----------------------------------------
siesta:    Tot   -0.000011    0.320893    0.000000

siesta: Stress tensor (static) (eV/Ang**3):
siesta:    -0.003181    0.000000    0.000000
siesta:     0.000000   -0.000682    0.000000
siesta:     0.000000    0.000000    0.000169

siesta: Cell volume =       1083.510463 Ang**3

siesta: Pressure (static):
siesta:                Solid            Molecule  Units
siesta:           0.00001341          0.00000707  Ry/Bohr**3
siesta:           0.00123149          0.00064871  eV/Ang**3
siesta:           1.97308605          1.03935411  kBar
(Free)E+ p_basis*V_orbitals  =        -464.316546
(Free)Eharris+ p_basis*V_orbitals  =        -464.316551

siesta: Electric dipole (a.u.)  =    0.000000    0.507236    0.000000
siesta: Electric dipole (Debye) =    0.000000    1.289265    0.000000

* Maximum dynamic memory allocated : Node    0 =     8 MB

* Maximum memory occured during poison                        

timer: CPU execution times:
timer:  Routine       Calls   Time/call    Tot.time        %
timer:  siesta            1       6.872       6.872   100.00
timer:  Setup             1       0.351       0.351     5.10
timer:  bands             1       0.000       0.000     0.00
timer:  writewave         1       0.001       0.001     0.01
timer:  KSV_init          1       0.000       0.000     0.00
timer:  IterMD            1       6.516       6.516    94.81
timer:  hsparse           1       0.001       0.001     0.01
timer:  overlap           1       0.727       0.727    10.58
timer:  IterSCF          39       0.142       5.554    80.81
timer:  kinefsm           2       0.349       0.697    10.15
timer:  nlefsm            2       0.742       1.484    21.59
timer:  DHSCF            40       0.088       3.503    50.97
timer:  DHSCF1            1       0.028       0.028     0.41
timer:  DHSCF2            1       0.141       0.141     2.05
timer:  REORD           322       0.000       0.095     1.39
timer:  POISON           41       0.015       0.595     8.66
timer:  DHSCF3           40       0.079       3.175    46.20
timer:  rhoofd           40       0.017       0.681     9.91
timer:  cellXC           40       0.025       0.982    14.29
timer:  vmat             40       0.016       0.638     9.29
timer:  MolMec            2       0.000       0.000     0.00
timer:  diagon           39       0.001       0.026     0.38
timer:  r-eigvec         39       0.001       0.024     0.35
timer:  r-buildHS        39       0.000       0.000     0.01
timer:  rdiag            39       0.001       0.023     0.34
timer:  rdiag1           39       0.000       0.001     0.02
timer:  rdiag2           39       0.000       0.003     0.04
timer:  rdiag3           39       0.000       0.018     0.26
timer:  rdiag4           39       0.000       0.001     0.01
timer:  r-buildD         39       0.000       0.001     0.01
timer:  DHSCF4            1       0.141       0.141     2.05
timer:  dfscf             1       0.114       0.114     1.66
timer:  overfsm           1       0.001       0.001     0.01
timer:  optical           1       0.000       0.000     0.00
  

elaps: ELAPSED times:
elaps:  Routine       Calls   Time/call    Tot.time        %
elaps:  siesta            1       6.871       6.871   100.00
elaps:  Setup             1       0.351       0.351     5.11
elaps:  bands             1       0.000       0.000     0.00
elaps:  writewave         1       0.001       0.001     0.01
elaps:  KSV_init          1       0.000       0.000     0.00
elaps:  IterMD            1       6.515       6.515    94.81
elaps:  hsparse           1       0.001       0.001     0.01
elaps:  overlap           1       0.727       0.727    10.59
elaps:  IterSCF          39       0.142       5.552    80.80
elaps:  kinefsm           2       0.349       0.697    10.15
elaps:  nlefsm            2       0.742       1.483    21.59
elaps:  DHSCF            40       0.088       3.503    50.97
elaps:  DHSCF1            1       0.028       0.028     0.41
elaps:  DHSCF2            1       0.141       0.141     2.05
elaps:  REORD           322       0.000       0.095     1.38
elaps:  POISON           41       0.015       0.595     8.66
elaps:  DHSCF3           40       0.079       3.175    46.20
elaps:  rhoofd           40       0.017       0.681     9.91
elaps:  cellXC           40       0.025       0.982    14.29
elaps:  vmat             40       0.016       0.638     9.29
elaps:  MolMec            2       0.000       0.000     0.00
elaps:  diagon           39       0.001       0.026     0.38
elaps:  r-eigvec         39       0.001       0.024     0.35
elaps:  r-buildHS        39       0.000       0.000     0.00
elaps:  rdiag            39       0.001       0.023     0.34
elaps:  rdiag1           39       0.000       0.001     0.02
elaps:  rdiag2           39       0.000       0.002     0.04
elaps:  rdiag3           39       0.000       0.018     0.26
elaps:  rdiag4           39       0.000       0.000     0.01
elaps:  r-buildD         39       0.000       0.001     0.01
elaps:  DHSCF4            1       0.141       0.141     2.05
elaps:  dfscf             1       0.114       0.114     1.66
elaps:  overfsm           1       0.001       0.001     0.01
elaps:  optical           1       0.000       0.000     0.00
  
>> End of run:  10-JUN-2011  14:33:53
