Siesta Version: siesta-2.0.1
Architecture  : powerpc-apple-darwin8.8.0--unknown
Compiler flags: g95 -g -O2
SERIAL version
NetCDF-capable

* Running in serial mode
>> Start of run:   5-DEC-2006  13:25:45

                           ***********************       
                           *  WELCOME TO SIESTA  *       
                           ***********************       

reinit: Reading from standard input
************************** Dump of input data file ****************************
SystemName          Water molecule Broyden Optimization
SystemLabel         h2o_op_broyden
NumberOfAtoms       3
NumberOfSpecies     2
MeshCutoff  50 Ry
%block ChemicalSpeciesLabel
 1  8  O      # Species index, atomic number, species label
 2  1  H
%endblock ChemicalSpeciesLabel
AtomicCoordinatesFormat  Ang
%block AtomicCoordinatesAndAtomicSpecies
 0.000  0.000  0.000  1
 0.757  0.586  0.000  2
-0.757  0.586  0.000  2
%endblock AtomicCoordinatesAndAtomicSpecies
DM.Number.Pulay 3
WriteForces T
MD.TypeOfRun Broyden
MD.NumCGSteps 20
MD.Broyden.History.Steps 6
MD.Broyden.Initial.Inverse.Jacobian 1.0
************************** End of input data file *****************************

reinit: -----------------------------------------------------------------------
reinit: System Name: Water molecule Broyden Optimization                        
reinit: -----------------------------------------------------------------------
reinit: System Label: h2o_op_broyden                                              
reinit: -----------------------------------------------------------------------

initatom: Reading input for the pseudopotentials and atomic orbitals ----------
 Species number:  1  Label: O Atomic number: 8
 Species number:  2  Label: H Atomic number: 1
Ground state valence configuration:   2s02  2p04
Reading pseudopotential information in formatted form from O.psf
Ground state valence configuration:   1s01
Reading pseudopotential information in formatted form from H.psf
For O, standard SIESTA heuristics set lmxkb to 3
 (one more than the basis l, including polarization orbitals).
Use PS.lmax or PS.KBprojectors blocks to override.
For H, standard SIESTA heuristics set lmxkb to 2
 (one more than the basis l, including polarization orbitals).
Use PS.lmax or PS.KBprojectors blocks to override.

<basis_specs>
===============================================================================
O                    Z=   8    Mass=  16.000        Charge=  .00000    
Lmxo=1 Lmxkb=3     BasisType=split      Semic=F
L=0  Nsemic=0  Cnfigmx=2
          n=1  nzeta=2  polorb=0
               vcte:    .00000    
               rinn:    .00000    
                rcs:    .00000      .00000    
            lambdas:    1.0000      1.0000    
L=1  Nsemic=0  Cnfigmx=2
          n=1  nzeta=2  polorb=1
               vcte:    .00000    
               rinn:    .00000    
                rcs:    .00000      .00000    
            lambdas:    1.0000      1.0000    
-------------------------------------------------------------------------------
L=0  Nkbl=1  erefs: 0.17977+309
L=1  Nkbl=1  erefs: 0.17977+309
L=2  Nkbl=1  erefs: 0.17977+309
L=3  Nkbl=1  erefs: 0.17977+309
===============================================================================
</basis_specs>

atom: Called for O   (Z =   8)

read_vps: Pseudopotential generation method:
read_vps: ATM3      Troullier-Martins                       

read_vps: Valence configuration (pseudopotential and basis set generation):
2s( 2.00) rc: 1.14
2p( 4.00) rc: 1.14
3d( 0.00) rc: 1.14
4f( 0.00) rc: 1.14
Total valence charge:    6.00000

xc_check: Exchange-correlation functional:
xc_check: Ceperley-Alder
V l=0 = -2*Zval/r beyond r=  1.1278
V l=1 = -2*Zval/r beyond r=  1.1278
V l=2 = -2*Zval/r beyond r=  1.1278
V l=3 = -2*Zval/r beyond r=  1.1138
All V_l potentials equal beyond r=  1.1278
This should be close to max(r_c) in ps generation
All pots = -2*Zval/r beyond r=  1.1278

VLOCAL1: 99.0% of the norm of Vloc inside     34.126 Ry
VLOCAL1: 99.9% of the norm of Vloc inside     77.774 Ry
atom: Maximum radius for 4*pi*r*r*local-pseudopot. charge    1.37759
atom: Maximum radius for r*vlocal+2*Zval:    1.18566
GHOST: No ghost state for L =  0
GHOST: No ghost state for L =  1
GHOST: No ghost state for L =  2
GHOST: No ghost state for L =  3

KBgen: Kleinman-Bylander projectors: 
   l= 0   rc=  1.294105   el= -1.742414   Ekb=  9.135903   kbcos=  0.326910
   l= 1   rc=  1.294105   el= -0.676589   Ekb= -8.124878   kbcos= -0.395047
   l= 2   rc=  1.448233   el=  0.002386   Ekb= -2.039267   kbcos= -0.003484
   l= 3   rc=  1.561052   el=  0.003508   Ekb= -0.799141   kbcos= -0.000344

KBgen: Total number of  Kleinman-Bylander projectors:   16
atom: -------------------------------------------------------------------------

atom: SANKEY-TYPE ORBITALS:
atom: Selected multiple-zeta basis: split     

SPLIT: Orbitals with angular momentum L= 0

SPLIT: Basis orbitals for state 2s

SPLIT: PAO cut-off radius determined from an
SPLIT: energy shift=  0.020000 Ry

   izeta = 1
                 lambda =    1.000000
                     rc =    3.305093
                 energy =   -1.723766
                kinetic =    1.614911
    potential(screened) =   -3.338677
       potential(ionic) =  -11.304675

   izeta = 2
                 rmatch =    2.510382
              splitnorm =    0.150000
                 energy =   -1.471081
                kinetic =    2.446738
    potential(screened) =   -3.917818
       potential(ionic) =  -12.476310

SPLIT: Orbitals with angular momentum L= 1

SPLIT: Basis orbitals for state 2p

SPLIT: PAO cut-off radius determined from an
SPLIT: energy shift=  0.020000 Ry

   izeta = 1
                 lambda =    1.000000
                     rc =    3.937239
                 energy =   -0.658841
                kinetic =    5.005986
    potential(screened) =   -5.664827
       potential(ionic) =  -13.452360

   izeta = 2
                 rmatch =    2.541963
              splitnorm =    0.150000
                 energy =   -0.367387
                kinetic =    7.530138
    potential(screened) =   -7.897525
       potential(ionic) =  -16.611418

POLgen: Perturbative polarization orbital with L=  2

POLgen: Polarization orbital for state 2p

   izeta = 1
                     rc =    3.937239
                 energy =    2.398520
                kinetic =    4.716729
    potential(screened) =   -2.318209
       potential(ionic) =   -8.603170
atom: Total number of Sankey-type orbitals: 13

atm_pop: Valence configuration(local Pseudopot. screening):
 2s( 2.00)                                                            
 2p( 4.00)                                                            
Vna: chval, zval:    6.00000   6.00000

Vna:  Cut-off radius for the neutral-atom potential:   3.937239

atom: _________________________________________________________________________

<basis_specs>
===============================================================================
H                    Z=   1    Mass=  1.0100        Charge=  .00000    
Lmxo=0 Lmxkb=2     BasisType=split      Semic=F
L=0  Nsemic=0  Cnfigmx=1
          n=1  nzeta=2  polorb=1
               vcte:    .00000    
               rinn:    .00000    
                rcs:    .00000      .00000    
            lambdas:    1.0000      1.0000    
-------------------------------------------------------------------------------
L=0  Nkbl=1  erefs: 0.17977+309
L=1  Nkbl=1  erefs: 0.17977+309
L=2  Nkbl=1  erefs: 0.17977+309
===============================================================================
</basis_specs>

atom: Called for H   (Z =   1)

read_vps: Pseudopotential generation method:
read_vps: ATM3      Troullier-Martins                       

read_vps: Valence configuration (pseudopotential and basis set generation):
1s( 1.00) rc: 1.25
2p( 0.00) rc: 1.25
3d( 0.00) rc: 1.25
Total valence charge:    1.00000

xc_check: Exchange-correlation functional:
xc_check: Ceperley-Alder
V l=0 = -2*Zval/r beyond r=  1.2343
V l=1 = -2*Zval/r beyond r=  1.2189
V l=2 = -2*Zval/r beyond r=  1.2189
All V_l potentials equal beyond r=  1.2343
This should be close to max(r_c) in ps generation
All pots = -2*Zval/r beyond r=  1.2343

VLOCAL1: 99.0% of the norm of Vloc inside     28.493 Ry
VLOCAL1: 99.9% of the norm of Vloc inside     64.935 Ry
atom: Maximum radius for 4*pi*r*r*local-pseudopot. charge    1.45251
atom: Maximum radius for r*vlocal+2*Zval:    1.21892
GHOST: No ghost state for L =  0
GHOST: No ghost state for L =  1
GHOST: No ghost state for L =  2

KBgen: Kleinman-Bylander projectors: 
   l= 0   rc=  1.364359   el= -0.467325   Ekb= -2.005361   kbcos= -0.336422
   l= 1   rc=  1.434438   el=  0.001430   Ekb= -0.501708   kbcos= -0.021697
   l= 2   rc=  1.470814   el=  0.002365   Ekb= -0.190555   kbcos= -0.002281

KBgen: Total number of  Kleinman-Bylander projectors:    9
atom: -------------------------------------------------------------------------

atom: SANKEY-TYPE ORBITALS:
atom: Selected multiple-zeta basis: split     

SPLIT: Orbitals with angular momentum L= 0

SPLIT: Basis orbitals for state 1s

SPLIT: PAO cut-off radius determined from an
SPLIT: energy shift=  0.020000 Ry

   izeta = 1
                 lambda =    1.000000
                     rc =    4.828263
                 energy =   -0.449375
                kinetic =    0.929372
    potential(screened) =   -1.378747
       potential(ionic) =   -1.915047

   izeta = 2
                 rmatch =    3.854947
              splitnorm =    0.150000
                 energy =   -0.335649
                kinetic =    1.505971
    potential(screened) =   -1.841620
       potential(ionic) =   -2.413776

POLgen: Perturbative polarization orbital with L=  1

POLgen: Polarization orbital for state 1s

   izeta = 1
                     rc =    4.828263
                 energy =    0.706972
                kinetic =    1.396397
    potential(screened) =   -0.689424
       potential(ionic) =   -1.169792
atom: Total number of Sankey-type orbitals:  5

atm_pop: Valence configuration(local Pseudopot. screening):
 1s( 1.00)                                                            
Vna: chval, zval:    1.00000   1.00000

Vna:  Cut-off radius for the neutral-atom potential:   4.828263

atom: _________________________________________________________________________

prinput: Basis input ----------------------------------------------------------

PAO.BasisType split     

%block ChemicalSpeciesLabel
    1    8 O                       # Species index, atomic number, species label
    2    1 H                       # Species index, atomic number, species label
%endblock ChemicalSpeciesLabel

%block PAO.Basis                 # Define Basis set
O           2                    # Species label, number of l-shells
 n=2   0   2                         # n, l, Nzeta 
   3.305      2.510   
   1.000      1.000   
 n=2   1   2 P   1                   # n, l, Nzeta, Polarization, NzetaPol
   3.937      2.542   
   1.000      1.000   
H           1                    # Species label, number of l-shells
 n=1   0   2 P   1                   # n, l, Nzeta, Polarization, NzetaPol
   4.828      3.855   
   1.000      1.000   
%endblock PAO.Basis

prinput: ----------------------------------------------------------------------

Dumping basis to NetCDF file O.ion.nc
Dumping basis to NetCDF file H.ion.nc

siesta: ******************** Simulation parameters ****************************
siesta:
siesta: The following are some of the parameters of the simulation.
siesta: A complete list of the parameters used, including default values,
siesta: can be found in file out.fdf
siesta:
coor:   Atomic-coordinates input format  =     Cartesian coordinates
coor:                                          (in Angstroms)
redata: Number of spin components        =     1
redata: Long output                      =     F
redata: Number of Atomic Species         =     2
redata: Charge density info will appear in .RHO file
redata: Write Mulliken Pop.              =     NO
redata: Mesh Cutoff                      =    50.0000  Ry
redata: Net charge of the system         =     0.0000 |e|
redata: Max. number of SCF Iter          =    50
redata: Performing Pulay mixing using    =     3 iterations
redata: Mix DM in first SCF step ?       =     F
redata: Write Pulay info on disk?        =     F
redata: New DM Mixing Weight             =     0.2500
redata: New DM Occupancy tolerance       = 0.000000000001
redata: No kicks to SCF
redata: DM Mixing Weight for Kicks       =     0.5000
redata: DM Tolerance for SCF             =     0.000100
redata: Require Energy convergence for SCF =     F
redata: DM Energy tolerance for SCF      =     0.000100 eV
redata: Using Saved Data (generic)   =     F
redata: Use continuation files for DM    =     F
redata: Neglect nonoverlap interactions  =     F
redata: Method of Calculation            =     Diagonalization
redata: Divide and Conquer               =     T
redata: Electronic Temperature           =     0.0019  Ry
redata: Fix the spin of the system       =     F
redata: Dynamics option                  =     Broyden coord. optimization
redata: Variable cell                    =     F
redata: Maximum number of CG moves       =    20
redata: Force tolerance                  =     0.0016  Ry/Bohr
redata: ***********************************************************************

siesta: Atomic coordinates (Bohr) and species
siesta:      0.00000   0.00000   0.00000  1        1
siesta:      1.43052   1.10738   0.00000  2        2
siesta:     -1.43052   1.10738   0.00000  2        3

initatomlists: Number of atoms, orbitals, and projectors:      3    23    34

siesta: Automatic unit cell vectors (Ang):
siesta:    7.286412    0.000000    0.000000
siesta:    0.000000    5.746952    0.000000
siesta:    0.000000    0.000000    5.621012

siesta: System type = molecule  

siesta: k-grid: Number of k-points =     1
siesta: k-grid: Cutoff (effective) =     2.811 Ang
siesta: k-grid: Supercell and displacements
siesta: k-grid:    0   0   1      0.000
siesta: k-grid:    0   1   0      0.000
siesta: k-grid:    1   0   0      0.000

* Maximum dynamic memory allocated =     1 MB

siesta:                 ==============================
                            Begin CG move =      0
                        ==============================

outcell: Unit cell vectors (Ang):
        7.286412    0.000000    0.000000
        0.000000    5.746952    0.000000
        0.000000    0.000000    5.621012

outcell: Cell vector modules (Ang)   :    7.286412    5.746952    5.621012
outcell: Cell angles (23,13,12) (deg):     90.0000     90.0000     90.0000
outcell: Cell volume (Ang**3)        :    235.3780

InitMesh: MESH =    32 x    30 x    24 =       23040
InitMesh: Mesh cutoff (required, used) =    50.000    50.384 Ry

* Maximum dynamic memory allocated =     3 MB

stepf: Fermi-Dirac step function

siesta: Program's energy decomposition (eV):
siesta: Eions   =       815.854478
siesta: Ena     =       175.154321
siesta: Ekin    =       341.667405
siesta: Enl     =       -52.736757
siesta: DEna    =        -0.000001
siesta: DUscf   =         0.000000
siesta: DUext   =         0.000000
siesta: Exc     =      -109.951257
siesta: eta*DQ  =         0.000000
siesta: Emadel  =         0.000000
siesta: Ekinion =         0.000000
siesta: Eharris =      -466.430388
siesta: Etot    =      -461.720767
siesta: FreeEng =      -461.720767

siesta: iscf   Eharris(eV)      E_KS(eV)   FreeEng(eV)   dDmax  Ef(eV)
siesta:    1     -466.4304     -461.7208     -461.7208  1.4383 -4.2475
timer: Routine,Calls,Time,% = IterSCF        1       8.969  70.74
elaps: Routine,Calls,Wall,% = IterSCF        1       9.720  68.61
siesta:    2     -466.8704     -465.2426     -465.2426  0.1755 -0.1474
siesta:    3     -465.9100     -465.3165     -465.3165  0.0585 -1.6845
siesta:    4     -465.8393     -465.6128     -465.6128  0.0148 -2.1480
siesta:    5     -465.8390     -465.6646     -465.6646  0.0112 -2.1558
siesta:    6     -465.8388     -465.7915     -465.7915  0.0047 -2.1571
siesta:    7     -465.8389     -465.8125     -465.8125  0.0030 -2.1514
siesta:    8     -465.8388     -465.8287     -465.8287  0.0012 -2.1515
siesta:    9     -465.8388     -465.8377     -465.8377  0.0003 -2.1538
siesta:   10     -465.8388     -465.8380     -465.8380  0.0002 -2.1537
siesta:   11     -465.8388     -465.8382     -465.8382  0.0001 -2.1531

siesta: E_KS(eV) =             -465.8383

siesta: E_KS - E_eggbox =      -465.8383

siesta: Atomic forces (eV/Ang):
     1   -0.000002   -0.506282    0.000000
     2    0.720479    0.280575    0.000000
     3   -0.720478    0.280574    0.000000
----------------------------------------
   Tot   -0.000002    0.054868    0.000000
----------------------------------------
   Max    0.720479
   Res    0.401656    sqrt( Sum f_i^2 / 3N )
----------------------------------------
   Max    0.720479    constrained

Stress-tensor-Voigt (kbar):      -20.23       -3.71       22.43        0.00       -0.00        0.00
Target enthalpy (eV/cell)     -465.8383

Broyden_optim: max_history for broyden:   6
Broyden_optim: cycle on maxit: T
Broyden_optim: initial inverse jacobian:   1.0000

Broyden_optim: No of elements:      9

* Maximum dynamic memory allocated =     3 MB

siesta:                 ==============================
                            Begin CG move =      1
                        ==============================

outcell: Unit cell vectors (Ang):
        7.286412    0.000000    0.000000
        0.000000    5.746952    0.000000
        0.000000    0.000000    5.621012

outcell: Cell vector modules (Ang)   :    7.286412    5.746952    5.621012
outcell: Cell angles (23,13,12) (deg):     90.0000     90.0000     90.0000
outcell: Cell volume (Ang**3)        :    235.3780

siesta: iscf   Eharris(eV)      E_KS(eV)   FreeEng(eV)   dDmax  Ef(eV)
siesta:    1     -465.8434     -465.6067     -465.6067  0.0415 -2.0953
siesta:    2     -465.8455     -465.8400     -465.8400  0.0144 -2.3061
siesta:    3     -465.8421     -465.7977     -465.7977  0.0037 -2.2021
siesta:    4     -465.8420     -465.8357     -465.8357  0.0010 -2.1808
siesta:    5     -465.8419     -465.8376     -465.8376  0.0007 -2.1813
siesta:    6     -465.8419     -465.8416     -465.8416  0.0000 -2.1824

siesta: E_KS(eV) =             -465.8417

siesta: Atomic forces (eV/Ang):
     1    0.000013    1.269651    0.000000
     2   -0.181278   -0.344183   -0.000000
     3    0.181273   -0.344178   -0.000000
----------------------------------------
   Tot    0.000008    0.581290    0.000000
----------------------------------------
   Max    1.269651
   Res    0.461237    sqrt( Sum f_i^2 / 3N )
----------------------------------------
   Max    1.269651    constrained

Stress-tensor-Voigt (kbar):      -11.29        1.55       22.72        0.00        0.00       -0.00
Target enthalpy (eV/cell)     -465.8417

* Maximum dynamic memory allocated =     3 MB

siesta:                 ==============================
                            Begin CG move =      2
                        ==============================

outcell: Unit cell vectors (Ang):
        7.286412    0.000000    0.000000
        0.000000    5.746952    0.000000
        0.000000    0.000000    5.621012

outcell: Cell vector modules (Ang)   :    7.286412    5.746952    5.621012
outcell: Cell angles (23,13,12) (deg):     90.0000     90.0000     90.0000
outcell: Cell volume (Ang**3)        :    235.3780

siesta: iscf   Eharris(eV)      E_KS(eV)   FreeEng(eV)   dDmax  Ef(eV)
siesta:    1     -465.8513     -465.9490     -465.9490  0.0227 -2.1709
siesta:    2     -465.8523     -465.8496     -465.8496  0.0099 -2.0124
siesta:    3     -465.8506     -465.8719     -465.8719  0.0035 -2.0915
siesta:    4     -465.8506     -465.8521     -465.8521  0.0006 -2.1044
siesta:    5     -465.8506     -465.8516     -465.8516  0.0004 -2.1046
siesta:    6     -465.8506     -465.8506     -465.8506  0.0000 -2.1047

siesta: E_KS(eV) =             -465.8506

siesta: Atomic forces (eV/Ang):
     1   -0.000024   -0.030468   -0.000004
     2    0.161506   -0.005808   -0.000000
     3   -0.161500   -0.005813   -0.000000
----------------------------------------
   Tot   -0.000018   -0.042089   -0.000005
----------------------------------------
   Max    0.161506
   Res    0.076856    sqrt( Sum f_i^2 / 3N )
----------------------------------------
   Max    0.161506    constrained

Stress-tensor-Voigt (kbar):      -14.90       -1.45       22.55       -0.00       -0.00       -0.00
Target enthalpy (eV/cell)     -465.8506

* Maximum dynamic memory allocated =     3 MB

siesta:                 ==============================
                            Begin CG move =      3
                        ==============================

outcell: Unit cell vectors (Ang):
        7.286412    0.000000    0.000000
        0.000000    5.746952    0.000000
        0.000000    0.000000    5.621012

outcell: Cell vector modules (Ang)   :    7.286412    5.746952    5.621012
outcell: Cell angles (23,13,12) (deg):     90.0000     90.0000     90.0000
outcell: Cell volume (Ang**3)        :    235.3780

siesta: iscf   Eharris(eV)      E_KS(eV)   FreeEng(eV)   dDmax  Ef(eV)
siesta:    1     -465.8514     -465.8244     -465.8244  0.0064 -2.0805
siesta:    2     -465.8514     -465.8514     -465.8514  0.0005 -2.0763
siesta:    3     -465.8514     -465.8503     -465.8503  0.0003 -2.0773
siesta:    4     -465.8514     -465.8512     -465.8512  0.0001 -2.0789

siesta: E_KS(eV) =             -465.8513

siesta: Atomic forces (eV/Ang):
     1    0.000112   -0.025277    0.000010
     2    0.028552   -0.045705    0.000001
     3   -0.028598   -0.045672    0.000001
----------------------------------------
   Tot    0.000066   -0.116655    0.000012
----------------------------------------
   Max    0.045705
   Res    0.026764    sqrt( Sum f_i^2 / 3N )
----------------------------------------
   Max    0.045705    constrained

Stress-tensor-Voigt (kbar):      -13.62       -1.14       22.56        0.00       -0.00        0.00
Target enthalpy (eV/cell)     -465.8513

* Maximum dynamic memory allocated =     3 MB

siesta:                 ==============================
                            Begin CG move =      4
                        ==============================

outcell: Unit cell vectors (Ang):
        7.286412    0.000000    0.000000
        0.000000    5.746952    0.000000
        0.000000    0.000000    5.621012

outcell: Cell vector modules (Ang)   :    7.286412    5.746952    5.621012
outcell: Cell angles (23,13,12) (deg):     90.0000     90.0000     90.0000
outcell: Cell volume (Ang**3)        :    235.3780

siesta: iscf   Eharris(eV)      E_KS(eV)   FreeEng(eV)   dDmax  Ef(eV)
siesta:    1     -465.8511     -465.8259     -465.8259  0.0045 -2.0694
siesta:    2     -465.8511     -465.8511     -465.8511  0.0014 -2.0913
siesta:    3     -465.8511     -465.8467     -465.8467  0.0004 -2.0809
siesta:    4     -465.8511     -465.8504     -465.8504  0.0001 -2.0787
siesta:    5     -465.8511     -465.8506     -465.8506  0.0001 -2.0788

siesta: E_KS(eV) =             -465.8511

siesta: Atomic forces (eV/Ang):
     1   -0.002151    0.370686    0.000145
     2   -0.071863   -0.108530   -0.000001
     3    0.072786   -0.109203   -0.000000
----------------------------------------
   Tot   -0.001228    0.152952    0.000143
----------------------------------------
   Max    0.370686
   Res    0.138074    sqrt( Sum f_i^2 / 3N )
----------------------------------------
   Max    0.370686    constrained

Stress-tensor-Voigt (kbar):      -12.63       -0.60       22.59       -0.00       -0.00       -0.00
Target enthalpy (eV/cell)     -465.8511

* Maximum dynamic memory allocated =     3 MB

siesta:                 ==============================
                            Begin CG move =      5
                        ==============================

outcell: Unit cell vectors (Ang):
        7.286412    0.000000    0.000000
        0.000000    5.746952    0.000000
        0.000000    0.000000    5.621012

outcell: Cell vector modules (Ang)   :    7.286412    5.746952    5.621012
outcell: Cell angles (23,13,12) (deg):     90.0000     90.0000     90.0000
outcell: Cell volume (Ang**3)        :    235.3780

siesta: iscf   Eharris(eV)      E_KS(eV)   FreeEng(eV)   dDmax  Ef(eV)
siesta:    1     -465.8520     -465.8762     -465.8762  0.0067 -2.0687
siesta:    2     -465.8521     -465.8518     -465.8518  0.0034 -2.0140
siesta:    3     -465.8519     -465.8572     -465.8572  0.0013 -2.0412
siesta:    4     -465.8519     -465.8522     -465.8522  0.0001 -2.0457
siesta:    5     -465.8519     -465.8521     -465.8521  0.0001 -2.0459

siesta: E_KS(eV) =             -465.8518

siesta: Atomic forces (eV/Ang):
     1    0.009263    0.013065    0.001017
     2   -0.005408   -0.008767   -0.000002
     3    0.001415   -0.005869   -0.000004
----------------------------------------
   Tot    0.005270   -0.001571    0.001011
----------------------------------------
   Max    0.013065
   Res    0.006667    sqrt( Sum f_i^2 / 3N )
----------------------------------------
   Max    0.013065    constrained

Stress-tensor-Voigt (kbar):      -13.40       -1.42       22.54        0.02       -0.00        0.00
Target enthalpy (eV/cell)     -465.8518

* Maximum dynamic memory allocated =     3 MB

outcoor: Relaxed atomic coordinates (Ang):                  
   -0.00004514    0.00068376    0.00000535   1  O          1
    0.77770957    0.58054711    0.00000013   2  H          2
   -0.77769005    0.58053270    0.00000012   2  H          3

siesta: Program's energy decomposition (eV):
siesta: Eions   =       815.854478
siesta: Ena     =       175.062977
siesta: Ekin    =       349.636626
siesta: Enl     =       -61.488948
siesta: DEna    =        -1.322884
siesta: DUscf   =         0.729848
siesta: DUext   =         0.000000
siesta: Exc     =      -112.614991
siesta: eta*DQ  =         0.000000
siesta: Emadel  =         0.000000
siesta: Ekinion =         0.000000
siesta: Eharris =      -465.851898
siesta: Etot    =      -465.851850
siesta: FreeEng =      -465.851850

siesta: Final energy (eV):
siesta:       Kinetic =     349.636626
siesta:       Hartree =     380.756891
siesta:    Ext. field =       0.000000
siesta:   Exch.-corr. =    -112.614991
siesta:  Ion-electron =   -1067.503787
siesta:       Ion-ion =     -16.126588
siesta:       Ekinion =       0.000000
siesta:         Total =    -465.851850

siesta: Stress tensor (static) (eV/Ang**3):
siesta:    -0.008365    0.000010    0.000000
siesta:     0.000010   -0.000887   -0.000000
siesta:     0.000000   -0.000000    0.014067

siesta: Cell volume =        235.378012 Ang**3

siesta: Pressure (static):
siesta:                Solid            Molecule  Units
siesta:          -0.00001748         -0.00001728  Ry/Bohr**3
siesta:          -0.00160509         -0.00158641  eV/Ang**3
siesta:          -2.57165872         -2.54174000  kBar

siesta: Electric dipole (a.u.)  =    0.000058    0.550709   -0.000010
siesta: Electric dipole (Debye) =    0.000149    1.399763   -0.000025

* Maximum dynamic memory allocated : Node    0 =     3 MB

* Maximum memory occured during MATEL                         

timer: CPU execution times:
timer:  Routine       Calls   Time/call    Tot.time        %
timer:  siesta            1      22.422      22.422   100.00
timer:  Setup             1       1.375       1.375     6.13
timer:  bands             1       0.001       0.001     0.00
timer:  writewave         1       0.002       0.002     0.01
timer:  KSV_init          1       0.001       0.001     0.00
timer:  IterMD            6       3.505      21.027    93.78
timer:  hsparse           7       0.021       0.147     0.65
timer:  overfsm          12       0.195       2.337    10.42
timer:  IterSCF          43       0.430      18.502    82.52
timer:  kinefsm          12       0.182       2.185     9.74
timer:  nlefsm           12       0.545       6.536    29.15
timer:  DHSCF            43       0.221       9.494    42.34
timer:  DHSCF1            1       0.082       0.082     0.36
timer:  DHSCF2            6       0.232       1.393     6.21
timer:  REORD           356       0.000       0.115     0.51
timer:  POISON           49       0.015       0.722     3.22
timer:  DHSCF3           43       0.128       5.513    24.59
timer:  rhoofd           43       0.023       1.001     4.47
timer:  cellXC           43       0.064       2.772    12.36
timer:  vmat             43       0.013       0.565     2.52
timer:  diagon           37       0.003       0.100     0.45
timer:  rdiag            37       0.002       0.088     0.39
timer:  rdiag1           37       0.001       0.019     0.09
timer:  rdiag2           37       0.000       0.010     0.04
timer:  rdiag3           37       0.001       0.046     0.21
timer:  rdiag4           37       0.000       0.003     0.01
timer:  DHSCF4            6       0.413       2.477    11.05
timer:  dfscf             6       0.268       1.608     7.17
timer:  optical           1       0.001       0.001     0.00
  

elaps: ELAPSED times:
elaps:  Routine       Calls   Time/call    Tot.time        %
elaps:  siesta            1      24.882      24.882   100.00
elaps:  Setup             1       1.924       1.924     7.73
elaps:  bands             1       0.001       0.001     0.00
elaps:  writewave         1       0.002       0.002     0.01
elaps:  KSV_init          1       0.001       0.001     0.00
elaps:  IterMD            6       3.822      22.931    92.16
elaps:  hsparse           7       0.023       0.159     0.64
elaps:  overfsm          12       0.210       2.523    10.14
elaps:  IterSCF          43       0.469      20.188    81.13
elaps:  kinefsm          12       0.198       2.371     9.53
elaps:  nlefsm           12       0.591       7.086    28.48
elaps:  DHSCF            43       0.241      10.371    41.68
elaps:  DHSCF1            1       0.085       0.085     0.34
elaps:  DHSCF2            6       0.253       1.519     6.10
elaps:  REORD           356       0.000       0.123     0.49
elaps:  POISON           49       0.016       0.785     3.15
elaps:  DHSCF3           43       0.141       6.042    24.28
elaps:  rhoofd           43       0.026       1.111     4.46
elaps:  cellXC           43       0.070       3.027    12.16
elaps:  vmat             43       0.014       0.616     2.48
elaps:  diagon           37       0.003       0.107     0.43
elaps:  rdiag            37       0.003       0.093     0.37
elaps:  rdiag1           37       0.001       0.019     0.08
elaps:  rdiag2           37       0.000       0.010     0.04
elaps:  rdiag3           37       0.001       0.052     0.21
elaps:  rdiag4           37       0.000       0.003     0.01
elaps:  DHSCF4            6       0.448       2.690    10.81
elaps:  dfscf             6       0.291       1.746     7.02
elaps:  optical           1       0.001       0.001     0.00
  
>> End of run:   5-DEC-2006  13:26:10
