Siesta Version  : siesta-4.0--578
Architecture    : x86_64-linux-n-62-25-35
Compiler version: GNU Fortran (GCC) 7.3.0
Compiler flags  : mpif90 -m64 -fPIC -O3 -march=native -ftree-vectorize -fexpensive-optimizationns -funroll-loops -fprefetch-loop-arrays -fno-second-underscore
PP flags        : -I/zdata/groups/common/nicpa/2018-feb/generic/build-tools/1.0/include -I/zdatta/groups/common/nicpa/2018-feb/generic/gcc/7.3.0/include -I/zdata/groups/common/nicpa/2018-feb/generic/gcc/7.3.0/include -I/zdata/groups/common/nicpa/2018-feb/XeonE5-2660v3/zlib/1.2.11/gnu-7.3.0/include -I/zdata/groups/common/nicpa/2018-feb/generic/numactl/2.0.11/include -I/zdata/groups/common/nicpa/2018-feb/XeonE5-2660v3/libxml2/2.9.7/gnu-7.3.0/include -I/zdata/groups/common/nicpa/2018-feb/XeonE5-2660v3/hwloc/1.11.9/gnu-7.3.0/include -I/zdata/groups/common/nicpa/2018-feb/XeonE5-2660v3/openmpi/3.0.0/gnu-7.3.0/include -I/zdata/groups/common/nicpa/2018-feb/XeonE5-2660v3/szip/2.1.1/gnu-7.3.0/include -I/zdata/groups/common/nicpa/2018-feb/XeonE5-2660v3/hdf5-serial/1.8.18/gnu-7.3.0/include -I/zdata/groups/common/nicpa/2018-feb/XeonE5-2660v3/netcdf-serial/4.6.0/gnu-7.3.0/include -I/zdata/groups/common/nicpa/2018-feb/XeonE5-2660v3/scalapack/204/gnu-7.3.0/include -I/zdata/groups/common/nicpa/2018-feb/XeonE5-2660v3/openblas/0.2.20/gnu-7.3.0/include -I/zdata/groups/common/nicpa/2018-feb/XeonE5-2660v3/elpa/2017.05.003/gnu-7.3.0/include -DSIESTA__ELPA -DMPI -D1 -DFC_HAVE_ABORT -DCDF -DSIESTA__MRRR 
PARALLEL version
NetCDF support

* Running on    8 nodes in parallel
>> Start of run:  10-JUN-2018  21:46:42

                           ***********************       
                           *  WELCOME TO SIESTA  *       
                           ***********************       

reinit: Reading from standard input
************************** Dump of input data file ****************************
NumberOfAtoms        3
NumberOfSpecies      2
%block ChemicalSpeciesLabel
    1   8 O_am05
    2   1 H_am05
%endblock ChemicalSpeciesLabel
LatticeConstant 1.0 Ang
%block LatticeParameters
    8.0000    8.0000    8.0000   90.0000   90.0000   90.0000
%endblock LatticeParameters
AtomicCoordinatesFormat Fractional
%block AtomicCoordinatesAndAtomicSpecies
    0.000000000    0.000000000    0.000000000     1
    0.937500000    0.107500000    0.000000000     2
    0.937500000    0.892500000    0.000000000     2
%endblock AtomicCoordinatesAndAtomicSpecies
MD.TypeOfRun CG
MD.NumCGSteps 0
MD.VariableCell false
MD.MaxStressTol 200 bar
SolutionMethod diagon
DM.NumberPulay 3
MeshCutoff 200 Ry
PAO.SplitNorm    0.15
PAO.BasisType    split
PAO.SplitNormH   0.50
PAO.SoftDefault true
PAO.SoftPotential 100.0 Ry
PAO.SoftInnerRadius 0.95
%block PAO.Basis
O_am05     3
 n=2    0    2
   7.0 0.0
   1.0 1.0
 n=2    1    2
   7.0 0.0
   1.0 1.0
 n=3    2    1 E 120.0 0.00
   7.0
   1.0
H_am05  2
 n=1 0 2
   7.0 0.0
   1.0 1.0
 n=2 1 1  E 70.0 0.0
   3.5
   1.0
%endblock PAO.Basis
xc.functional         GGA
xc.authors            AM05
LongOutput true
UseSaveData false
************************** End of input data file *****************************

reinit: -----------------------------------------------------------------------
reinit: System Name: 
reinit: -----------------------------------------------------------------------
reinit: System Label: siesta                                                      
reinit: -----------------------------------------------------------------------

initatom: Reading input for the pseudopotentials and atomic orbitals ----------
 Species number:            1  Label: O_am05 Atomic number:           8
 Species number:            2  Label: H_am05 Atomic number:           1
Ground state valence configuration:   2s02  2p04
Reading pseudopotential information in formatted form from O_am05.psf

Valence configuration for pseudopotential generation:
2s( 2.00) rc: 1.14
2p( 4.00) rc: 1.14
3d( 0.00) rc: 1.14
4f( 0.00) rc: 1.14
Ground state valence configuration:   1s01
Reading pseudopotential information in formatted form from H_am05.psf

Valence configuration for pseudopotential generation:
1s( 1.00) rc: 1.00
2p( 0.00) rc: 1.00
3d( 0.00) rc: 1.00
For O_am05, standard SIESTA heuristics set lmxkb to 3
 (one more than the basis l, including polarization orbitals).
Use PS.lmax or PS.KBprojectors blocks to override.
For H_am05, standard SIESTA heuristics set lmxkb to 2
 (one more than the basis l, including polarization orbitals).
Use PS.lmax or PS.KBprojectors blocks to override.

<basis_specs>
===============================================================================
O_am05               Z=   8    Mass=  16.000        Charge= 0.17977+309
Lmxo=2 Lmxkb= 3    BasisType=split      Semic=F
L=0  Nsemic=0  Cnfigmx=2
          n=1  nzeta=2  polorb=0
            splnorm:   0.15000    
               vcte:    100.00    
               rinn:  -0.95000    
               qcoe:    0.0000    
               qyuk:    0.0000    
               qwid:   0.10000E-01
                rcs:    7.0000      0.0000    
            lambdas:    1.0000      1.0000    
L=1  Nsemic=0  Cnfigmx=2
          n=1  nzeta=2  polorb=0
            splnorm:   0.15000    
               vcte:    100.00    
               rinn:  -0.95000    
               qcoe:    0.0000    
               qyuk:    0.0000    
               qwid:   0.10000E-01
                rcs:    7.0000      0.0000    
            lambdas:    1.0000      1.0000    
L=2  Nsemic=0  Cnfigmx=3
          n=1  nzeta=1  polorb=0
            splnorm:   0.15000    
               vcte:    120.00    
               rinn:    0.0000    
               qcoe:    0.0000    
               qyuk:    0.0000    
               qwid:   0.10000E-01
                rcs:    7.0000    
            lambdas:    1.0000    
-------------------------------------------------------------------------------
L=0  Nkbl=1  erefs: 0.17977+309
L=1  Nkbl=1  erefs: 0.17977+309
L=2  Nkbl=1  erefs: 0.17977+309
L=3  Nkbl=1  erefs: 0.17977+309
===============================================================================
</basis_specs>

atom: Called for O_am05                (Z =   8)

read_vps: Pseudopotential generation method:
read_vps: ATM3      Troullier-Martins                       
Total valence charge:    6.00000

xc_check: Exchange-correlation functional:
xc_check: GGA AM05
V l=0 = -2*Zval/r beyond r=  1.1278
V l=1 = -2*Zval/r beyond r=  1.1420
V l=2 = -2*Zval/r beyond r=  1.1420
V l=3 = -2*Zval/r beyond r=  1.1278
All V_l potentials equal beyond r=  1.1278
This should be close to max(r_c) in ps generation
All pots = -2*Zval/r beyond r=  1.1420

VLOCAL1: 99.0% of the norm of Vloc inside     34.126 Ry
VLOCAL1: 99.9% of the norm of Vloc inside     77.774 Ry
atom: Maximum radius for 4*pi*r*r*local-pseudopot. charge    1.37759
atom: Maximum radius for r*vlocal+2*Zval:    1.18566
GHOST: No ghost state for L =  0
GHOST: No ghost state for L =  1
GHOST: No ghost state for L =  2
GHOST: No ghost state for L =  3

KBgen: Kleinman-Bylander projectors: 
   l= 0   rc=  1.343567   el= -1.740723   Ekb=  9.161590   kbcos=  0.326681
   l= 1   rc=  1.326873   el= -0.658831   Ekb= -7.991194   kbcos= -0.393737
   l= 2   rc=  1.541657   el=  0.001915   Ekb= -2.001524   kbcos= -0.003375
   l= 3   rc=  1.661751   el=  0.003037   Ekb= -0.782011   kbcos= -0.000340

KBgen: Total number of  Kleinman-Bylander projectors:   16
atom: -------------------------------------------------------------------------

atom: SANKEY-TYPE ORBITALS:
atom: Selected multiple-zeta basis: split     

SPLIT: Orbitals with angular momentum L= 0

SPLIT: Basis orbitals for state 2s

   izeta = 1
                 lambda =    1.000000
                     rc =    6.997229
                 energy =   -1.740791
                kinetic =    1.533053
    potential(screened) =   -3.273844
       potential(ionic) =  -11.156652

   izeta = 2
                 rmatch =    2.573941
              splitnorm =    0.150000
                 energy =   -1.508798
                kinetic =    2.370787
    potential(screened) =   -3.879585
       potential(ionic) =  -12.391300

SPLIT: Orbitals with angular momentum L= 1

SPLIT: Basis orbitals for state 2p

   izeta = 1
                 lambda =    1.000000
                     rc =    6.997229
                 energy =   -0.658749
                kinetic =    4.714288
    potential(screened) =   -5.373037
       potential(ionic) =  -12.990290

   izeta = 2
                 rmatch =    2.739966
              splitnorm =    0.150000
                 energy =   -0.436782
                kinetic =    6.969383
    potential(screened) =   -7.406165
       potential(ionic) =  -15.971366

SPLIT: Orbitals with angular momentum L= 2

SPLIT: Basis orbitals for state 3d

   izeta = 1
                 lambda =    1.000000
                     rc =    6.997229
                 energy =    1.718753
                kinetic =    2.956576
    potential(screened) =   -1.237823
       potential(ionic) =   -6.788477
atom: Total number of Sankey-type orbitals: 13

atm_pop: Valence configuration (for local Pseudopot. screening):
 2s( 2.00)                                                            
 2p( 4.00)                                                            
 3d( 0.00)                                                            
Vna: chval, zval:    6.00000   6.00000

Vna:  Cut-off radius for the neutral-atom potential:   6.997229

atom: _________________________________________________________________________

<basis_specs>
===============================================================================
H_am05               Z=   1    Mass=  1.0100        Charge= 0.17977+309
Lmxo=1 Lmxkb= 2    BasisType=split      Semic=F
L=0  Nsemic=0  Cnfigmx=1
          n=1  nzeta=2  polorb=0
            splnorm:   0.50000    
               vcte:    100.00    
               rinn:  -0.95000    
               qcoe:    0.0000    
               qyuk:    0.0000    
               qwid:   0.10000E-01
                rcs:    7.0000      0.0000    
            lambdas:    1.0000      1.0000    
L=1  Nsemic=0  Cnfigmx=2
          n=1  nzeta=1  polorb=0
            splnorm:   0.50000    
               vcte:    70.000    
               rinn:    0.0000    
               qcoe:    0.0000    
               qyuk:    0.0000    
               qwid:   0.10000E-01
                rcs:    3.5000    
            lambdas:    1.0000    
-------------------------------------------------------------------------------
L=0  Nkbl=1  erefs: 0.17977+309
L=1  Nkbl=1  erefs: 0.17977+309
L=2  Nkbl=1  erefs: 0.17977+309
===============================================================================
</basis_specs>

atom: Called for H_am05                (Z =   1)

read_vps: Pseudopotential generation method:
read_vps: ATM3      Troullier-Martins                       
Total valence charge:    1.00000

xc_check: Exchange-correlation functional:
xc_check: GGA AM05
V l=0 = -2*Zval/r beyond r=  0.9851
V l=1 = -2*Zval/r beyond r=  0.9728
V l=2 = -2*Zval/r beyond r=  0.9728
All V_l potentials equal beyond r=  0.9851
This should be close to max(r_c) in ps generation
All pots = -2*Zval/r beyond r=  0.9851

VLOCAL1: 99.0% of the norm of Vloc inside     44.731 Ry
VLOCAL1: 99.9% of the norm of Vloc inside    101.942 Ry
atom: Maximum radius for 4*pi*r*r*local-pseudopot. charge    1.15936
atom: Maximum radius for r*vlocal+2*Zval:    0.97283
GHOST: No ghost state for L =  0
GHOST: No ghost state for L =  1
GHOST: No ghost state for L =  2

KBgen: Kleinman-Bylander projectors: 
   l= 0   rc=  1.102692   el= -0.465202   Ekb= -2.346727   kbcos= -0.270144
   l= 1   rc=  1.159355   el=  0.000945   Ekb= -0.557964   kbcos= -0.013523
   l= 2   rc=  1.188767   el=  0.001894   Ekb= -0.186023   kbcos= -0.001288

KBgen: Total number of  Kleinman-Bylander projectors:    9
atom: -------------------------------------------------------------------------

atom: SANKEY-TYPE ORBITALS:
atom: Selected multiple-zeta basis: split     

SPLIT: Orbitals with angular momentum L= 0

SPLIT: Basis orbitals for state 1s

   izeta = 1
                 lambda =    1.000000
                     rc =    7.026209
                 energy =   -0.464053
                kinetic =    0.864719
    potential(screened) =   -1.328772
       potential(ionic) =   -1.858472

   izeta = 2
                 rmatch =    2.551111
              splitnorm =    0.500000
                 energy =    0.112396
                kinetic =    2.678464
    potential(screened) =   -2.566068
       potential(ionic) =   -3.155216

SPLIT: Orbitals with angular momentum L= 1

SPLIT: Basis orbitals for state 2p

   izeta = 1
                 lambda =    1.000000
                     rc =    3.487864
                 energy =    2.773980
                kinetic =    4.140110
    potential(screened) =   -1.366130
       potential(ionic) =   -1.939970
atom: Total number of Sankey-type orbitals:  5

atm_pop: Valence configuration (for local Pseudopot. screening):
 1s( 1.00)                                                            
 2p( 0.00)                                                            
Vna: chval, zval:    1.00000   1.00000

Vna:  Cut-off radius for the neutral-atom potential:   7.026209

atom: _________________________________________________________________________

prinput: Basis input ----------------------------------------------------------

PAO.BasisType split     

%block ChemicalSpeciesLabel
    1    8 O_am05                  # Species index, atomic number, species label
    2    1 H_am05                  # Species index, atomic number, species label
%endblock ChemicalSpeciesLabel

%block PAO.Basis                 # Define Basis set
O_am05                3                    # Species label, number of l-shells
 n=2   0   2                         # n, l, Nzeta 
   6.997      2.574   
   1.000      1.000   
 n=2   1   2                         # n, l, Nzeta 
   6.997      2.740   
   1.000      1.000   
 n=3   2   1                         # n, l, Nzeta 
   6.997   
   1.000   
H_am05                2                    # Species label, number of l-shells
 n=1   0   2                         # n, l, Nzeta 
   7.026      2.551   
   1.000      1.000   
 n=2   1   1                         # n, l, Nzeta 
   3.488   
   1.000   
%endblock PAO.Basis

prinput: ----------------------------------------------------------------------

Dumping basis to NetCDF file O_am05.ion.nc
Dumping basis to NetCDF file H_am05.ion.nc
coor:   Atomic-coordinates input format  =     Fractional

siesta: Atomic coordinates (Bohr) and species
siesta:      0.00000   0.00000   0.00000  1        1
siesta:     14.17295   1.62517   0.00000  2        2
siesta:     14.17295  13.49265   0.00000  2        3

siesta: System type = slab      

initatomlists: Number of atoms, orbitals, and projectors:      3    23    34

siesta: ******************** Simulation parameters ****************************
siesta:
siesta: The following are some of the parameters of the simulation.
siesta: A complete list of the parameters used, including default values,
siesta: can be found in file out.fdf
siesta:
redata: Non-Collinear-spin run           =     F
redata: SpinPolarized (Up/Down) run      =     F
redata: Number of spin components        =     1
redata: Long output                      =     T
redata: Number of Atomic Species         =        2
redata: Charge density info will appear in .RHO file
redata: Write Mulliken Pop.              =     Atomic and Orbital charges
redata: Matel table size (NRTAB)         =     1024
redata: Mesh Cutoff                      =   200.0000 Ry
redata: Net charge of the system         =     0.0000 |e|
redata: Min. number of SCF Iter          =        0
redata: Max. number of SCF Iter          =       50
redata: Mix DM or H after convergence    =     F
redata: Recompute H after scf cycle      =     F
redata: Performing Pulay mixing using    =     3 iterations
redata: Mix DM in first SCF step ?       =     F
redata: Write Pulay info on disk?        =     F
redata: Discard 1st Pulay DM after  kick =     F
redata: New DM Mixing Weight             =     0.2500
redata: New DM Occupancy tolerance       = 0.000000000001
redata: No kicks to SCF
redata: DM Mixing Weight for Kicks       =     0.5000
redata: DM Tolerance for SCF             =     0.000100
redata: Require (free) Energy convergence in SCF =     F
redata: DM (free)Energy tolerance for SCF =     0.000010 eV
redata: Require Harris convergence for SCF =     F
redata: DM Harris energy tolerance for SCF =     0.000010 eV
redata: Using Saved Data (generic)   =     F
redata: Use continuation files for DM    =     F
redata: Neglect nonoverlap interactions  =     F
redata: Method of Calculation            =     Diagonalization
redata: Divide and Conquer               =     T
redata: Electronic Temperature           =     0.0019  Ry
redata: Fix the spin of the system       =     F
redata: Dynamics option                  =     Single-point calculation
redata: ***********************************************************************
Total number of electrons:     8.000000
Total ionic charge:     8.000000

* ProcessorY, Blocksize:    2   3


* Orbital distribution balance (max,min):     3     2

 Kpoints in:            1 . Kpoints trimmed:            1

siesta: k-point coordinates (Bohr**-1) and weights:
siesta:    1    0.000000    0.000000    0.000000       1.000000

siesta: k-grid: Number of k-points =     1
siesta: k-grid: Cutoff (effective) =     4.000 Ang
siesta: k-grid: Supercell and displacements
siesta: k-grid:    1   0   0      0.000
siesta: k-grid:    0   1   0      0.000
siesta: k-grid:    0   0   1      0.000

                     ====================================
                        Single-point calculation
                     ====================================

outcoor: Atomic coordinates (fractional):                   
    0.00000000    0.00000000    0.00000000   1       1  O_am05
    0.93750000    0.10750000    0.00000000   2       2  H_am05
    0.93750000    0.89250000    0.00000000   2       3  H_am05

outcell: Unit cell vectors (Ang):
        8.000000    0.000000    0.000000
        0.000000    8.000000    0.000000
        0.000000    0.000000    8.000000

outcell: Cell vector modules (Ang)   :    8.000000    8.000000    8.000000
outcell: Cell angles (23,13,12) (deg):     90.0000     90.0000     90.0000
outcell: Cell volume (Ang**3)        :    512.0000
Gamma-point calculation with multiply-connected orbital pairs
Folding of H and S implicitly performed
New_DM. Step:     1
Initializing Density Matrix...
New grid distribution:   1
           1       1:   36    1:   18    1:    9
           2       1:   36    1:   18   10:   18
           3       1:   36    1:   18   19:   27
           4       1:   36    1:   18   28:   36
           5       1:   36   19:   36    1:    9
           6       1:   36   19:   36   10:   18
           7       1:   36   19:   36   19:   27
           8       1:   36   19:   36   28:   36

InitMesh: MESH =    72 x    72 x    72 =      373248
InitMesh: (bp) =    36 x    36 x    36 =       46656
InitMesh: Mesh cutoff (required, used) =   200.000   223.865 Ry
ExtMesh (bp) on 0 =   104 x    86 x    77 =      688688
New grid distribution:   2
           1       1:   23   16:   36    1:   15
           2       1:   23    1:   15    1:   15
           3       1:   23    1:   15   16:   36
           4      24:   36    1:   15    1:   15
           5      24:   36    1:   15   16:   36
           6      24:   36   16:   36    1:   15
           7       1:   23   16:   36   16:   36
           8      24:   36   16:   36   16:   36
New grid distribution:   3
           1       1:   22    1:   18    1:   16
           2      23:   36    1:   18    1:   16
           3       1:   22    1:   18   17:   36
           4      23:   36    1:   18   17:   36
           5       1:   22   19:   36    1:   16
           6      23:   36   19:   36    1:   16
           7       1:   22   19:   36   17:   36
           8      23:   36   19:   36   17:   36
Setting up quadratic distribution...
ExtMesh (bp) on 0 =    91 x    89 x    83 =      672217
PhiOnMesh: Number of (b)points on node 0 =                 7245
PhiOnMesh: nlist on node 0 =                33274

stepf: Fermi-Dirac step function

siesta: Program's energy decomposition (eV):
siesta: Ebs     =      -140.913691
siesta: Eions   =       825.824713
siesta: Ena     =       193.278637
siesta: Ekin    =       321.820415
siesta: Enl     =       -45.420633
siesta: DEna    =         0.000001
siesta: DUscf   =         0.000000
siesta: DUext   =         0.000000
siesta: Exc     =      -105.873189
siesta: eta*DQ  =         0.000000
siesta: Emadel  =         0.000000
siesta: Emeta   =         0.000000
siesta: Emolmec =         0.000000
siesta: Ekinion =         0.000000
siesta: Eharris =      -468.219375
siesta: Etot    =      -462.019482
siesta: FreeEng =      -462.019482

   scf: iscf   Eharris(eV)      E_KS(eV)   FreeEng(eV)    dDmax  Ef(eV)
   scf:    1     -468.2194     -462.0195     -462.0195  0.97113 -5.6200
timer: Routine,Calls,Time,% =    IterSCF     1       0.131   8.88
   scf:    2     -471.1783     -463.3773     -463.3773  2.50726 -0.0334
   scf:    3     -466.4057     -463.4316     -463.4316  0.77787 -3.1522
   scf:    4     -466.2281     -465.5453     -465.5453  0.70355 -1.4088
   scf:    5     -466.1645     -467.4262     -467.4262  0.15133 -1.3994
   scf:    6     -466.1652     -466.9990     -466.9990  0.07957 -1.6757
   scf:    7     -466.1638     -466.6695     -466.6695  0.05995 -1.6838
   scf:    8     -466.1619     -466.0359     -466.0359  0.01000 -1.5949
   scf:    9     -466.1616     -466.1379     -466.1379  0.00413 -1.5843
   scf:   10     -466.1615     -466.1713     -466.1713  0.00379 -1.5911
   scf:   11     -466.1615     -466.1721     -466.1721  0.00253 -1.5917
   scf:   12     -466.1615     -466.1590     -466.1590  0.00058 -1.5902
   scf:   13     -466.1615     -466.1587     -466.1587  0.00047 -1.5899
   scf:   14     -466.1615     -466.1620     -466.1620  0.00024 -1.5890
   scf:   15     -466.1615     -466.1614     -466.1614  0.00023 -1.5889
   scf:   16     -466.1615     -466.1606     -466.1606  0.00009 -1.5885

SCF Convergence by dMax criterion
max |DM_out - DM_in|:     0.00008578
SCF cycle converged after   16 iterations

Using DM_out to compute the final energy and forces

siesta: E_KS(eV) =             -466.1615

siesta: E_KS - E_eggbox =      -466.1615

siesta: Atomic forces (eV/Ang):
     1    0.825554    0.000000    0.000000
     2   -0.407652   -1.267533   -0.000000
     3   -0.407652    1.267533   -0.000000
----------------------------------------
   Tot    0.010250   -0.000000   -0.000000
----------------------------------------
   Max    1.267533
   Res    0.685337    sqrt( Sum f_i^2 / 3N )
----------------------------------------
   Max    1.267533    constrained

Stress-tensor-Voigt (kbar):       -1.17        6.78        0.00       -0.00       -0.00       -0.00
(Free)E + p*V (eV/cell)     -466.7591
Target enthalpy (eV/cell)     -466.1615

mulliken: Atomic and Orbital Populations:

Species: O_am05              
Atom  Qatom  Qorb
               2s      2s      2py     2pz     2px     2py     2pz     2px     
               3dxy    3dyz    3dz2    3dxz    3dx2-y2 
   1  6.707   1.792  -0.024   1.047   2.255   1.837   0.214  -0.288  -0.141
              0.010   0.000   0.004   0.003  -0.001

Species: H_am05              
Atom  Qatom  Qorb
               1s      1s      2py     2pz     2px     
   2  0.647   0.263   0.335   0.020   0.015   0.014
   3  0.647   0.263   0.335   0.020   0.015   0.014

mulliken: Qtot =        8.000

siesta: Eigenvalues (eV):
  ik is    eps
   1  1 -24.36 -13.29  -8.17  -6.75   0.42   2.95  13.91  15.40  15.95  15.95
         21.56  21.75  23.06  23.71  25.70  40.70  42.66  50.03  51.26  53.89
         62.17  65.05  67.01
siesta: Fermi energy =      -1.588511 eV

siesta: Program's energy decomposition (eV):
siesta: Ebs     =      -105.136667
siesta: Eions   =       825.824713
siesta: Ena     =       193.278637
siesta: Ekin    =       345.659416
siesta: Enl     =       -57.214387
siesta: DEna    =       -11.628907
siesta: DUscf   =         1.558462
siesta: DUext   =         0.000000
siesta: Exc     =      -111.990035
siesta: eta*DQ  =         0.000000
siesta: Emadel  =         0.000000
siesta: Emeta   =         0.000000
siesta: Emolmec =         0.000000
siesta: Ekinion =         0.000000
siesta: Eharris =      -466.161528
siesta: Etot    =      -466.161528
siesta: FreeEng =      -466.161528

siesta: Final energy (eV):
siesta:  Band Struct. =    -105.136667
siesta:       Kinetic =     345.659416
siesta:       Hartree =     417.097051
siesta:    Ext. field =       0.000000
siesta:   Exch.-corr. =    -111.990035
siesta:  Ion-electron =   -1138.943288
siesta:       Ion-ion =      22.015329
siesta:       Ekinion =       0.000000
siesta:         Total =    -466.161528

siesta: Atomic forces (eV/Ang):
siesta:      1    0.825554    0.000000    0.000000
siesta:      2   -0.407652   -1.267533   -0.000000
siesta:      3   -0.407652    1.267533   -0.000000
siesta: ----------------------------------------
siesta:    Tot    0.010250   -0.000000   -0.000000

siesta: Stress tensor (static) (eV/Ang**3):
siesta:    -0.000733   -0.000000    0.000000
siesta:    -0.000000    0.004233    0.000000
siesta:    -0.000000   -0.000000    0.000001

siesta: Cell volume =        512.000000 Ang**3

siesta: Pressure (static):
siesta:                Solid            Molecule  Units
siesta:          -0.00001271         -0.00002543  Ry/Bohr**3
siesta:          -0.00116707         -0.00233508  eV/Ang**3
siesta:          -1.86986549         -3.74125619  kBar
(Free)E+ p_basis*V_orbitals  =        -464.707015
(Free)Eharris+ p_basis*V_orbitals  =        -464.707015

siesta: Electric dipole (a.u.)  =   -0.000000   -0.000000    0.000000
siesta: Electric dipole (Debye) =   -0.000000   -0.000000    0.000000
>> End of run:  10-JUN-2018  21:46:45
Job completed
