Siesta Version: siesta-2.0.1
Architecture  : powerpc-apple-darwin8.8.0--unknown
Compiler flags: g95 -g -O2
SERIAL version
NetCDF-capable

* Running in serial mode
>> Start of run:   5-DEC-2006  11:42:47

                           ***********************       
                           *  WELCOME TO SIESTA  *       
                           ***********************       

reinit: Reading from standard input
************************** Dump of input data file ****************************
SystemName          Water molecule, using order-N method
SystemLabel         h2o_orderN
NumberOfAtoms       3
NumberOfSpecies     2
MeshCutoff  50 Ry
%block ChemicalSpeciesLabel
 1  8  O      # Species index, atomic number, species label
 2  1  H
%endblock ChemicalSpeciesLabel
AtomicCoordinatesFormat  Ang
%block AtomicCoordinatesAndAtomicSpecies
 0.000  0.000  0.000  1
 0.757  0.586  0.000  2
-0.757  0.586  0.000  2
%endblock AtomicCoordinatesAndAtomicSpecies
SolutionMethod   ordern
************************** End of input data file *****************************

reinit: -----------------------------------------------------------------------
reinit: System Name: Water molecule, using order-N method                       
reinit: -----------------------------------------------------------------------
reinit: System Label: h2o_orderN                                                  
reinit: -----------------------------------------------------------------------

initatom: Reading input for the pseudopotentials and atomic orbitals ----------
 Species number:  1  Label: O Atomic number: 8
 Species number:  2  Label: H Atomic number: 1
Ground state valence configuration:   2s02  2p04
Reading pseudopotential information in formatted form from O.psf
Ground state valence configuration:   1s01
Reading pseudopotential information in formatted form from H.psf
For O, standard SIESTA heuristics set lmxkb to 3
 (one more than the basis l, including polarization orbitals).
Use PS.lmax or PS.KBprojectors blocks to override.
For H, standard SIESTA heuristics set lmxkb to 2
 (one more than the basis l, including polarization orbitals).
Use PS.lmax or PS.KBprojectors blocks to override.

<basis_specs>
===============================================================================
O                    Z=   8    Mass=  16.000        Charge=  .00000    
Lmxo=1 Lmxkb=3     BasisType=split      Semic=F
L=0  Nsemic=0  Cnfigmx=2
          n=1  nzeta=2  polorb=0
               vcte:    .00000    
               rinn:    .00000    
                rcs:    .00000      .00000    
            lambdas:    1.0000      1.0000    
L=1  Nsemic=0  Cnfigmx=2
          n=1  nzeta=2  polorb=1
               vcte:    .00000    
               rinn:    .00000    
                rcs:    .00000      .00000    
            lambdas:    1.0000      1.0000    
-------------------------------------------------------------------------------
L=0  Nkbl=1  erefs: 0.17977+309
L=1  Nkbl=1  erefs: 0.17977+309
L=2  Nkbl=1  erefs: 0.17977+309
L=3  Nkbl=1  erefs: 0.17977+309
===============================================================================
</basis_specs>

atom: Called for O   (Z =   8)

read_vps: Pseudopotential generation method:
read_vps: ATM3      Troullier-Martins                       

read_vps: Valence configuration (pseudopotential and basis set generation):
2s( 2.00) rc: 1.14
2p( 4.00) rc: 1.14
3d( 0.00) rc: 1.14
4f( 0.00) rc: 1.14
Total valence charge:    6.00000

xc_check: Exchange-correlation functional:
xc_check: Ceperley-Alder
V l=0 = -2*Zval/r beyond r=  1.1278
V l=1 = -2*Zval/r beyond r=  1.1278
V l=2 = -2*Zval/r beyond r=  1.1278
V l=3 = -2*Zval/r beyond r=  1.1138
All V_l potentials equal beyond r=  1.1278
This should be close to max(r_c) in ps generation
All pots = -2*Zval/r beyond r=  1.1278

VLOCAL1: 99.0% of the norm of Vloc inside     34.126 Ry
VLOCAL1: 99.9% of the norm of Vloc inside     77.774 Ry
atom: Maximum radius for 4*pi*r*r*local-pseudopot. charge    1.37759
atom: Maximum radius for r*vlocal+2*Zval:    1.18566
GHOST: No ghost state for L =  0
GHOST: No ghost state for L =  1
GHOST: No ghost state for L =  2
GHOST: No ghost state for L =  3

KBgen: Kleinman-Bylander projectors: 
   l= 0   rc=  1.294105   el= -1.742414   Ekb=  9.135903   kbcos=  0.326910
   l= 1   rc=  1.294105   el= -0.676589   Ekb= -8.124878   kbcos= -0.395047
   l= 2   rc=  1.448233   el=  0.002386   Ekb= -2.039267   kbcos= -0.003484
   l= 3   rc=  1.561052   el=  0.003508   Ekb= -0.799141   kbcos= -0.000344

KBgen: Total number of  Kleinman-Bylander projectors:   16
atom: -------------------------------------------------------------------------

atom: SANKEY-TYPE ORBITALS:
atom: Selected multiple-zeta basis: split     

SPLIT: Orbitals with angular momentum L= 0

SPLIT: Basis orbitals for state 2s

SPLIT: PAO cut-off radius determined from an
SPLIT: energy shift=  0.020000 Ry

   izeta = 1
                 lambda =    1.000000
                     rc =    3.305093
                 energy =   -1.723766
                kinetic =    1.614911
    potential(screened) =   -3.338677
       potential(ionic) =  -11.304675

   izeta = 2
                 rmatch =    2.510382
              splitnorm =    0.150000
                 energy =   -1.471081
                kinetic =    2.446738
    potential(screened) =   -3.917818
       potential(ionic) =  -12.476310

SPLIT: Orbitals with angular momentum L= 1

SPLIT: Basis orbitals for state 2p

SPLIT: PAO cut-off radius determined from an
SPLIT: energy shift=  0.020000 Ry

   izeta = 1
                 lambda =    1.000000
                     rc =    3.937239
                 energy =   -0.658841
                kinetic =    5.005986
    potential(screened) =   -5.664827
       potential(ionic) =  -13.452360

   izeta = 2
                 rmatch =    2.541963
              splitnorm =    0.150000
                 energy =   -0.367387
                kinetic =    7.530138
    potential(screened) =   -7.897525
       potential(ionic) =  -16.611418

POLgen: Perturbative polarization orbital with L=  2

POLgen: Polarization orbital for state 2p

   izeta = 1
                     rc =    3.937239
                 energy =    2.398520
                kinetic =    4.716729
    potential(screened) =   -2.318209
       potential(ionic) =   -8.603170
atom: Total number of Sankey-type orbitals: 13

atm_pop: Valence configuration(local Pseudopot. screening):
 2s( 2.00)                                                            
 2p( 4.00)                                                            
Vna: chval, zval:    6.00000   6.00000

Vna:  Cut-off radius for the neutral-atom potential:   3.937239

atom: _________________________________________________________________________

<basis_specs>
===============================================================================
H                    Z=   1    Mass=  1.0100        Charge=  .00000    
Lmxo=0 Lmxkb=2     BasisType=split      Semic=F
L=0  Nsemic=0  Cnfigmx=1
          n=1  nzeta=2  polorb=1
               vcte:    .00000    
               rinn:    .00000    
                rcs:    .00000      .00000    
            lambdas:    1.0000      1.0000    
-------------------------------------------------------------------------------
L=0  Nkbl=1  erefs: 0.17977+309
L=1  Nkbl=1  erefs: 0.17977+309
L=2  Nkbl=1  erefs: 0.17977+309
===============================================================================
</basis_specs>

atom: Called for H   (Z =   1)

read_vps: Pseudopotential generation method:
read_vps: ATM3      Troullier-Martins                       

read_vps: Valence configuration (pseudopotential and basis set generation):
1s( 1.00) rc: 1.25
2p( 0.00) rc: 1.25
3d( 0.00) rc: 1.25
Total valence charge:    1.00000

xc_check: Exchange-correlation functional:
xc_check: Ceperley-Alder
V l=0 = -2*Zval/r beyond r=  1.2343
V l=1 = -2*Zval/r beyond r=  1.2189
V l=2 = -2*Zval/r beyond r=  1.2189
All V_l potentials equal beyond r=  1.2343
This should be close to max(r_c) in ps generation
All pots = -2*Zval/r beyond r=  1.2343

VLOCAL1: 99.0% of the norm of Vloc inside     28.493 Ry
VLOCAL1: 99.9% of the norm of Vloc inside     64.935 Ry
atom: Maximum radius for 4*pi*r*r*local-pseudopot. charge    1.45251
atom: Maximum radius for r*vlocal+2*Zval:    1.21892
GHOST: No ghost state for L =  0
GHOST: No ghost state for L =  1
GHOST: No ghost state for L =  2

KBgen: Kleinman-Bylander projectors: 
   l= 0   rc=  1.364359   el= -0.467325   Ekb= -2.005361   kbcos= -0.336422
   l= 1   rc=  1.434438   el=  0.001430   Ekb= -0.501708   kbcos= -0.021697
   l= 2   rc=  1.470814   el=  0.002365   Ekb= -0.190555   kbcos= -0.002281

KBgen: Total number of  Kleinman-Bylander projectors:    9
atom: -------------------------------------------------------------------------

atom: SANKEY-TYPE ORBITALS:
atom: Selected multiple-zeta basis: split     

SPLIT: Orbitals with angular momentum L= 0

SPLIT: Basis orbitals for state 1s

SPLIT: PAO cut-off radius determined from an
SPLIT: energy shift=  0.020000 Ry

   izeta = 1
                 lambda =    1.000000
                     rc =    4.828263
                 energy =   -0.449375
                kinetic =    0.929372
    potential(screened) =   -1.378747
       potential(ionic) =   -1.915047

   izeta = 2
                 rmatch =    3.854947
              splitnorm =    0.150000
                 energy =   -0.335649
                kinetic =    1.505971
    potential(screened) =   -1.841620
       potential(ionic) =   -2.413776

POLgen: Perturbative polarization orbital with L=  1

POLgen: Polarization orbital for state 1s

   izeta = 1
                     rc =    4.828263
                 energy =    0.706972
                kinetic =    1.396397
    potential(screened) =   -0.689424
       potential(ionic) =   -1.169792
atom: Total number of Sankey-type orbitals:  5

atm_pop: Valence configuration(local Pseudopot. screening):
 1s( 1.00)                                                            
Vna: chval, zval:    1.00000   1.00000

Vna:  Cut-off radius for the neutral-atom potential:   4.828263

atom: _________________________________________________________________________

prinput: Basis input ----------------------------------------------------------

PAO.BasisType split     

%block ChemicalSpeciesLabel
    1    8 O                       # Species index, atomic number, species label
    2    1 H                       # Species index, atomic number, species label
%endblock ChemicalSpeciesLabel

%block PAO.Basis                 # Define Basis set
O           2                    # Species label, number of l-shells
 n=2   0   2                         # n, l, Nzeta 
   3.305      2.510   
   1.000      1.000   
 n=2   1   2 P   1                   # n, l, Nzeta, Polarization, NzetaPol
   3.937      2.542   
   1.000      1.000   
H           1                    # Species label, number of l-shells
 n=1   0   2 P   1                   # n, l, Nzeta, Polarization, NzetaPol
   4.828      3.855   
   1.000      1.000   
%endblock PAO.Basis

prinput: ----------------------------------------------------------------------

Dumping basis to NetCDF file O.ion.nc
Dumping basis to NetCDF file H.ion.nc

siesta: ******************** Simulation parameters ****************************
siesta:
siesta: The following are some of the parameters of the simulation.
siesta: A complete list of the parameters used, including default values,
siesta: can be found in file out.fdf
siesta:
coor:   Atomic-coordinates input format  =     Cartesian coordinates
coor:                                          (in Angstroms)
redata: Number of spin components        =     1
redata: Long output                      =     F
redata: Number of Atomic Species         =     2
redata: Charge density info will appear in .RHO file
redata: Write Mulliken Pop.              =     NO
redata: Mesh Cutoff                      =    50.0000  Ry
redata: Net charge of the system         =     0.0000 |e|
redata: Max. number of SCF Iter          =    50
redata: Mixing is linear
redata: Mix DM in first SCF step ?       =     F
redata: Write Pulay info on disk?        =     F
redata: New DM Mixing Weight             =     0.2500
redata: New DM Occupancy tolerance       = 0.000000000001
redata: No kicks to SCF
redata: DM Mixing Weight for Kicks       =     0.5000
redata: DM Tolerance for SCF             =     0.000100
redata: Require Energy convergence for SCF =     F
redata: DM Energy tolerance for SCF      =     0.000100 eV
redata: Using Saved Data (generic)   =     F
redata: Use continuation files for DM    =     F
redata: Neglect nonoverlap interactions  =     F
redata: Method of Calculation            =     Order-N
redata: Fix the spin of the system       =     F
redata: Maximum number of iterations     =  1000
redata: Relative tolerance               =     0.10D-07
redata: Eta (Fermi level parameter)      =     0.0000  Ry
redata: Radius of LWFs                   =     9.5000  Bohr
redata: Use continuation files for LWF   =     F
redata: Method to build LWFs             =     kim          
redata: Dynamics option                  =     Verlet MD run
redata: Initial MD time step             =     1
redata:   Final MD time step             =     1
redata: Length of MD time step           =     1.0000  fs
redata: Initial Temperature of MD run    =     0.0000  K
redata: Perform a MD quench              =     F
redata: ***********************************************************************

siesta: Atomic coordinates (Bohr) and species
siesta:      0.00000   0.00000   0.00000  1        1
siesta:      1.43052   1.10738   0.00000  2        2
siesta:     -1.43052   1.10738   0.00000  2        3

initatomlists: Number of atoms, orbitals, and projectors:      3    23    34

siesta: Automatic unit cell vectors (Ang):
siesta:    7.286412    0.000000    0.000000
siesta:    0.000000    5.746952    0.000000
siesta:    0.000000    0.000000    5.621012

siesta: System type = molecule  

  Spatial decomposition data : 

  Cutoff =   2.8105 Angstroms

  Spatial decomposition cells (containing atoms) :

      Ncells    Cell min    Cell length
  x :      2     -0.0000     13.7693
  y :      2     -0.0000     10.8602
  z :      1     -0.0000     10.6222


--------------------------------------------------------------------------------
 Cell   No. of atoms    Atom No.      x            y            z
--------------------------------------------------------------------------------
     3           1           3      12.3388      11.9676      10.6222
--------------------------------------------------------------------------------
     4           2           1      13.7693      10.8602      10.6222
                             2      15.1999      11.9676      10.6222
--------------------------------------------------------------------------------



siesta: k-grid: Number of k-points =     1
siesta: k-grid: Cutoff (effective) =     2.811 Ang
siesta: k-grid: Supercell and displacements
siesta: k-grid:    0   0   1      0.000
siesta: k-grid:    0   1   0      0.000
siesta: k-grid:    1   0   0      0.000

* Maximum dynamic memory allocated =     1 MB

siesta:                 ==============================
                            Begin MD step =      1
                        ==============================

outcell: Unit cell vectors (Ang):
        7.286412    0.000000    0.000000
        0.000000    5.746952    0.000000
        0.000000    0.000000    5.621012

outcell: Cell vector modules (Ang)   :    7.286412    5.746952    5.621012
outcell: Cell angles (23,13,12) (deg):     90.0000     90.0000     90.0000
outcell: Cell volume (Ang**3)        :    235.3780

InitMesh: MESH =    32 x    30 x    24 =       23040
InitMesh: Mesh cutoff (required, used) =    50.000    50.384 Ry

* Maximum dynamic memory allocated =     3 MB

ordern: enum =      8.0000

ordern: ioptlwf =  1
cgwf: iter =    1      grad =        -315.323429      Eb(Ry) =      -1.263077
cgwf: iter =    2      grad =         -18.583933      Eb(Ry) =      -2.966278
cgwf: iter =    3      grad =          -6.814188      Eb(Ry) =      -3.403843
cgwf: iter =    4      grad =          -5.093102      Eb(Ry) =      -3.585051
cgwf: iter =    5      grad =          -6.676956      Eb(Ry) =      -3.741398
cgwf: iter =    6      grad =          -6.251973      Eb(Ry) =      -4.063419
cgwf: iter =    7      grad =          -4.286650      Eb(Ry) =      -4.204647
cgwf: iter =    8      grad =          -2.593038      Eb(Ry) =      -4.284092
cgwf: iter =    9      grad =          -0.914683      Eb(Ry) =      -4.341113
cgwf: iter =   10      grad =          -0.678147      Eb(Ry) =      -4.367601
cgwf: iter =   11      grad =          -0.484983      Eb(Ry) =      -4.384618
cgwf: iter =   12      grad =          -0.226591      Eb(Ry) =      -4.394145
cgwf: iter =   13      grad =          -0.195323      Eb(Ry) =      -4.403322
cgwf: iter =   14      grad =          -0.215702      Eb(Ry) =      -4.409623
cgwf: iter =   15      grad =          -0.209127      Eb(Ry) =      -4.415436
cgwf: iter =   16      grad =          -0.167473      Eb(Ry) =      -4.421392
cgwf: iter =   17      grad =          -0.245731      Eb(Ry) =      -4.430060
cgwf: iter =   18      grad =          -0.307626      Eb(Ry) =      -4.437090
cgwf: iter =   19      grad =          -0.381985      Eb(Ry) =      -4.447980
cgwf: iter =   20      grad =          -0.286557      Eb(Ry) =      -4.460743
cgwf: iter =   21      grad =          -0.281148      Eb(Ry) =      -4.471822
cgwf: iter =   22      grad =          -0.151294      Eb(Ry) =      -4.477385
cgwf: iter =   23      grad =          -0.080576      Eb(Ry) =      -4.480666
cgwf: iter =   24      grad =          -0.077357      Eb(Ry) =      -4.484635
cgwf: iter =   25      grad =          -0.086202      Eb(Ry) =      -4.487231
cgwf: iter =   26      grad =          -0.045867      Eb(Ry) =      -4.489026
cgwf: iter =   27      grad =          -0.025257      Eb(Ry) =      -4.490047
cgwf: iter =   28      grad =          -0.037893      Eb(Ry) =      -4.491674
cgwf: iter =   29      grad =          -0.041136      Eb(Ry) =      -4.492758
cgwf: iter =   30      grad =          -0.047520      Eb(Ry) =      -4.493953
cgwf: iter =   31      grad =          -0.032551      Eb(Ry) =      -4.495361
cgwf: iter =   32      grad =          -0.036706      Eb(Ry) =      -4.497104
cgwf: iter =   33      grad =          -0.022947      Eb(Ry) =      -4.498084
cgwf: iter =   34      grad =          -0.021208      Eb(Ry) =      -4.498551
cgwf: iter =   35      grad =          -0.016103      Eb(Ry) =      -4.499538
cgwf: iter =   36      grad =          -0.020458      Eb(Ry) =      -4.500246
cgwf: iter =   37      grad =          -0.014314      Eb(Ry) =      -4.501019
cgwf: iter =   38      grad =          -0.011872      Eb(Ry) =      -4.501307
cgwf: iter =   39      grad =          -0.009619      Eb(Ry) =      -4.501661
cgwf: iter =   40      grad =          -0.014082      Eb(Ry) =      -4.502132
cgwf: iter =   41      grad =          -0.011041      Eb(Ry) =      -4.502806
cgwf: iter =   42      grad =          -0.012581      Eb(Ry) =      -4.503134
cgwf: iter =   43      grad =          -0.012041      Eb(Ry) =      -4.503449
cgwf: iter =   44      grad =          -0.006239      Eb(Ry) =      -4.503809
cgwf: iter =   45      grad =          -0.012421      Eb(Ry) =      -4.504256
cgwf: iter =   46      grad =          -0.021162      Eb(Ry) =      -4.504797
cgwf: iter =   47      grad =          -0.013507      Eb(Ry) =      -4.505255
cgwf: iter =   48      grad =          -0.007325      Eb(Ry) =      -4.505607
cgwf: iter =   49      grad =          -0.005073      Eb(Ry) =      -4.505929
cgwf: iter =   50      grad =          -0.003414      Eb(Ry) =      -4.506071
cgwf: iter =   51      grad =          -0.003048      Eb(Ry) =      -4.506150
cgwf: iter =   52      grad =          -0.002047      Eb(Ry) =      -4.506227
cgwf: iter =   53      grad =          -0.002186      Eb(Ry) =      -4.506326
cgwf: iter =   54      grad =          -0.001657      Eb(Ry) =      -4.506406
cgwf: iter =   55      grad =          -0.002323      Eb(Ry) =      -4.506463
cgwf: iter =   56      grad =          -0.001056      Eb(Ry) =      -4.506506
cgwf: iter =   57      grad =          -0.002106      Eb(Ry) =      -4.506579
cgwf: iter =   58      grad =          -0.001790      Eb(Ry) =      -4.506661
cgwf: iter =   59      grad =          -0.002605      Eb(Ry) =      -4.506729
cgwf: iter =   60      grad =          -0.001129      Eb(Ry) =      -4.506777
cgwf: iter =   61      grad =          -0.001005      Eb(Ry) =      -4.506815
cgwf: iter =   62      grad =          -0.000647      Eb(Ry) =      -4.506857
cgwf: iter =   63      grad =          -0.000741      Eb(Ry) =      -4.506879
cgwf: iter =   64      grad =          -0.000709      Eb(Ry) =      -4.506898
cgwf: iter =   65      grad =          -0.000370      Eb(Ry) =      -4.506914
cgwf: iter =   66      grad =          -0.000215      Eb(Ry) =      -4.506931
cgwf: iter =   67      grad =          -0.000316      Eb(Ry) =      -4.506941
cgwf: iter =   68      grad =          -0.000392      Eb(Ry) =      -4.506950
cgwf: iter =   69      grad =          -0.000340      Eb(Ry) =      -4.506960
cgwf: iter =   70      grad =          -0.000444      Eb(Ry) =      -4.506980
cgwf: iter =   71      grad =          -0.000409      Eb(Ry) =      -4.506998
cgwf: iter =   72      grad =          -0.000444      Eb(Ry) =      -4.507011
cgwf: iter =   73      grad =          -0.000285      Eb(Ry) =      -4.507019
cgwf: iter =   74      grad =          -0.000328      Eb(Ry) =      -4.507032
cgwf: iter =   75      grad =          -0.000201      Eb(Ry) =      -4.507044
cgwf: iter =   76      grad =          -0.000143      Eb(Ry) =      -4.507051
cgwf: iter =   77      grad =          -0.000111      Eb(Ry) =      -4.507053
cgwf: iter =   78      grad =          -0.000075      Eb(Ry) =      -4.507058
cgwf: iter =   79      grad =          -0.000062      Eb(Ry) =      -4.507060
cgwf: iter =   80      grad =          -0.000073      Eb(Ry) =      -4.507063
cgwf: iter =   81      grad =          -0.000049      Eb(Ry) =      -4.507065
cgwf: iter =   82      grad =          -0.000038      Eb(Ry) =      -4.507066
cgwf: iter =   83      grad =          -0.000033      Eb(Ry) =      -4.507067
cgwf: iter =   84      grad =          -0.000047      Eb(Ry) =      -4.507069
cgwf: iter =   85      grad =          -0.000048      Eb(Ry) =      -4.507070
cgwf: iter =   86      grad =          -0.000066      Eb(Ry) =      -4.507072
cgwf: iter =   87      grad =          -0.000032      Eb(Ry) =      -4.507074
cgwf: iter =   88      grad =          -0.000052      Eb(Ry) =      -4.507076
cgwf: iter =   89      grad =          -0.000049      Eb(Ry) =      -4.507078
cgwf: iter =   90      grad =          -0.000027      Eb(Ry) =      -4.507079
cgwf: iter =   91      grad =          -0.000021      Eb(Ry) =      -4.507080
cgwf: iter =   92      grad =          -0.000017      Eb(Ry) =      -4.507081
cgwf: iter =   93      grad =          -0.000011      Eb(Ry) =      -4.507081
cgwf: iter =   94      grad =          -0.000006      Eb(Ry) =      -4.507081
cgwf: iter =   95      grad =          -0.000006      Eb(Ry) =      -4.507082
cgwf: iter =   96      grad =          -0.000005      Eb(Ry) =      -4.507082
cgwf: iter =   97      grad =          -0.000010      Eb(Ry) =      -4.507082
cgwf: iter =   98      grad =          -0.000013      Eb(Ry) =      -4.507082
cgwf: iter =   99      grad =          -0.000010      Eb(Ry) =      -4.507083
cgwf: iter =  100      grad =          -0.000006      Eb(Ry) =      -4.507083
cgwf: iter =  101      grad =          -0.000007      Eb(Ry) =      -4.507083
cgwf: iter =  102      grad =          -0.000009      Eb(Ry) =      -4.507084
cgwf: iter =  103      grad =          -0.000007      Eb(Ry) =      -4.507084
cgwf: iter =  104      grad =          -0.000004      Eb(Ry) =      -4.507084
cgwf: iter =  105      grad =          -0.000003      Eb(Ry) =      -4.507084
cgwf: iter =  106      grad =          -0.000003      Eb(Ry) =      -4.507084
cgwf: iter =  107      grad =          -0.000003      Eb(Ry) =      -4.507084
cgwf: iter =  108      grad =          -0.000002      Eb(Ry) =      -4.507085
cgwf: iter =  109      grad =          -0.000003      Eb(Ry) =      -4.507085
cgwf: iter =  110      grad =          -0.000004      Eb(Ry) =      -4.507085
cgwf: iter =  111      grad =          -0.000005      Eb(Ry) =      -4.507085
cgwf: iter =  112      grad =          -0.000002      Eb(Ry) =      -4.507085
cgwf: iter =  113      grad =          -0.000003      Eb(Ry) =      -4.507085
cgwf: iter =  114      grad =          -0.000003      Eb(Ry) =      -4.507085
cgwf: iter =  115      grad =          -0.000004      Eb(Ry) =      -4.507085
cgwf: iter =  116      grad =          -0.000001      Eb(Ry) =      -4.507085

cgwf:  CG tolerance reached

denmat: qtot (before DM normalization) =       8.0000
ordern: qtot (after  DM normalization) =       8.0000

siesta: Program's energy decomposition (eV):
siesta: Eions   =       815.854478
siesta: Ena     =       175.154321
siesta: Ekin    =       341.667405
siesta: Enl     =       -52.736757
siesta: DEna    =        -0.000001
siesta: DUscf   =         0.000000
siesta: DUext   =         0.000000
siesta: Exc     =      -109.951257
siesta: eta*DQ  =         0.000000
siesta: Emadel  =         0.000000
siesta: Ekinion =         0.000000
siesta: Eharris =      -466.430379
siesta: Etot    =      -461.720767
siesta: FreeEng =      -461.720767

siesta: iscf =    1
Eharris(eV) =       -466.4304  E_KS(eV) =       -461.7208  dDmax =  1.4373

timer: Routine,Calls,Time,% = IterSCF        1       9.047  71.06
elaps: Routine,Calls,Wall,% = IterSCF        1      10.084  71.74

ordern: enum =      8.0000
cgwf: iter =    1      grad =          -0.399278      Eb(Ry) =      -3.180384
cgwf: iter =    2      grad =          -0.686071      Eb(Ry) =      -3.221696
cgwf: iter =    3      grad =          -0.107803      Eb(Ry) =      -3.230056
cgwf: iter =    4      grad =          -0.072656      Eb(Ry) =      -3.235365
cgwf: iter =    5      grad =          -0.017127      Eb(Ry) =      -3.238119
cgwf: iter =    6      grad =          -0.005715      Eb(Ry) =      -3.238704
cgwf: iter =    7      grad =          -0.005413      Eb(Ry) =      -3.238828
cgwf: iter =    8      grad =          -0.001213      Eb(Ry) =      -3.239065
cgwf: iter =    9      grad =          -0.001395      Eb(Ry) =      -3.239238
cgwf: iter =   10      grad =          -0.001213      Eb(Ry) =      -3.239279
cgwf: iter =   11      grad =          -0.005121      Eb(Ry) =      -3.239370
cgwf: iter =   12      grad =          -0.001821      Eb(Ry) =      -3.239530
cgwf: iter =   13      grad =          -0.001580      Eb(Ry) =      -3.239597
cgwf: iter =   14      grad =          -0.000800      Eb(Ry) =      -3.239740
cgwf: iter =   15      grad =          -0.002591      Eb(Ry) =      -3.239793
cgwf: iter =   16      grad =          -0.000614      Eb(Ry) =      -3.239850
cgwf: iter =   17      grad =          -0.000427      Eb(Ry) =      -3.239868
cgwf: iter =   18      grad =          -0.000893      Eb(Ry) =      -3.239895
cgwf: iter =   19      grad =          -0.000263      Eb(Ry) =      -3.239910
cgwf: iter =   20      grad =          -0.000396      Eb(Ry) =      -3.239933
cgwf: iter =   21      grad =          -0.000430      Eb(Ry) =      -3.239950
cgwf: iter =   22      grad =          -0.000495      Eb(Ry) =      -3.239967
cgwf: iter =   23      grad =          -0.000429      Eb(Ry) =      -3.239980
cgwf: iter =   24      grad =          -0.000150      Eb(Ry) =      -3.240001
cgwf: iter =   25      grad =          -0.000181      Eb(Ry) =      -3.240007
cgwf: iter =   26      grad =          -0.000425      Eb(Ry) =      -3.240016
cgwf: iter =   27      grad =          -0.000151      Eb(Ry) =      -3.240027
cgwf: iter =   28      grad =          -0.000216      Eb(Ry) =      -3.240044
cgwf: iter =   29      grad =          -0.000391      Eb(Ry) =      -3.240053
cgwf: iter =   30      grad =          -0.000388      Eb(Ry) =      -3.240065
cgwf: iter =   31      grad =          -0.000146      Eb(Ry) =      -3.240082
cgwf: iter =   32      grad =          -0.000195      Eb(Ry) =      -3.240092
cgwf: iter =   33      grad =          -0.000115      Eb(Ry) =      -3.240096
cgwf: iter =   34      grad =          -0.000179      Eb(Ry) =      -3.240101
cgwf: iter =   35      grad =          -0.000117      Eb(Ry) =      -3.240109
cgwf: iter =   36      grad =          -0.000179      Eb(Ry) =      -3.240118
cgwf: iter =   37      grad =          -0.000118      Eb(Ry) =      -3.240122
cgwf: iter =   38      grad =          -0.000035      Eb(Ry) =      -3.240127
cgwf: iter =   39      grad =          -0.000052      Eb(Ry) =      -3.240130
cgwf: iter =   40      grad =          -0.000022      Eb(Ry) =      -3.240131
cgwf: iter =   41      grad =          -0.000012      Eb(Ry) =      -3.240132
cgwf: iter =   42      grad =          -0.000003      Eb(Ry) =      -3.240132
cgwf: iter =   43      grad =          -0.000011      Eb(Ry) =      -3.240133
cgwf: iter =   44      grad =          -0.000006      Eb(Ry) =      -3.240133
cgwf: iter =   45      grad =          -0.000003      Eb(Ry) =      -3.240133
cgwf: iter =   46      grad =          -0.000002      Eb(Ry) =      -3.240133
cgwf: iter =   47      grad =          -0.000009      Eb(Ry) =      -3.240133
cgwf: iter =   48      grad =          -0.000006      Eb(Ry) =      -3.240133
cgwf: iter =   49      grad =          -0.000002      Eb(Ry) =      -3.240133
cgwf: iter =   50      grad =          -0.000012      Eb(Ry) =      -3.240134
cgwf: iter =   51      grad =          -0.000023      Eb(Ry) =      -3.240134
cgwf: iter =   52      grad =          -0.000020      Eb(Ry) =      -3.240136
cgwf: iter =   53      grad =          -0.000010      Eb(Ry) =      -3.240137
cgwf: iter =   54      grad =          -0.000005      Eb(Ry) =      -3.240137
cgwf: iter =   55      grad =          -0.000004      Eb(Ry) =      -3.240137
cgwf: iter =   56      grad =          -0.000004      Eb(Ry) =      -3.240138
cgwf: iter =   57      grad =          -0.000003      Eb(Ry) =      -3.240138
cgwf: iter =   58      grad =          -0.000003      Eb(Ry) =      -3.240138
cgwf: iter =   59      grad =          -0.000003      Eb(Ry) =      -3.240138
cgwf: iter =   60      grad =          -0.000001      Eb(Ry) =      -3.240138
cgwf: iter =   61      grad =          -0.000002      Eb(Ry) =      -3.240138
cgwf: iter =   62      grad =          -0.000002      Eb(Ry) =      -3.240138
cgwf: iter =   63      grad =          -0.000002      Eb(Ry) =      -3.240138
cgwf: iter =   64      grad =          -0.000001      Eb(Ry) =      -3.240138
cgwf: iter =   65      grad =          -0.000001      Eb(Ry) =      -3.240138
cgwf: iter =   66      grad =          -0.000001      Eb(Ry) =      -3.240138
cgwf: iter =   67      grad =          -0.000003      Eb(Ry) =      -3.240138
cgwf: iter =   68      grad =          -0.000001      Eb(Ry) =      -3.240139
cgwf: iter =   69      grad =          -0.000001      Eb(Ry) =      -3.240139
cgwf: iter =   70      grad =          -0.000000      Eb(Ry) =      -3.240139

cgwf:  CG tolerance reached

denmat: qtot (before DM normalization) =       8.0000
ordern: qtot (after  DM normalization) =       8.0000

siesta: iscf =    2
Eharris(eV) =       -466.8692  E_KS(eV) =       -465.2432  dDmax =  0.1755


ordern: enum =      8.0000
cgwf: iter =    1      grad =          -0.081982      Eb(Ry) =      -3.657829
cgwf: iter =    2      grad =          -0.080703      Eb(Ry) =      -3.667842
cgwf: iter =    3      grad =          -0.015765      Eb(Ry) =      -3.668763
cgwf: iter =    4      grad =          -0.009408      Eb(Ry) =      -3.669891
cgwf: iter =    5      grad =          -0.001210      Eb(Ry) =      -3.670111
cgwf: iter =    6      grad =          -0.000477      Eb(Ry) =      -3.670146
cgwf: iter =    7      grad =          -0.000851      Eb(Ry) =      -3.670182
cgwf: iter =    8      grad =          -0.000405      Eb(Ry) =      -3.670212
cgwf: iter =    9      grad =          -0.000739      Eb(Ry) =      -3.670224
cgwf: iter =   10      grad =          -0.000255      Eb(Ry) =      -3.670256
cgwf: iter =   11      grad =          -0.000416      Eb(Ry) =      -3.670268
cgwf: iter =   12      grad =          -0.000892      Eb(Ry) =      -3.670284
cgwf: iter =   13      grad =          -0.000278      Eb(Ry) =      -3.670311
cgwf: iter =   14      grad =          -0.000370      Eb(Ry) =      -3.670328
cgwf: iter =   15      grad =          -0.000470      Eb(Ry) =      -3.670338
cgwf: iter =   16      grad =          -0.000241      Eb(Ry) =      -3.670350
cgwf: iter =   17      grad =          -0.000327      Eb(Ry) =      -3.670367
cgwf: iter =   18      grad =          -0.000166      Eb(Ry) =      -3.670374
cgwf: iter =   19      grad =          -0.000138      Eb(Ry) =      -3.670379
cgwf: iter =   20      grad =          -0.000186      Eb(Ry) =      -3.670383
cgwf: iter =   21      grad =          -0.000082      Eb(Ry) =      -3.670389
cgwf: iter =   22      grad =          -0.000041      Eb(Ry) =      -3.670391
cgwf: iter =   23      grad =          -0.000030      Eb(Ry) =      -3.670392
cgwf: iter =   24      grad =          -0.000094      Eb(Ry) =      -3.670395
cgwf: iter =   25      grad =          -0.000088      Eb(Ry) =      -3.670397
cgwf: iter =   26      grad =          -0.000068      Eb(Ry) =      -3.670400
cgwf: iter =   27      grad =          -0.000125      Eb(Ry) =      -3.670405
cgwf: iter =   28      grad =          -0.000152      Eb(Ry) =      -3.670410
cgwf: iter =   29      grad =          -0.000035      Eb(Ry) =      -3.670412
cgwf: iter =   30      grad =          -0.000057      Eb(Ry) =      -3.670415
cgwf: iter =   31      grad =          -0.000042      Eb(Ry) =      -3.670416
cgwf: iter =   32      grad =          -0.000113      Eb(Ry) =      -3.670418
cgwf: iter =   33      grad =          -0.000090      Eb(Ry) =      -3.670424
cgwf: iter =   34      grad =          -0.000068      Eb(Ry) =      -3.670429
cgwf: iter =   35      grad =          -0.000059      Eb(Ry) =      -3.670430
cgwf: iter =   36      grad =          -0.000033      Eb(Ry) =      -3.670432
cgwf: iter =   37      grad =          -0.000015      Eb(Ry) =      -3.670433
cgwf: iter =   38      grad =          -0.000045      Eb(Ry) =      -3.670434
cgwf: iter =   39      grad =          -0.000019      Eb(Ry) =      -3.670435
cgwf: iter =   40      grad =          -0.000024      Eb(Ry) =      -3.670437
cgwf: iter =   41      grad =          -0.000035      Eb(Ry) =      -3.670437
cgwf: iter =   42      grad =          -0.000020      Eb(Ry) =      -3.670438
cgwf: iter =   43      grad =          -0.000010      Eb(Ry) =      -3.670439
cgwf: iter =   44      grad =          -0.000010      Eb(Ry) =      -3.670439
cgwf: iter =   45      grad =          -0.000003      Eb(Ry) =      -3.670439
cgwf: iter =   46      grad =          -0.000001      Eb(Ry) =      -3.670440
cgwf: iter =   47      grad =          -0.000001      Eb(Ry) =      -3.670440
cgwf: iter =   48      grad =          -0.000007      Eb(Ry) =      -3.670440
cgwf: iter =   49      grad =          -0.000002      Eb(Ry) =      -3.670440
cgwf: iter =   50      grad =          -0.000001      Eb(Ry) =      -3.670440

cgwf:  CG tolerance reached

denmat: qtot (before DM normalization) =       8.0000
ordern: qtot (after  DM normalization) =       8.0000

siesta: iscf =    3
Eharris(eV) =       -465.9265  E_KS(eV) =       -465.4661  dDmax =  0.0496


ordern: enum =      8.0000
cgwf: iter =    1      grad =          -0.006630      Eb(Ry) =      -3.794834
cgwf: iter =    2      grad =          -0.008733      Eb(Ry) =      -3.795591
cgwf: iter =    3      grad =          -0.001300      Eb(Ry) =      -3.795687
cgwf: iter =    4      grad =          -0.001313      Eb(Ry) =      -3.795762
cgwf: iter =    5      grad =          -0.000088      Eb(Ry) =      -3.795797
cgwf: iter =    6      grad =          -0.000057      Eb(Ry) =      -3.795803
cgwf: iter =    7      grad =          -0.000060      Eb(Ry) =      -3.795806
cgwf: iter =    8      grad =          -0.000043      Eb(Ry) =      -3.795807
cgwf: iter =    9      grad =          -0.000030      Eb(Ry) =      -3.795810
cgwf: iter =   10      grad =          -0.000038      Eb(Ry) =      -3.795811
cgwf: iter =   11      grad =          -0.000043      Eb(Ry) =      -3.795814
cgwf: iter =   12      grad =          -0.000047      Eb(Ry) =      -3.795815
cgwf: iter =   13      grad =          -0.000058      Eb(Ry) =      -3.795818
cgwf: iter =   14      grad =          -0.000017      Eb(Ry) =      -3.795818
cgwf: iter =   15      grad =          -0.000019      Eb(Ry) =      -3.795821
cgwf: iter =   16      grad =          -0.000030      Eb(Ry) =      -3.795822
cgwf: iter =   17      grad =          -0.000023      Eb(Ry) =      -3.795824
cgwf: iter =   18      grad =          -0.000027      Eb(Ry) =      -3.795825
cgwf: iter =   19      grad =          -0.000004      Eb(Ry) =      -3.795826
cgwf: iter =   20      grad =          -0.000005      Eb(Ry) =      -3.795826
cgwf: iter =   21      grad =          -0.000011      Eb(Ry) =      -3.795826
cgwf: iter =   22      grad =          -0.000004      Eb(Ry) =      -3.795827
cgwf: iter =   23      grad =          -0.000005      Eb(Ry) =      -3.795827
cgwf: iter =   24      grad =          -0.000005      Eb(Ry) =      -3.795827
cgwf: iter =   25      grad =          -0.000005      Eb(Ry) =      -3.795827
cgwf: iter =   26      grad =          -0.000006      Eb(Ry) =      -3.795828
cgwf: iter =   27      grad =          -0.000002      Eb(Ry) =      -3.795828
cgwf: iter =   28      grad =          -0.000002      Eb(Ry) =      -3.795828
cgwf: iter =   29      grad =          -0.000001      Eb(Ry) =      -3.795828
cgwf: iter =   30      grad =          -0.000003      Eb(Ry) =      -3.795828
cgwf: iter =   31      grad =          -0.000002      Eb(Ry) =      -3.795829
cgwf: iter =   32      grad =          -0.000003      Eb(Ry) =      -3.795829
cgwf: iter =   33      grad =          -0.000002      Eb(Ry) =      -3.795829
cgwf: iter =   34      grad =          -0.000003      Eb(Ry) =      -3.795829
cgwf: iter =   35      grad =          -0.000000      Eb(Ry) =      -3.795829

cgwf:  CG tolerance reached

denmat: qtot (before DM normalization) =       8.0000
ordern: qtot (after  DM normalization) =       8.0000

siesta: iscf =    4
Eharris(eV) =       -465.8474  E_KS(eV) =       -465.5661  dDmax =  0.0172


ordern: enum =      8.0000
cgwf: iter =    1      grad =          -0.000623      Eb(Ry) =      -3.833354
cgwf: iter =    2      grad =          -0.000895      Eb(Ry) =      -3.833421
cgwf: iter =    3      grad =          -0.000124      Eb(Ry) =      -3.833430
cgwf: iter =    4      grad =          -0.000109      Eb(Ry) =      -3.833438
cgwf: iter =    5      grad =          -0.000015      Eb(Ry) =      -3.833441
cgwf: iter =    6      grad =          -0.000006      Eb(Ry) =      -3.833442
cgwf: iter =    7      grad =          -0.000004      Eb(Ry) =      -3.833442
cgwf: iter =    8      grad =          -0.000008      Eb(Ry) =      -3.833442
cgwf: iter =    9      grad =          -0.000007      Eb(Ry) =      -3.833443
cgwf: iter =   10      grad =          -0.000003      Eb(Ry) =      -3.833443
cgwf: iter =   11      grad =          -0.000005      Eb(Ry) =      -3.833443
cgwf: iter =   12      grad =          -0.000004      Eb(Ry) =      -3.833443
cgwf: iter =   13      grad =          -0.000001      Eb(Ry) =      -3.833444
cgwf: iter =   14      grad =          -0.000003      Eb(Ry) =      -3.833444
cgwf: iter =   15      grad =          -0.000002      Eb(Ry) =      -3.833444
cgwf: iter =   16      grad =          -0.000003      Eb(Ry) =      -3.833444
cgwf: iter =   17      grad =          -0.000001      Eb(Ry) =      -3.833444
cgwf: iter =   18      grad =          -0.000001      Eb(Ry) =      -3.833444

cgwf:  CG tolerance reached

denmat: qtot (before DM normalization) =       8.0000
ordern: qtot (after  DM normalization) =       8.0000

siesta: iscf =    5
Eharris(eV) =       -465.8398  E_KS(eV) =       -465.6350  dDmax =  0.0082


ordern: enum =      8.0000
cgwf: iter =    1      grad =          -0.000064      Eb(Ry) =      -3.844777
cgwf: iter =    2      grad =          -0.000023      Eb(Ry) =      -3.844784
cgwf: iter =    3      grad =          -0.000019      Eb(Ry) =      -3.844784
cgwf: iter =    4      grad =          -0.000017      Eb(Ry) =      -3.844785
cgwf: iter =    5      grad =          -0.000002      Eb(Ry) =      -3.844785
cgwf: iter =    6      grad =          -0.000001      Eb(Ry) =      -3.844785

cgwf:  CG tolerance reached

denmat: qtot (before DM normalization) =       8.0000
ordern: qtot (after  DM normalization) =       8.0000

siesta: iscf =    6
Eharris(eV) =       -465.8390  E_KS(eV) =       -465.6860  dDmax =  0.0067


ordern: enum =      8.0000
cgwf: iter =    1      grad =          -0.000009      Eb(Ry) =      -3.848251
cgwf: iter =    2      grad =          -0.000010      Eb(Ry) =      -3.848251
cgwf: iter =    3      grad =          -0.000003      Eb(Ry) =      -3.848252
cgwf: iter =    4      grad =          -0.000002      Eb(Ry) =      -3.848252
cgwf: iter =    5      grad =          -0.000001      Eb(Ry) =      -3.848252

cgwf:  CG tolerance reached

denmat: qtot (before DM normalization) =       8.0000
ordern: qtot (after  DM normalization) =       8.0000

siesta: iscf =    7
Eharris(eV) =       -465.8388  E_KS(eV) =       -465.7242  dDmax =  0.0050


ordern: enum =      8.0000
cgwf: iter =    1      grad =          -0.000002      Eb(Ry) =      -3.849182
cgwf: iter =    2      grad =          -0.000002      Eb(Ry) =      -3.849182
cgwf: iter =    3      grad =          -0.000000      Eb(Ry) =      -3.849182

cgwf:  CG tolerance reached

denmat: qtot (before DM normalization) =       8.0000
ordern: qtot (after  DM normalization) =       8.0000

siesta: iscf =    8
Eharris(eV) =       -465.8388  E_KS(eV) =       -465.7529  dDmax =  0.0035


ordern: enum =      8.0000
cgwf: iter =    1      grad =          -0.000001      Eb(Ry) =      -3.849594

cgwf:  CG tolerance reached

denmat: qtot (before DM normalization) =       8.0000
ordern: qtot (after  DM normalization) =       8.0000

siesta: iscf =    9
Eharris(eV) =       -465.8388  E_KS(eV) =       -465.7744  dDmax =  0.0027


ordern: enum =      8.0000
cgwf: iter =    1      grad =          -0.000001      Eb(Ry) =      -3.849883

cgwf:  CG tolerance reached

denmat: qtot (before DM normalization) =       8.0000
ordern: qtot (after  DM normalization) =       8.0000

siesta: iscf =   10
Eharris(eV) =       -465.8388  E_KS(eV) =       -465.7905  dDmax =  0.0020


ordern: enum =      8.0000
cgwf: iter =    1      grad =          -0.000002      Eb(Ry) =      -3.850065

cgwf:  CG tolerance reached

denmat: qtot (before DM normalization) =       8.0000
ordern: qtot (after  DM normalization) =       8.0000

siesta: iscf =   11
Eharris(eV) =       -465.8388  E_KS(eV) =       -465.8026  dDmax =  0.0015


ordern: enum =      8.0000
cgwf: iter =    1      grad =          -0.000001      Eb(Ry) =      -3.850165

cgwf:  CG tolerance reached

denmat: qtot (before DM normalization) =       8.0000
ordern: qtot (after  DM normalization) =       8.0000

siesta: iscf =   12
Eharris(eV) =       -465.8388  E_KS(eV) =       -465.8116  dDmax =  0.0011


ordern: enum =      8.0000
cgwf: iter =    1      grad =          -0.000002      Eb(Ry) =      -3.850207

cgwf:  CG tolerance reached

denmat: qtot (before DM normalization) =       8.0000
ordern: qtot (after  DM normalization) =       8.0000

siesta: iscf =   13
Eharris(eV) =       -465.8388  E_KS(eV) =       -465.8184  dDmax =  0.0008


ordern: enum =      8.0000
cgwf: iter =    1      grad =          -0.000001      Eb(Ry) =      -3.850209

cgwf:  CG tolerance reached

denmat: qtot (before DM normalization) =       8.0000
ordern: qtot (after  DM normalization) =       8.0000

siesta: iscf =   14
Eharris(eV) =       -465.8388  E_KS(eV) =       -465.8235  dDmax =  0.0006


ordern: enum =      8.0000
cgwf: iter =    1      grad =          -0.000001      Eb(Ry) =      -3.850183

cgwf:  CG tolerance reached

denmat: qtot (before DM normalization) =       8.0000
ordern: qtot (after  DM normalization) =       8.0000

siesta: iscf =   15
Eharris(eV) =       -465.8388  E_KS(eV) =       -465.8274  dDmax =  0.0004


ordern: enum =      8.0000
cgwf: iter =    1      grad =          -0.000001      Eb(Ry) =      -3.850142

cgwf:  CG tolerance reached

denmat: qtot (before DM normalization) =       8.0000
ordern: qtot (after  DM normalization) =       8.0000

siesta: iscf =   16
Eharris(eV) =       -465.8388  E_KS(eV) =       -465.8302  dDmax =  0.0003


ordern: enum =      8.0000
cgwf: iter =    1      grad =          -0.000001      Eb(Ry) =      -3.850096

cgwf:  CG tolerance reached

denmat: qtot (before DM normalization) =       8.0000
ordern: qtot (after  DM normalization) =       8.0000

siesta: iscf =   17
Eharris(eV) =       -465.8388  E_KS(eV) =       -465.8324  dDmax =  0.0002


ordern: enum =      8.0000
cgwf: iter =    1      grad =          -0.000001      Eb(Ry) =      -3.850048

cgwf:  CG tolerance reached

denmat: qtot (before DM normalization) =       8.0000
ordern: qtot (after  DM normalization) =       8.0000

siesta: iscf =   18
Eharris(eV) =       -465.8388  E_KS(eV) =       -465.8340  dDmax =  0.0002


ordern: enum =      8.0000
cgwf: iter =    1      grad =          -0.000001      Eb(Ry) =      -3.850007

cgwf:  CG tolerance reached

denmat: qtot (before DM normalization) =       8.0000
ordern: qtot (after  DM normalization) =       8.0000

siesta: iscf =   19
Eharris(eV) =       -465.8388  E_KS(eV) =       -465.8352  dDmax =  0.0002


ordern: enum =      8.0000
cgwf: iter =    1      grad =          -0.000000      Eb(Ry) =      -3.849968

cgwf:  CG tolerance reached

denmat: qtot (before DM normalization) =       8.0000
ordern: qtot (after  DM normalization) =       8.0000

siesta: iscf =   20
Eharris(eV) =       -465.8388  E_KS(eV) =       -465.8361  dDmax =  0.0001


ordern: enum =      8.0000
cgwf: iter =    1      grad =          -0.000000      Eb(Ry) =      -3.849936

cgwf:  CG tolerance reached

denmat: qtot (before DM normalization) =       8.0000
ordern: qtot (after  DM normalization) =       8.0000

siesta: iscf =   21
Eharris(eV) =       -465.8389  E_KS(eV) =       -465.8368  dDmax =  0.0001


ordern: enum =      8.0000
cgwf: iter =    1      grad =          -0.000000      Eb(Ry) =      -3.849913

cgwf:  CG tolerance reached

denmat: qtot (before DM normalization) =       8.0000
ordern: qtot (after  DM normalization) =       8.0000

siesta: iscf =   22
Eharris(eV) =       -465.8388  E_KS(eV) =       -465.8373  dDmax =  0.0001


ordern: enum =      8.0000
cgwf: iter =    1      grad =          -0.000000      Eb(Ry) =      -3.849894

cgwf:  CG tolerance reached

denmat: qtot (before DM normalization) =       8.0000
ordern: qtot (after  DM normalization) =       8.0000

siesta: iscf =   23
Eharris(eV) =       -465.8388  E_KS(eV) =       -465.8377  dDmax =  0.0001


siesta: E_KS(eV) =             -465.8379

siesta: E_KS - E_eggbox =      -465.8379

siesta: Atomic forces (eV/Ang):
----------------------------------------
   Tot    0.000012    0.056269   -0.000026
----------------------------------------
   Max    0.722924
   Res    0.404024    sqrt( Sum f_i^2 / 3N )
----------------------------------------
   Max    0.722924    constrained

Stress-tensor-Voigt (kbar):      -20.26       -3.73       22.42        0.00       -0.00       -0.00
Target enthalpy (eV/cell)     -465.8379

siesta: Stress tensor (static) (eV/Ang**3):
        -0.012645   -0.000000    0.000000
         0.000000   -0.002331    0.000000
        -0.000000   -0.000000    0.013992

siesta: Pressure (static):          0.52530716  kBar

siesta: Stress tensor (total) (eV/Ang**3):
        -0.012645   -0.000000    0.000000
         0.000000   -0.002331    0.000000
        -0.000000   -0.000000    0.013992

siesta: Pressure (total):          0.52530716  kBar

siesta: Temp_ion =       0.000 K

* Maximum dynamic memory allocated =     3 MB

siesta: Program's energy decomposition (eV):
siesta: Eions   =       815.854478
siesta: Ena     =       175.154321
siesta: Ekin    =       350.747706
siesta: Enl     =       -61.947153
siesta: DEna    =        -1.757375
siesta: DUscf   =         0.727432
siesta: DUext   =         0.000000
siesta: Exc     =      -112.908392
siesta: eta*DQ  =         0.000000
siesta: Emadel  =         0.000000
siesta: Ekinion =         0.000000
siesta: Eharris =      -465.838841
siesta: Etot    =      -465.837938
siesta: FreeEng =      -465.837938

siesta: Final energy (eV):
siesta:       Kinetic =     350.747706
siesta:       Hartree =     382.599036
siesta:    Ext. field =       0.000000
siesta:   Exch.-corr. =    -112.908392
siesta:  Ion-electron =   -1072.770416
siesta:       Ion-ion =     -13.505872
siesta:       Ekinion =       0.000000
siesta:         Total =    -465.837938

siesta: Atomic forces (eV/Ang):
siesta:      1    0.000005   -0.512174   -0.000054
siesta:      2    0.722924    0.284218    0.000024
siesta:      3   -0.722918    0.284225    0.000004
siesta: ----------------------------------------
siesta:    Tot    0.000012    0.056269   -0.000026

siesta: Stress tensor (static) (eV/Ang**3):
siesta:    -0.012645   -0.000000    0.000000
siesta:     0.000000   -0.002331    0.000000
siesta:    -0.000000   -0.000000    0.013992

siesta: Cell volume =        235.378012 Ang**3

siesta: Pressure (static):
siesta:                Solid            Molecule  Units
siesta:           0.00000357         -0.00001811  Ry/Bohr**3
siesta:           0.00032787         -0.00166273  eV/Ang**3
siesta:           0.52530716         -2.66401389  kBar

siesta: Electric dipole (a.u.)  =    0.000000    0.558887   -0.000003
siesta: Electric dipole (Debye) =    0.000000    1.420550   -0.000007

* Maximum dynamic memory allocated : Node    0 =     3 MB

* Maximum memory occured during MATEL                         

timer: CPU execution times:
timer:  Routine       Calls   Time/call    Tot.time        %
timer:  siesta            1      16.644      16.644   100.00
timer:  Setup             1       1.350       1.350     8.11
timer:  bands             1       0.001       0.001     0.00
timer:  writewave         1       0.002       0.002     0.01
timer:  KSV_init          1       0.001       0.001     0.00
timer:  IterMD            1      15.279      15.279    91.79
timer:  hsparse           2       0.017       0.034     0.20
timer:  overfsm           2       1.149       2.297    13.80
timer:  IterSCF          24       0.539      12.933    77.70
timer:  kinefsm           2       1.074       2.147    12.90
timer:  nlefsm            2       3.186       6.372    38.28
timer:  DHSCF            24       0.170       4.086    24.55
timer:  DHSCF1            1       0.080       0.080     0.48
timer:  DHSCF2            1       0.234       0.234     1.41
timer:  REORD           194       0.000       0.061     0.37
timer:  POISON           25       0.015       0.378     2.27
timer:  DHSCF3           24       0.138       3.307    19.87
timer:  rhoofd           24       0.024       0.566     3.40
timer:  cellXC           24       0.073       1.758    10.56
timer:  vmat             24       0.013       0.316     1.90
timer:  gradient        341       0.000       0.067     0.40
timer:  ener3           318       0.000       0.077     0.47
timer:  denmat           23       0.000       0.006     0.04
timer:  DHSCF4            1       0.446       0.446     2.68
timer:  dfscf             1       0.282       0.282     1.69
timer:  optical           1       0.001       0.001     0.00
  

elaps: ELAPSED times:
elaps:  Routine       Calls   Time/call    Tot.time        %
elaps:  siesta            1      19.985      19.985   100.00
elaps:  Setup             1       1.544       1.544     7.72
elaps:  bands             1       0.001       0.001     0.00
elaps:  writewave         1       0.002       0.002     0.01
elaps:  KSV_init          1       0.001       0.001     0.00
elaps:  IterMD            1      18.426      18.426    92.19
elaps:  hsparse           2       0.018       0.036     0.18
elaps:  overfsm           2       1.195       2.390    11.96
elaps:  IterSCF          24       0.666      15.983    79.97
elaps:  kinefsm           2       1.143       2.287    11.44
elaps:  nlefsm            2       3.507       7.014    35.10
elaps:  DHSCF            24       0.192       4.597    23.00
elaps:  DHSCF1            1       0.082       0.082     0.41
elaps:  DHSCF2            1       0.243       0.243     1.22
elaps:  REORD           194       0.000       0.067     0.33
elaps:  POISON           25       0.018       0.454     2.27
elaps:  DHSCF3           24       0.155       3.715    18.59
elaps:  rhoofd           24       0.027       0.639     3.20
elaps:  cellXC           24       0.080       1.926     9.64
elaps:  vmat             24       0.015       0.359     1.79
elaps:  gradient        341       0.000       0.069     0.35
elaps:  ener3           318       0.000       0.085     0.42
elaps:  denmat           23       0.000       0.006     0.03
elaps:  DHSCF4            1       0.532       0.532     2.66
elaps:  dfscf             1       0.331       0.331     1.66
elaps:  optical           1       0.001       0.001     0.00
  
>> End of run:   5-DEC-2006  11:43:07
