Siesta Version:                                        siesta-trunk-300
Architecture  : nano-intel-mpi
Compiler flags: /opt/intel/impi/3.1/bin64/mpiifort -w  -O3 -mp
PARALLEL version
NetCDF support

* Running on    4 nodes in parallel
>> Start of run:  29-SEP-2009  17:19:45

                           ***********************       
                           *  WELCOME TO SIESTA  *       
                           ***********************       

reinit: Reading from standard input
************************** Dump of input data file ****************************
SystemName h2oZ
SystemLabel h2oZ
NumberOfSpecies 2
NumberOfAtoms   3
%block ChemicalSpeciesLabel
1    8 O
2    1 H
%endblock ChemicalSpeciesLabel
AtomicCoordinatesFormat NotScaledCartesianAng
ZM.ForceTolLength 0.04 eV/Ang
ZM.ForceTolAngle 0.0001 eV/deg
ZM.MaxDisplLenght 0.1 Ang
ZM.MaxDisplAngle 20.0 deg
%block Zmatrix
molecule_cartesian
  1 0 0 0   0.0 0.0 0.0 0 0 0
  2 1 0 0   HO1 90.0 37.743919 1 0 0
  2 1 2 0   HO2 HOH 90.0 1 1 0
variables
    HO1 0.956997
    HO2 0.956997
    HOH 104.0
%endblock Zmatrix
ZM.UnitsLength Ang
ZM.UnitsAngle deg
xc.functional GGA
xc.authors PBE
MD.TypeOfRun CG
MD.NumCGsteps 200
MeshCutoff 120 Ry
PAO.EnergyShift 0.01 Ry
DM.NumberPulay 5
DM.MixingWeight 0.3
************************** End of input data file *****************************

reinit: -----------------------------------------------------------------------
reinit: System Name: h2oZ
reinit: -----------------------------------------------------------------------
reinit: System Label: h2oZ                                                        
reinit: -----------------------------------------------------------------------

initatom: Reading input for the pseudopotentials and atomic orbitals ----------
 Species number:            1  Label: O Atomic number:           8
 Species number:            2  Label: H Atomic number:           1
Ground state valence configuration:   2s02  2p04
Reading pseudopotential information in formatted form from O.psf

Valence configuration for pseudopotential generation:
2s( 2.00) rc: 1.14
2p( 4.00) rc: 1.14
3d( 0.00) rc: 1.14
4f( 0.00) rc: 1.14
Ground state valence configuration:   1s01
Reading pseudopotential information in formatted form from H.psf

Valence configuration for pseudopotential generation:
1s( 1.00) rc: 1.25
2p( 0.00) rc: 1.25
3d( 0.00) rc: 1.25
4f( 0.00) rc: 1.25
For O, standard SIESTA heuristics set lmxkb to 3
 (one more than the basis l, including polarization orbitals).
Use PS.lmax or PS.KBprojectors blocks to override.
For H, standard SIESTA heuristics set lmxkb to 2
 (one more than the basis l, including polarization orbitals).
Use PS.lmax or PS.KBprojectors blocks to override.

<basis_specs>
===============================================================================
O                    Z=   8    Mass=  16.000        Charge= 0.17977+309
Lmxo=1 Lmxkb=3     BasisType=split      Semic=F
L=0  Nsemic=0  Cnfigmx=2
          n=1  nzeta=2  polorb=0
            splnorm:   0.15000    
               vcte:    0.0000    
               rinn:    0.0000    
                rcs:    0.0000      0.0000    
            lambdas:    1.0000      1.0000    
L=1  Nsemic=0  Cnfigmx=2
          n=1  nzeta=2  polorb=1
            splnorm:   0.15000    
               vcte:    0.0000    
               rinn:    0.0000    
                rcs:    0.0000      0.0000    
            lambdas:    1.0000      1.0000    
-------------------------------------------------------------------------------
L=0  Nkbl=1  erefs: 0.17977+309
L=1  Nkbl=1  erefs: 0.17977+309
L=2  Nkbl=1  erefs: 0.17977+309
L=3  Nkbl=1  erefs: 0.17977+309
===============================================================================
</basis_specs>

atom: Called for O                     (Z =   8)

read_vps: Pseudopotential generation method:
read_vps: ATM3      Troullier-Martins                       
Total valence charge:    6.00000

xc_check: Exchange-correlation functional:
xc_check: GGA Perdew, Burke & Ernzerhof 1996
xc_check: WARNING: Pseudopotential generated with Ceperley-Alder functional
V l=0 = -2*Zval/r beyond r=  1.1278
V l=1 = -2*Zval/r beyond r=  1.1278
V l=2 = -2*Zval/r beyond r=  1.1278
V l=3 = -2*Zval/r beyond r=  1.1138
All V_l potentials equal beyond r=  1.1278
This should be close to max(r_c) in ps generation
All pots = -2*Zval/r beyond r=  1.1278

VLOCAL1: 99.0% of the norm of Vloc inside     34.126 Ry
VLOCAL1: 99.9% of the norm of Vloc inside     77.774 Ry
atom: Maximum radius for 4*pi*r*r*local-pseudopot. charge    1.37759
atom: Maximum radius for r*vlocal+2*Zval:    1.18566
GHOST: No ghost state for L =  0
GHOST: No ghost state for L =  1
GHOST: No ghost state for L =  2
GHOST: No ghost state for L =  3

KBgen: Kleinman-Bylander projectors: 
   l= 0   rc=  1.294105   el= -1.764717   Ekb=  9.120606   kbcos=  0.329038
   l= 1   rc=  1.294105   el= -0.698441   Ekb= -8.119783   kbcos= -0.400859
   l= 2   rc=  1.448233   el=  0.002031   Ekb= -2.039067   kbcos= -0.003490
   l= 3   rc=  1.561052   el=  0.003153   Ekb= -0.799361   kbcos= -0.000345

KBgen: Total number of  Kleinman-Bylander projectors:   16
atom: -------------------------------------------------------------------------

atom: SANKEY-TYPE ORBITALS:
atom: Selected multiple-zeta basis: split     

SPLIT: Orbitals with angular momentum L= 0

SPLIT: Basis orbitals for state 2s

SPLIT: PAO cut-off radius determined from an
SPLIT: energy shift=  0.010000 Ry

   izeta = 1
                 lambda =    1.000000
                     rc =    3.562532
                 energy =   -1.755511
                kinetic =    1.600463
    potential(screened) =   -3.355974
       potential(ionic) =  -11.286134

   izeta = 2
                 rmatch =    2.510382
              splitnorm =    0.150000
                 energy =   -1.503288
                kinetic =    2.454016
    potential(screened) =   -3.957304
       potential(ionic) =  -12.483069

SPLIT: Orbitals with angular momentum L= 1

SPLIT: Basis orbitals for state 2p

SPLIT: PAO cut-off radius determined from an
SPLIT: energy shift=  0.010000 Ry

   izeta = 1
                 lambda =    1.000000
                     rc =    4.243912
                 energy =   -0.688662
                kinetic =    5.026374
    potential(screened) =   -5.715036
       potential(ionic) =  -13.477958

   izeta = 2
                 rmatch =    2.573941
              splitnorm =    0.150000
                 energy =   -0.419104
                kinetic =    7.468683
    potential(screened) =   -7.887787
       potential(ionic) =  -16.547632

POLgen: Perturbative polarization orbital with L=  2

POLgen: Polarization orbital for state 2p

   izeta = 1
                     rc =    4.243912
                 energy =    2.313152
                kinetic =    4.581177
    potential(screened) =   -2.268025
       potential(ionic) =   -8.473102
atom: Total number of Sankey-type orbitals: 13

atm_pop: Valence configuration (for local Pseudopot. screening):
 2s( 2.00)                                                            
 2p( 4.00)                                                            
Vna: chval, zval:    6.00000   6.00000

Vna:  Cut-off radius for the neutral-atom potential:   4.243912

atom: _________________________________________________________________________

<basis_specs>
===============================================================================
H                    Z=   1    Mass=  1.0100        Charge= 0.17977+309
Lmxo=0 Lmxkb=2     BasisType=split      Semic=F
L=0  Nsemic=0  Cnfigmx=1
          n=1  nzeta=2  polorb=1
            splnorm:   0.15000    
               vcte:    0.0000    
               rinn:    0.0000    
                rcs:    0.0000      0.0000    
            lambdas:    1.0000      1.0000    
-------------------------------------------------------------------------------
L=0  Nkbl=1  erefs: 0.17977+309
L=1  Nkbl=1  erefs: 0.17977+309
L=2  Nkbl=1  erefs: 0.17977+309
===============================================================================
</basis_specs>

atom: Called for H                     (Z =   1)

read_vps: Pseudopotential generation method:
read_vps: ATM3      Troullier-Martins                       
Total valence charge:    1.00000

xc_check: Exchange-correlation functional:
xc_check: GGA Perdew, Burke & Ernzerhof 1996
xc_check: WARNING: Pseudopotential generated with Ceperley-Alder functional
V l=0 = -2*Zval/r beyond r=  1.2343
V l=1 = -2*Zval/r beyond r=  1.2189
V l=2 = -2*Zval/r beyond r=  1.2189
All V_l potentials equal beyond r=  1.2343
This should be close to max(r_c) in ps generation
All pots = -2*Zval/r beyond r=  1.2343

VLOCAL1: 99.0% of the norm of Vloc inside     28.493 Ry
VLOCAL1: 99.9% of the norm of Vloc inside     64.935 Ry
atom: Maximum radius for 4*pi*r*r*local-pseudopot. charge    1.45251
atom: Maximum radius for r*vlocal+2*Zval:    1.21892
GHOST: No ghost state for L =  0
GHOST: No ghost state for L =  1
GHOST: No ghost state for L =  2

KBgen: Kleinman-Bylander projectors: 
   l= 0   rc=  1.364359   el= -0.488086   Ekb= -2.002077   kbcos= -0.347561
   l= 1   rc=  1.434438   el=  0.001075   Ekb= -0.501617   kbcos= -0.021754
   l= 2   rc=  1.470814   el=  0.002010   Ekb= -0.190607   kbcos= -0.002284

KBgen: Total number of  Kleinman-Bylander projectors:    9
atom: -------------------------------------------------------------------------

atom: SANKEY-TYPE ORBITALS:
atom: Selected multiple-zeta basis: split     

SPLIT: Orbitals with angular momentum L= 0

SPLIT: Basis orbitals for state 1s

SPLIT: PAO cut-off radius determined from an
SPLIT: energy shift=  0.010000 Ry

   izeta = 1
                 lambda =    1.000000
                     rc =    5.204501
                 energy =   -0.478113
                kinetic =    0.940144
    potential(screened) =   -1.418257
       potential(ionic) =   -1.931985

   izeta = 2
                 rmatch =    3.903467
              splitnorm =    0.150000
                 energy =   -0.372060
                kinetic =    1.517336
    potential(screened) =   -1.889395
       potential(ionic) =   -2.425474

POLgen: Perturbative polarization orbital with L=  1

POLgen: Polarization orbital for state 1s

   izeta = 1
                     rc =    5.204501
                 energy =    0.663382
                kinetic =    1.340502
    potential(screened) =   -0.677120
       potential(ionic) =   -1.151756
atom: Total number of Sankey-type orbitals:  5

atm_pop: Valence configuration (for local Pseudopot. screening):
 1s( 1.00)                                                            
Vna: chval, zval:    1.00000   1.00000

Vna:  Cut-off radius for the neutral-atom potential:   5.204501

atom: _________________________________________________________________________

prinput: Basis input ----------------------------------------------------------

PAO.BasisType split     

%block ChemicalSpeciesLabel
    1    8 O                       # Species index, atomic number, species label
    2    1 H                       # Species index, atomic number, species label
%endblock ChemicalSpeciesLabel

%block PAO.Basis                 # Define Basis set
O                     2                    # Species label, number of l-shells
 n=2   0   2                         # n, l, Nzeta 
   3.563      2.510   
   1.000      1.000   
 n=2   1   2 P   1                   # n, l, Nzeta, Polarization, NzetaPol
   4.244      2.574   
   1.000      1.000   
H                     1                    # Species label, number of l-shells
 n=1   0   2 P   1                   # n, l, Nzeta, Polarization, NzetaPol
   5.205      3.903   
   1.000      1.000   
%endblock PAO.Basis

prinput: ----------------------------------------------------------------------

Dumping basis to NetCDF file O.ion.nc
Dumping basis to NetCDF file H.ion.nc
coor:   Atomic-coordinates input format  =     Cartesian coordinates
coor:                                          (in Angstroms)
read_Zmatrix: Length units: Ang       
read_Zmatrix: Angle  units: deg       
read_Zmatrix: Force tolerances:
read_Zmatrix:    for lengths =     0.001556 Ry/Bohr
read_Zmatrix:    for angles  =     0.000421 Ry/rad

read_Zmatrix: Maximum displacements:
read_Zmatrix:    for lengths =     0.200000 Bohr
read_Zmatrix:    for angles  =     0.349066 rad
%block Zmatrix
molecule_cartesian
  1 0 0 0   0.0 0.0 0.0 0 0 0
  2 1 0 0   HO1 90.0 37.743919 1 0 0
  2 1 2 0   HO2 HOH 90.0 1 1 0
variables
    HO1 0.956997
    HO2 0.956997
    HOH 104.0
%endblock Zmatrix

zmatrix: Z-matrix coordinates: (Ang ; deg )
zmatrix: (Fractional coordinates have been converted to cartesian)
molecule    1 (     3 atoms)
      0.00000000      0.00000000      0.00000000
      0.95699700     90.00000000     37.74391900
      0.95699700    104.00000000     90.00000000


Z-matrix Symbol Section -------
Variables
 ho1         0.956997000000000     
 ho2         0.956997000000000     
 hoh          104.000000000000     
Constants
------------ End of Z-matrix Information


siesta: Atomic coordinates (Bohr) and species
siesta:      0.00000   0.00000   0.00000  1        1
siesta:      1.43005   1.10702   0.00000  2        2
siesta:     -1.42010   1.11976   0.00000  2        3

siesta: Automatic unit cell vectors (Ang):
siesta:    7.718081    0.000000    0.000000
siesta:    0.000000    6.151677    0.000000
siesta:    0.000000    0.000000    6.059025

siesta: System type = molecule  

initatomlists: Number of atoms, orbitals, and projectors:      3    23    34

siesta: ******************** Simulation parameters ****************************
siesta:
siesta: The following are some of the parameters of the simulation.
siesta: A complete list of the parameters used, including default values,
siesta: can be found in file out.fdf
siesta:
redata: Non-Collinear-spin run           =     F
redata: SpinPolarized (Up/Down) run      =     F
redata: Number of spin components        =     1
redata: Long output                      =     F
redata: Number of Atomic Species         =        2
redata: Charge density info will appear in .RHO file
redata: Write Mulliken Pop.              =     NO
redata: Mesh Cutoff                      =   120.0000  Ry
redata: Net charge of the system         =     0.0000 |e|
redata: Max. number of SCF Iter          =       50
redata: Performing Pulay mixing using    =     5 iterations
redata: Mix DM in first SCF step ?       =     F
redata: Write Pulay info on disk?        =     F
redata: New DM Mixing Weight             =     0.3000
redata: New DM Occupancy tolerance       = 0.000000000001
redata: No kicks to SCF
redata: DM Mixing Weight for Kicks       =     0.5000
redata: DM Tolerance for SCF             =     0.000100
redata: Require Energy convergence for SCF =     F
redata: DM Energy tolerance for SCF      =     0.000100 eV
redata: Require Harris convergence for SCF =     F
redata: DM Harris energy tolerance for SCF =     0.000100 eV
redata: Using Saved Data (generic)   =     F
redata: Use continuation files for DM    =     F
redata: Neglect nonoverlap interactions  =     F
redata: Method of Calculation            =     Diagonalization
redata: Divide and Conquer               =     T
redata: Electronic Temperature           =     0.0019  Ry
redata: Fix the spin of the system       =     F
redata: Dynamics option                  =     CG coord. optimization
redata: Variable cell                    =     F
redata: Use continuation files for CG    =     F
redata: Max atomic displ per move        =     0.2000  Bohr
redata: Maximum number of CG moves       =      200
redata: Force tolerance                  =     0.0016  Ry/Bohr
redata: ***********************************************************************
Total number of electrons:     8.000000
Total ionic charge:     8.000000

* ProcessorY, Blocksize:    2   6

 Kpoints in:            1 . Kpoints trimmed:            1

siesta: k-grid: Number of k-points =     1
siesta: k-grid: Cutoff (effective) =     3.030 Ang
siesta: k-grid: Supercell and displacements
siesta: k-grid:    1   0   0      0.000
siesta: k-grid:    0   1   0      0.000
siesta: k-grid:    0   0   1      0.000

* Maximum dynamic memory allocated =     2 MB

siesta:                 ==============================
                            Begin CG move =      0

zmatrix: Z-matrix coordinates: (Ang ; deg )
zmatrix: (Fractional coordinates have been converted to cartesian)
molecule    1 (     3 atoms)
      0.00000000      0.00000000      0.00000000
      0.95699700     90.00000000     37.74391900
      0.95699700    104.00000000     90.00000000


Z-matrix Symbol Section -------
Variables
 ho1         0.956997000000000     
 ho2         0.956997000000000     
 hoh          104.000000000000     
Constants
------------ End of Z-matrix Information

                        ==============================

outcell: Unit cell vectors (Ang):
        7.718081    0.000000    0.000000
        0.000000    6.151677    0.000000
        0.000000    0.000000    6.059025

outcell: Cell vector modules (Ang)   :    7.718081    6.151677    6.059025
outcell: Cell angles (23,13,12) (deg):     90.0000     90.0000     90.0000
outcell: Cell volume (Ang**3)        :    287.6773
New_DM. Step:     1
Initializing Density Matrix...

InitMesh: MESH =    54 x    48 x    40 =      103680
InitMesh: Mesh cutoff (required, used) =   120.000   120.453 Ry

* Maximum dynamic memory allocated =     4 MB

stepf: Fermi-Dirac step function

siesta: Program's energy decomposition (eV):
siesta: Eions   =       815.854478
siesta: Ena     =       174.498421
siesta: Ekin    =       342.686634
siesta: Enl     =       -53.683622
siesta: DEna    =        -0.000001
siesta: DUscf   =         0.000000
siesta: DUext   =         0.000000
siesta: Exc     =      -112.286040
siesta: eta*DQ  =         0.000000
siesta: Emadel  =         0.000000
siesta: Emeta   =         0.000000
siesta: Emolmec =         0.000000
siesta: Ekinion =         0.000000
siesta: Eharris =      -469.535112
siesta: Etot    =      -464.639087
siesta: FreeEng =      -464.639087

siesta: iscf   Eharris(eV)      E_KS(eV)   FreeEng(eV)   dDmax  Ef(eV)
siesta:    1     -469.5351     -464.6391     -464.6391  1.2069 -5.7875
timer: Routine,Calls,Time,% = IterSCF        1       6.262  76.36
elaps: Routine,Calls,Wall,% = IterSCF        1       1.569  76.02
siesta:    2     -470.5150     -467.7788     -467.7788  0.2683 -0.6880
siesta:    3     -468.7759     -467.8849     -467.8849  0.1017 -3.1630
siesta:    4     -468.7570     -468.3990     -468.3990  0.0136 -3.3152
siesta:    5     -468.7566     -468.5440     -468.5440  0.0053 -3.3323
siesta:    6     -468.7566     -468.7357     -468.7357  0.0008 -3.3079
siesta:    7     -468.7566     -468.7556     -468.7556  0.0002 -3.3088
siesta:    8     -468.7566     -468.7564     -468.7564  0.0001 -3.3117
siesta:    9     -468.7566     -468.7566     -468.7566  0.0000 -3.3116

siesta: E_KS(eV) =             -468.7566

siesta: E_KS - E_eggbox =      -468.7566

zmatrix: Atomic forces (eV/Ang ; eV/deg )
zmatrix: (No information if symbols are used)
molecule    1 (     3 atoms)
     1    0.000000    0.000000    0.000000
     2    0.000000    0.000000    0.000000
     3    0.000000    0.000000    0.000000


Variable forces (eV/Ang ; eV/deg )
 ho1         0.570014845606447     
 ho2         0.572513498157822     
 hoh         2.135312864579216E-003

siesta: Atomic forces (eV/Ang):
----------------------------------------
   Tot   -0.001952    0.093078    0.000000
----------------------------------------
   Max    0.528724
   Res    0.307820    sqrt( Sum f_i^2 / 3N )
----------------------------------------
   Max    0.528724    constrained

Stress-tensor-Voigt (kbar):       -4.36       -1.26       -0.49        0.01        0.00        0.00
(Free)E + p*V (eV/cell)     -468.3909
Target enthalpy (eV/cell)     -468.7566

* Maximum dynamic memory allocated =     4 MB

siesta:                 ==============================
                            Begin CG move =      1

zmatrix: Z-matrix coordinates: (Ang ; deg )
zmatrix: (Fractional coordinates have been converted to cartesian)
molecule    1 (     3 atoms)
      0.00000000      0.00000000      0.00000000
      1.06237050     90.00000000     37.74391900
      1.06283240    108.62753899     90.00000000


Z-matrix Symbol Section -------
Variables
 ho1          1.06237049666831     
 ho2          1.06283240000000     
 hoh          108.627538990134     
Constants
------------ End of Z-matrix Information

                        ==============================

outcell: Unit cell vectors (Ang):
        7.718081    0.000000    0.000000
        0.000000    6.151677    0.000000
        0.000000    0.000000    6.059025

outcell: Cell vector modules (Ang)   :    7.718081    6.151677    6.059025
outcell: Cell angles (23,13,12) (deg):     90.0000     90.0000     90.0000
outcell: Cell volume (Ang**3)        :    287.6773
New_DM. Step:     2
Re-using DM from previous geometry...
Re-using DM without extrapolation...
Density Matrix sparsity pattern changed.

siesta: iscf   Eharris(eV)      E_KS(eV)   FreeEng(eV)   dDmax  Ef(eV)
siesta:    1     -468.4152     -467.1388     -467.1388  0.1525 -2.8998
siesta:    2     -468.4328     -468.3462     -468.3462  0.0673 -3.5156
siesta:    3     -468.3797     -468.1885     -468.1885  0.0162 -3.1139
siesta:    4     -468.3794     -468.3495     -468.3495  0.0049 -3.0940
siesta:    5     -468.3792     -468.3708     -468.3708  0.0011 -3.1110
siesta:    6     -468.3792     -468.3761     -468.3761  0.0003 -3.1080
siesta:    7     -468.3792     -468.3788     -468.3788  0.0001 -3.1076

siesta: E_KS(eV) =             -468.3790

zmatrix: Atomic forces (eV/Ang ; eV/deg )
zmatrix: (No information if symbols are used)
molecule    1 (     3 atoms)
     1    0.000000    0.000000    0.000000
     2    0.000000    0.000000    0.000000
     3    0.000000    0.000000    0.000000


Variable forces (eV/Ang ; eV/deg )
 ho1         -3.41597389716831     
 ho2         -3.43951086310669     
 hoh        -9.162561971455182E-003

siesta: Atomic forces (eV/Ang):
----------------------------------------
   Tot    0.004113    0.103965    0.000001
----------------------------------------
   Max    3.293464
   Res    1.967953    sqrt( Sum f_i^2 / 3N )
----------------------------------------
   Max    3.293464    constrained

Stress-tensor-Voigt (kbar):       29.67       11.43       -0.51        0.62        0.00        0.00
(Free)E + p*V (eV/cell)     -470.8081
Target enthalpy (eV/cell)     -468.3790

* Maximum dynamic memory allocated =     4 MB

siesta:                 ==============================
                            Begin CG move =      2

zmatrix: Z-matrix coordinates: (Ang ; deg )
zmatrix: (Fractional coordinates have been converted to cartesian)
molecule    1 (     3 atoms)
      0.00000000      0.00000000      0.00000000
      0.97233319     90.00000000     37.74391900
      0.97240042    104.67349800     90.00000000


Z-matrix Symbol Section -------
Variables
 ho1         0.972333194867790     
 ho2         0.972400420875552     
 hoh          104.673498004289     
Constants
------------ End of Z-matrix Information

                        ==============================

outcell: Unit cell vectors (Ang):
        7.718081    0.000000    0.000000
        0.000000    6.151677    0.000000
        0.000000    0.000000    6.059025

outcell: Cell vector modules (Ang)   :    7.718081    6.151677    6.059025
outcell: Cell angles (23,13,12) (deg):     90.0000     90.0000     90.0000
outcell: Cell volume (Ang**3)        :    287.6773
New_DM. Step:     3
Re-using DM from previous geometry...
Extrapolating Density Matrix...

siesta: iscf   Eharris(eV)      E_KS(eV)   FreeEng(eV)   dDmax  Ef(eV)
siesta:    1     -468.9050     -470.4802     -470.4802  0.2824 -3.8564
siesta:    2     -469.0368     -468.5996     -468.5996  0.1224 -2.2862
siesta:    3     -468.7650     -468.9758     -468.9758  0.0305 -3.2125
siesta:    4     -468.7630     -468.7314     -468.7314  0.0077 -3.2795
siesta:    5     -468.7626     -468.7563     -468.7563  0.0014 -3.2621
siesta:    6     -468.7626     -468.7609     -468.7609  0.0007 -3.2533
siesta:    7     -468.7626     -468.7619     -468.7619  0.0001 -3.2566
siesta:    8     -468.7626     -468.7621     -468.7621  0.0001 -3.2568

siesta: E_KS(eV) =             -468.7625

zmatrix: Atomic forces (eV/Ang ; eV/deg )
zmatrix: (No information if symbols are used)
molecule    1 (     3 atoms)
     1    0.000000    0.000000    0.000000
     2    0.000000    0.000000    0.000000
     3    0.000000    0.000000    0.000000


Variable forces (eV/Ang ; eV/deg )
 ho1        -0.217753147762104     
 ho2        -0.221968096216872     
 hoh         2.248617269494338E-004

siesta: Atomic forces (eV/Ang):
----------------------------------------
   Tot    0.000281    0.096619   -0.000001
----------------------------------------
   Max    0.386199
   Res    0.165394    sqrt( Sum f_i^2 / 3N )
----------------------------------------
   Max    0.386199    constrained

Stress-tensor-Voigt (kbar):        1.46        1.35       -0.49       -0.01        0.00        0.00
(Free)E + p*V (eV/cell)     -468.9013
Target enthalpy (eV/cell)     -468.7625

cgvc_zmatrix: Finished line minimization    1.  Mean atomic displacement =    0.0247

* Maximum dynamic memory allocated =     4 MB

siesta:                 ==============================
                            Begin CG move =      3

zmatrix: Z-matrix coordinates: (Ang ; deg )
zmatrix: (Fractional coordinates have been converted to cartesian)
molecule    1 (     3 atoms)
      0.00000000      0.00000000      0.00000000
      0.98072402     90.00000000     37.74391900
      0.98036438    106.77669623     90.00000000


Z-matrix Symbol Section -------
Variables
 ho1         0.980724020433364     
 ho2         0.980364384885940     
 hoh          106.776696231652     
Constants
------------ End of Z-matrix Information

                        ==============================

outcell: Unit cell vectors (Ang):
        7.718081    0.000000    0.000000
        0.000000    6.151677    0.000000
        0.000000    0.000000    6.059025

outcell: Cell vector modules (Ang)   :    7.718081    6.151677    6.059025
outcell: Cell angles (23,13,12) (deg):     90.0000     90.0000     90.0000
outcell: Cell volume (Ang**3)        :    287.6773
New_DM. Step:     4
Re-using DM from previous geometry...
Extrapolating Density Matrix...

siesta: iscf   Eharris(eV)      E_KS(eV)   FreeEng(eV)   dDmax  Ef(eV)
siesta:    1     -468.7935     -467.7826     -467.7826  0.1595 -2.8852
siesta:    2     -468.8182     -468.7111     -468.7111  0.0642 -3.6349
siesta:    3     -468.7535     -468.5911     -468.5911  0.0145 -3.1896
siesta:    4     -468.7527     -468.7237     -468.7237  0.0033 -3.1432
siesta:    5     -468.7525     -468.7450     -468.7450  0.0009 -3.1601
siesta:    6     -468.7525     -468.7495     -468.7495  0.0003 -3.1578
siesta:    7     -468.7525     -468.7522     -468.7522  0.0001 -3.1567

siesta: E_KS(eV) =             -468.7524

zmatrix: Atomic forces (eV/Ang ; eV/deg )
zmatrix: (No information if symbols are used)
molecule    1 (     3 atoms)
     1    0.000000    0.000000    0.000000
     2    0.000000    0.000000    0.000000
     3    0.000000    0.000000    0.000000


Variable forces (eV/Ang ; eV/deg )
 ho1        -0.670732836565584     
 ho2        -0.653962026253829     
 hoh        -2.853777325252137E-003

siesta: Atomic forces (eV/Ang):
----------------------------------------
   Tot   -0.001809    0.097615    0.000001
----------------------------------------
   Max    0.633502
   Res    0.382475    sqrt( Sum f_i^2 / 3N )
----------------------------------------
   Max    0.633502    constrained

Stress-tensor-Voigt (kbar):        5.57        2.08       -0.49        0.12        0.00        0.00
(Free)E + p*V (eV/cell)     -469.1803
Target enthalpy (eV/cell)     -468.7524

* Maximum dynamic memory allocated =     4 MB

siesta:                 ==============================
                            Begin CG move =      4

zmatrix: Z-matrix coordinates: (Ang ; deg )
zmatrix: (Fractional coordinates have been converted to cartesian)
molecule    1 (     3 atoms)
      0.00000000      0.00000000      0.00000000
      0.97042336     90.00000000     37.74391900
      0.97058775    104.19479042     90.00000000


Z-matrix Symbol Section -------
Variables
 ho1         0.970423364503669     
 ho2         0.970587748193115     
 hoh          104.194790420036     
Constants
------------ End of Z-matrix Information

                        ==============================

outcell: Unit cell vectors (Ang):
        7.718081    0.000000    0.000000
        0.000000    6.151677    0.000000
        0.000000    0.000000    6.059025

outcell: Cell vector modules (Ang)   :    7.718081    6.151677    6.059025
outcell: Cell angles (23,13,12) (deg):     90.0000     90.0000     90.0000
outcell: Cell volume (Ang**3)        :    287.6773
New_DM. Step:     5
Re-using DM from previous geometry...
Extrapolating Density Matrix...
Density Matrix sparsity pattern changed.

siesta: iscf   Eharris(eV)      E_KS(eV)   FreeEng(eV)   dDmax  Ef(eV)
siesta:    1     -468.7679     -468.9547     -468.9547  0.0613 -3.2755
siesta:    2     -468.7638     -468.7613     -468.7613  0.0049 -3.2810
siesta:    3     -468.7631     -468.7702     -468.7702  0.0028 -3.2882
siesta:    4     -468.7629     -468.7640     -468.7640  0.0009 -3.2844
siesta:    5     -468.7629     -468.7632     -468.7632  0.0004 -3.2807
siesta:    6     -468.7629     -468.7630     -468.7630  0.0000 -3.2816

siesta: E_KS(eV) =             -468.7629

zmatrix: Atomic forces (eV/Ang ; eV/deg )
zmatrix: (No information if symbols are used)
molecule    1 (     3 atoms)
     1    0.000000    0.000000    0.000000
     2    0.000000    0.000000    0.000000
     3    0.000000    0.000000    0.000000


Variable forces (eV/Ang ; eV/deg )
 ho1        -0.111027229209363     
 ho2        -0.118926970515939     
 hoh         9.549120267984299E-004

siesta: Atomic forces (eV/Ang):
----------------------------------------
   Tot   -0.000614    0.097091    0.000002
----------------------------------------
   Max    0.327305
   Res    0.124717    sqrt( Sum f_i^2 / 3N )
----------------------------------------
   Max    0.327305    constrained

Stress-tensor-Voigt (kbar):        0.53        1.16       -0.49       -0.02        0.00        0.00
(Free)E + p*V (eV/cell)     -468.8345
Target enthalpy (eV/cell)     -468.7629

cgvc_zmatrix: Finished line minimization    2.  Mean atomic displacement =    0.0056

* Maximum dynamic memory allocated =     4 MB

siesta:                 ==============================
                            Begin CG move =      5

zmatrix: Z-matrix coordinates: (Ang ; deg )
zmatrix: (Fractional coordinates have been converted to cartesian)
molecule    1 (     3 atoms)
      0.00000000      0.00000000      0.00000000
      0.96721788     90.00000000     37.74391900
      0.96718550    104.42778130     90.00000000


Z-matrix Symbol Section -------
Variables
 ho1         0.967217875662863     
 ho2         0.967185502291097     
 hoh          104.427781304988     
Constants
------------ End of Z-matrix Information

                        ==============================

outcell: Unit cell vectors (Ang):
        7.718081    0.000000    0.000000
        0.000000    6.151677    0.000000
        0.000000    0.000000    6.059025

outcell: Cell vector modules (Ang)   :    7.718081    6.151677    6.059025
outcell: Cell angles (23,13,12) (deg):     90.0000     90.0000     90.0000
outcell: Cell volume (Ang**3)        :    287.6773
New_DM. Step:     6
Re-using DM from previous geometry...
Extrapolating Density Matrix...

siesta: iscf   Eharris(eV)      E_KS(eV)   FreeEng(eV)   dDmax  Ef(eV)
siesta:    1     -468.7650     -468.6910     -468.6910  0.0318 -3.2929
siesta:    2     -468.7637     -468.7629     -468.7629  0.0031 -3.2543
siesta:    3     -468.7634     -468.7601     -468.7601  0.0014 -3.2692
siesta:    4     -468.7634     -468.7626     -468.7626  0.0005 -3.2757
siesta:    5     -468.7634     -468.7633     -468.7633  0.0002 -3.2756
siesta:    6     -468.7634     -468.7634     -468.7634  0.0000 -3.2756

siesta: E_KS(eV) =             -468.7634

zmatrix: Atomic forces (eV/Ang ; eV/deg )
zmatrix: (No information if symbols are used)
molecule    1 (     3 atoms)
     1    0.000000    0.000000    0.000000
     2    0.000000    0.000000    0.000000
     3    0.000000    0.000000    0.000000


Variable forces (eV/Ang ; eV/deg )
 ho1         3.715179403396420E-002
 ho2         3.960012346210109E-002
 hoh         8.780997864133705E-004

siesta: Atomic forces (eV/Ang):
----------------------------------------
   Tot   -0.000217    0.095720   -0.000001
----------------------------------------
   Max    0.130995
   Res    0.053264    sqrt( Sum f_i^2 / 3N )
----------------------------------------
   Max    0.130995    constrained

Stress-tensor-Voigt (kbar):       -0.48        0.50       -0.49        0.01        0.00        0.00
(Free)E + p*V (eV/cell)     -468.7358
Target enthalpy (eV/cell)     -468.7634

* Maximum dynamic memory allocated =     4 MB

siesta:                 ==============================
                            Begin CG move =      6

zmatrix: Z-matrix coordinates: (Ang ; deg )
zmatrix: (Fractional coordinates have been converted to cartesian)
molecule    1 (     3 atoms)
      0.00000000      0.00000000      0.00000000
      0.96737075     90.00000000     37.74391900
      0.96734776    104.41666936     90.00000000


Z-matrix Symbol Section -------
Variables
 ho1         0.967370753749388     
 ho2         0.967347764232791     
 hoh          104.416669364677     
Constants
------------ End of Z-matrix Information

                        ==============================

outcell: Unit cell vectors (Ang):
        7.718081    0.000000    0.000000
        0.000000    6.151677    0.000000
        0.000000    0.000000    6.059025

outcell: Cell vector modules (Ang)   :    7.718081    6.151677    6.059025
outcell: Cell angles (23,13,12) (deg):     90.0000     90.0000     90.0000
outcell: Cell volume (Ang**3)        :    287.6773
New_DM. Step:     7
Re-using DM from previous geometry...
Extrapolating Density Matrix...

siesta: iscf   Eharris(eV)      E_KS(eV)   FreeEng(eV)   dDmax  Ef(eV)
siesta:    1     -468.7635     -468.7244     -468.7244  0.0061 -3.2610
siesta:    2     -468.7635     -468.7633     -468.7633  0.0030 -3.2989
siesta:    3     -468.7634     -468.7561     -468.7561  0.0008 -3.2774
siesta:    4     -468.7634     -468.7630     -468.7630  0.0001 -3.2755
siesta:    5     -468.7634     -468.7633     -468.7633  0.0000 -3.2758

siesta: E_KS(eV) =             -468.7634

zmatrix: Atomic forces (eV/Ang ; eV/deg )
zmatrix: (No information if symbols are used)
molecule    1 (     3 atoms)
     1    0.000000    0.000000    0.000000
     2    0.000000    0.000000    0.000000
     3    0.000000    0.000000    0.000000


Variable forces (eV/Ang ; eV/deg )
 ho1         3.005614513587868E-002
 ho2         3.177626657365425E-002
 hoh         8.825140736589466E-004

siesta: Atomic forces (eV/Ang):
----------------------------------------
   Tot   -0.000224    0.095777   -0.000004
----------------------------------------
   Max    0.140478
   Res    0.054884    sqrt( Sum f_i^2 / 3N )
----------------------------------------
   Max    0.140478    constrained

Stress-tensor-Voigt (kbar):       -0.43        0.54       -0.49        0.00        0.00        0.00
(Free)E + p*V (eV/cell)     -468.7406
Target enthalpy (eV/cell)     -468.7634

cgvc_zmatrix: Finished line minimization    3.  Mean atomic displacement =    0.0053

* Maximum dynamic memory allocated =     4 MB

siesta:                 ==============================
                            Begin CG move =      7

zmatrix: Z-matrix coordinates: (Ang ; deg )
zmatrix: (Fractional coordinates have been converted to cartesian)
molecule    1 (     3 atoms)
      0.00000000      0.00000000      0.00000000
      0.96750711     90.00000000     37.74391900
      0.96748711    104.94684786     90.00000000


Z-matrix Symbol Section -------
Variables
 ho1         0.967507110358796     
 ho2         0.967487113001514     
 hoh          104.946847858660     
Constants
------------ End of Z-matrix Information

                        ==============================

outcell: Unit cell vectors (Ang):
        7.718081    0.000000    0.000000
        0.000000    6.151677    0.000000
        0.000000    0.000000    6.059025

outcell: Cell vector modules (Ang)   :    7.718081    6.151677    6.059025
outcell: Cell angles (23,13,12) (deg):     90.0000     90.0000     90.0000
outcell: Cell volume (Ang**3)        :    287.6773
New_DM. Step:     8
Re-using DM from previous geometry...
Extrapolating Density Matrix...
Density Matrix sparsity pattern changed.

siesta: iscf   Eharris(eV)      E_KS(eV)   FreeEng(eV)   dDmax  Ef(eV)
siesta:    1     -468.7637     -468.7633     -468.7633  0.0051 -3.2595
siesta:    2     -468.7637     -468.7637     -468.7637  0.0014 -3.2398
siesta:    3     -468.7637     -468.7636     -468.7636  0.0005 -3.2495
siesta:    4     -468.7637     -468.7637     -468.7637  0.0001 -3.2512
siesta:    5     -468.7637     -468.7637     -468.7637  0.0000 -3.2514

siesta: E_KS(eV) =             -468.7637

zmatrix: Atomic forces (eV/Ang ; eV/deg )
zmatrix: (No information if symbols are used)
molecule    1 (     3 atoms)
     1    0.000000    0.000000    0.000000
     2    0.000000    0.000000    0.000000
     3    0.000000    0.000000    0.000000


Variable forces (eV/Ang ; eV/deg )
 ho1         7.046181898589041E-003
 ho2         6.263594231080873E-003
 hoh         1.968078058153007E-004

siesta: Atomic forces (eV/Ang):
----------------------------------------
   Tot    0.000983    0.095023    0.000002
----------------------------------------
   Max    0.105454
   Res    0.035719    sqrt( Sum f_i^2 / 3N )
----------------------------------------
   Max    0.105454    constrained

Stress-tensor-Voigt (kbar):       -0.06        0.42       -0.49        0.00        0.00        0.00
(Free)E + p*V (eV/cell)     -468.7558
Target enthalpy (eV/cell)     -468.7637

* Maximum dynamic memory allocated =     4 MB

siesta:                 ==============================
                            Begin CG move =      8

zmatrix: Z-matrix coordinates: (Ang ; deg )
zmatrix: (Fractional coordinates have been converted to cartesian)
molecule    1 (     3 atoms)
      0.00000000      0.00000000      0.00000000
      0.96772528     90.00000000     37.74391900
      0.96771007    105.79513345     90.00000000


Z-matrix Symbol Section -------
Variables
 ho1         0.967725280933849     
 ho2         0.967710071031472     
 hoh          105.795133449035     
Constants
------------ End of Z-matrix Information

                        ==============================

outcell: Unit cell vectors (Ang):
        7.718081    0.000000    0.000000
        0.000000    6.151677    0.000000
        0.000000    0.000000    6.059025

outcell: Cell vector modules (Ang)   :    7.718081    6.151677    6.059025
outcell: Cell angles (23,13,12) (deg):     90.0000     90.0000     90.0000
outcell: Cell volume (Ang**3)        :    287.6773
New_DM. Step:     9
Re-using DM from previous geometry...
Extrapolating Density Matrix...

siesta: iscf   Eharris(eV)      E_KS(eV)   FreeEng(eV)   dDmax  Ef(eV)
siesta:    1     -468.7634     -468.7630     -468.7630  0.0029 -3.2186
siesta:    2     -468.7634     -468.7634     -468.7634  0.0007 -3.2083
siesta:    3     -468.7634     -468.7633     -468.7633  0.0003 -3.2133
siesta:    4     -468.7634     -468.7634     -468.7634  0.0001 -3.2143

siesta: E_KS(eV) =             -468.7634

zmatrix: Atomic forces (eV/Ang ; eV/deg )
zmatrix: (No information if symbols are used)
molecule    1 (     3 atoms)
     1    0.000000    0.000000    0.000000
     2    0.000000    0.000000    0.000000
     3    0.000000    0.000000    0.000000


Variable forces (eV/Ang ; eV/deg )
 ho1        -3.000745394996339E-002
 ho2        -3.223940465144944E-002
 hoh        -8.847007338216526E-004

siesta: Atomic forces (eV/Ang):
----------------------------------------
   Tot    0.001938    0.094805    0.000001
----------------------------------------
   Max    0.057058
   Res    0.032986    sqrt( Sum f_i^2 / 3N )
----------------------------------------
   Max    0.057058    constrained

Stress-tensor-Voigt (kbar):        0.52        0.23       -0.49        0.01        0.00        0.00
(Free)E + p*V (eV/cell)     -468.7790
Target enthalpy (eV/cell)     -468.7634

* Maximum dynamic memory allocated =     4 MB

siesta:                 ==============================
                            Begin CG move =      9

zmatrix: Z-matrix coordinates: (Ang ; deg )
zmatrix: (Fractional coordinates have been converted to cartesian)
molecule    1 (     3 atoms)
      0.00000000      0.00000000      0.00000000
      0.96754679     90.00000000     37.74391900
      0.96752766    105.10112452     90.00000000


Z-matrix Symbol Section -------
Variables
 ho1         0.967546788773032     
 ho2         0.967527662104288     
 hoh          105.101124515984     
Constants
------------ End of Z-matrix Information

                        ==============================

outcell: Unit cell vectors (Ang):
        7.718081    0.000000    0.000000
        0.000000    6.151677    0.000000
        0.000000    0.000000    6.059025

outcell: Cell vector modules (Ang)   :    7.718081    6.151677    6.059025
outcell: Cell angles (23,13,12) (deg):     90.0000     90.0000     90.0000
outcell: Cell volume (Ang**3)        :    287.6773
New_DM. Step:    10
Re-using DM from previous geometry...
Extrapolating Density Matrix...

siesta: iscf   Eharris(eV)      E_KS(eV)   FreeEng(eV)   dDmax  Ef(eV)
siesta:    1     -468.7642     -468.7676     -468.7676  0.0142 -3.2232
siesta:    2     -468.7639     -468.7635     -468.7635  0.0036 -3.2746
siesta:    3     -468.7637     -468.7639     -468.7639  0.0013 -3.2495
siesta:    4     -468.7637     -468.7637     -468.7637  0.0004 -3.2448
siesta:    5     -468.7637     -468.7637     -468.7637  0.0001 -3.2443
siesta:    6     -468.7637     -468.7637     -468.7637  0.0000 -3.2444

siesta: E_KS(eV) =             -468.7637

zmatrix: Atomic forces (eV/Ang ; eV/deg )
zmatrix: (No information if symbols are used)
molecule    1 (     3 atoms)
     1    0.000000    0.000000    0.000000
     2    0.000000    0.000000    0.000000
     3    0.000000    0.000000    0.000000


Variable forces (eV/Ang ; eV/deg )
 ho1         1.890271624223395E-004
 ho2        -9.998725072834142E-004
 hoh        -1.285244080370371E-006

siesta: Atomic forces (eV/Ang):
----------------------------------------
   Tot    0.001230    0.094877    0.000001
----------------------------------------
   Max    0.095301
   Res    0.031769    sqrt( Sum f_i^2 / 3N )
----------------------------------------
   Max    0.095301    constrained

Stress-tensor-Voigt (kbar):        0.05        0.38       -0.49        0.00        0.00        0.00
(Free)E + p*V (eV/cell)     -468.7602
Target enthalpy (eV/cell)     -468.7637

* Maximum dynamic memory allocated =     4 MB

outcoor: Relaxed atomic coordinates (Ang):                  
    0.00000000    0.00000000    0.00000000   1       1  O
    0.76509202    0.59226766    0.00000000   2       2  H
   -0.77112437    0.58436032    0.00000000   2       3  H

zmatrix: Z-matrix coordinates: (Ang ; deg )
zmatrix: (Fractional coordinates have been converted to cartesian)
molecule    1 (     3 atoms)
      0.00000000      0.00000000      0.00000000
      0.96754679     90.00000000     37.74391900
      0.96752766    105.10112452     90.00000000


Z-matrix Symbol Section -------
Variables
 ho1         0.967546788773032     
 ho2         0.967527662104288     
 hoh          105.101124515984     
Constants
------------ End of Z-matrix Information


siesta: Program's energy decomposition (eV):
siesta: Eions   =       815.854478
siesta: Ena     =       174.417291
siesta: Ekin    =       354.155002
siesta: Enl     =       -63.216545
siesta: DEna    =        -3.444643
siesta: DUscf   =         0.815636
siesta: DUext   =         0.000000
siesta: Exc     =      -115.635965
siesta: eta*DQ  =         0.000000
siesta: Emadel  =         0.000000
siesta: Emeta   =         0.000000
siesta: Emolmec =         0.000000
siesta: Ekinion =         0.000000
siesta: Eharris =      -468.763697
siesta: Etot    =      -468.763703
siesta: FreeEng =      -468.763703

siesta: Final energy (eV):
siesta:       Kinetic =     354.155002
siesta:       Hartree =     396.071889
siesta:    Ext. field =       0.000000
siesta:   Exch.-corr. =    -115.635965
siesta:  Ion-electron =   -1101.824638
siesta:       Ion-ion =      -1.529992
siesta:       Ekinion =       0.000000
siesta:         Total =    -468.763703

siesta: Atomic forces (eV/Ang):
siesta:      1    0.000240    0.095301    0.000001
siesta:      2    0.000147    0.000119    0.000000
siesta:      3    0.000843   -0.000543    0.000000
siesta: ----------------------------------------
siesta:    Tot    0.001230    0.094877    0.000001

siesta: Stress tensor (static) (eV/Ang**3):
siesta:     0.000030    0.000001    0.000000
siesta:     0.000000    0.000239    0.000000
siesta:     0.000000    0.000000   -0.000306

siesta: Cell volume =        287.677305 Ang**3

siesta: Pressure (static):
siesta:                Solid            Molecule  Units
siesta:           0.00000013          0.00000061  Ry/Bohr**3
siesta:           0.00001222          0.00005624  eV/Ang**3
siesta:           0.01957250          0.09010642  kBar
(Free)E+ p_basis*V_orbitals  =        -468.055656
(Free)Eharris+ p_basis*V_orbitals  =        -468.055659

siesta: Electric dipole (a.u.)  =   -0.002949    0.588798    0.000000
siesta: Electric dipole (Debye) =   -0.007496    1.496576    0.000000

* Maximum dynamic memory allocated : Node    0 =     4 MB
* Maximum dynamic memory allocated : Node    1 =     4 MB
* Maximum dynamic memory allocated : Node    2 =     4 MB
* Maximum dynamic memory allocated : Node    3 =     4 MB

* Maximum memory occured during ranger                        

timer: CPU execution times:
timer:  Routine       Calls   Time/call    Tot.time        %
timer:  siesta            1      40.519      40.519   100.00
timer:  Setup             1       1.073       1.073     2.65
timer:  bands             1       0.000       0.000     0.00
timer:  writewave         1       0.004       0.004     0.01
timer:  KSV_init          1       0.000       0.000     0.00
timer:  IterMD           10       3.941      39.405    97.25
timer:  hsparse          10       0.000       0.004     0.01
timer:  overlap          10       0.058       0.581     1.43
timer:  IterSCF          63       0.515      32.451    80.09
timer:  kinefsm          20       0.025       0.503     1.24
timer:  nlefsm           20       0.237       4.742    11.70
timer:  DHSCF            73       0.427      31.191    76.98
timer:  DHSCF1            1       0.185       0.185     0.46
timer:  DHSCF2           10       0.204       2.038     5.03
timer:  REORD           604       0.000       0.107     0.26
timer:  POISON           83       0.033       2.728     6.73
timer:  DHSCF3           73       0.375      27.391    67.60
timer:  rhoofd           73       0.026       1.924     4.75
timer:  cellXC           73       0.274      20.002    49.36
timer:  vmat             73       0.026       1.927     4.76
timer:  MolMec           20       0.000       0.001     0.00
timer:  diagon           63       0.008       0.532     1.31
timer:  r-eigvec         63       0.008       0.523     1.29
timer:  r-buildHS        63       0.000       0.000     0.00
timer:  rdiag            63       0.008       0.523     1.29
timer:  rdiag1           63       0.001       0.050     0.12
timer:  rdiag2           63       0.001       0.036     0.09
timer:  rdiag3           63       0.006       0.383     0.95
timer:  rdiag4           63       0.000       0.027     0.07
timer:  r-buildD         63       0.000       0.001     0.00
timer:  DHSCF4           10       0.155       1.555     3.84
timer:  dfscf            10       0.134       1.344     3.32
timer:  overfsm          10       0.000       0.004     0.01
timer:  optical           1       0.033       0.033     0.08
  

elaps: ELAPSED times:
elaps:  Routine       Calls   Time/call    Tot.time        %
elaps:  siesta            1      10.170      10.170    99.96
elaps:  Setup             1       0.277       0.277     2.72
elaps:  bands             1       0.000       0.000     0.00
elaps:  writewave         1       0.001       0.001     0.00
elaps:  KSV_init          1       0.000       0.000     0.00
elaps:  IterMD           10       0.988       9.881    97.12
elaps:  hsparse          10       0.000       0.002     0.02
elaps:  overlap          10       0.012       0.119     1.17
elaps:  IterSCF          63       0.129       8.122    79.84
elaps:  kinefsm          20       0.005       0.100     0.98
elaps:  nlefsm           20       0.060       1.203    11.82
elaps:  DHSCF            73       0.108       7.889    77.55
elaps:  DHSCF1            1       0.044       0.044     0.43
elaps:  DHSCF2           10       0.051       0.514     5.05
elaps:  REORD           604       0.000       0.034     0.33
elaps:  POISON           83       0.008       0.692     6.80
elaps:  DHSCF3           73       0.094       6.850    67.33
elaps:  rhoofd           73       0.008       0.590     5.80
elaps:  cellXC           73       0.068       4.996    49.11
elaps:  vmat             73       0.007       0.477     4.69
elaps:  MolMec           20       0.000       0.000     0.00
elaps:  diagon           63       0.002       0.131     1.29
elaps:  r-eigvec         63       0.002       0.129     1.27
elaps:  r-buildHS        63       0.000       0.000     0.00
elaps:  rdiag            63       0.002       0.129     1.27
elaps:  rdiag1           63       0.000       0.011     0.11
elaps:  rdiag2           63       0.000       0.012     0.12
elaps:  rdiag3           63       0.002       0.096     0.94
elaps:  rdiag4           63       0.000       0.005     0.05
elaps:  r-buildD         63       0.000       0.000     0.00
elaps:  DHSCF4           10       0.048       0.477     4.69
elaps:  dfscf            10       0.040       0.404     3.97
elaps:  overfsm          10       0.000       0.002     0.02
elaps:  optical           1       0.000       0.000     0.00
  
>> End of run:  29-SEP-2009  17:19:55
