Siesta Version: siesta@uam.es--2006/siesta-devel--reference--2.1--patch-34
Architecture  : intel9 with Siesta libs
Compiler flags: ifort -w -O2 -mp
SERIAL version

* Running in serial mode
>> Start of run:  25-JAN-2007  17:59:35

                           ***********************       
                           *  WELCOME TO SIESTA  *       
                           ***********************       

reinit: Reading from standard input
************************** Dump of input data file ****************************
SystemName h2oZ
SystemLabel h2oZ
NumberOfSpecies 2
NumberOfAtoms   3
%block ChemicalSpeciesLabel
1    8 O
2    1 H
%endblock ChemicalSpeciesLabel
AtomicCoordinatesFormat NotScaledCartesianAng
ZM.ForceTolLen 0.04 eV/Ang
ZM.ForceTolAng 0.0001 eV/deg
ZM.MaxDisplLen 0.1 Ang
ZM.MaxDisplAng 20.0 deg
%block Zmatrix
molecule_cartesian
  1 0 0 0   0.0 0.0 0.0 0 0 0
  2 1 0 0   HO1 90.0 37.743919 1 0 0
  2 1 2 0   HO2 HOH 90.0 1 1 0
variables
    HO1 0.956997
    HO2 0.956997
    HOH 104.0
%endblock Zmatrix
ZM.UnitsLength Ang
ZM.UnitsAngle deg
xc.functional GGA
xc.authors PBE
MD.TypeOfRun CG
MD.NumCGsteps 200
MeshCutoff 120 Ry
PAO.EnergyShift 0.01 Ry
DM.NumberPulay 5
DM.MixingWeight 0.3
************************** End of input data file *****************************

reinit: -----------------------------------------------------------------------
reinit: System Name: h2oZ                                                       
reinit: -----------------------------------------------------------------------
reinit: System Label: h2oZ                                                        
reinit: -----------------------------------------------------------------------

initatom: Reading input for the pseudopotentials and atomic orbitals ----------
 Species number:            1  Label: O Atomic number:           8
 Species number:            2  Label: H Atomic number:           1
Ground state valence configuration:   2s02  2p04
Reading pseudopotential information in formatted form from O.psf

Valence configuration for pseudopotential generation:
2s( 2.00) rc: 1.14
2p( 4.00) rc: 1.14
3d( 0.00) rc: 1.14
4f( 0.00) rc: 1.14
Dumping pseudopotential information in formatted form in O.psdump
Ground state valence configuration:   1s01
Reading pseudopotential information in formatted form from H.psf

Valence configuration for pseudopotential generation:
1s( 1.00) rc: 1.25
2p( 0.00) rc: 1.25
3d( 0.00) rc: 1.25
4f( 0.00) rc: 1.25
Dumping pseudopotential information in formatted form in H.psdump
For O, standard SIESTA heuristics set lmxkb to 3
 (one more than the basis l, including polarization orbitals).
Use PS.lmax or PS.KBprojectors blocks to override.
For H, standard SIESTA heuristics set lmxkb to 2
 (one more than the basis l, including polarization orbitals).
Use PS.lmax or PS.KBprojectors blocks to override.

<basis_specs>
===============================================================================
O                    Z=   8    Mass=  16.000        Charge= 0.17977+309
Lmxo=1 Lmxkb=3     BasisType=split      Semic=F
L=0  Nsemic=0  Cnfigmx=2
          n=1  nzeta=2  polorb=0
            splnorm:   0.15000    
               vcte:    0.0000    
               rinn:    0.0000    
                rcs:    0.0000      0.0000    
            lambdas:    1.0000      1.0000    
L=1  Nsemic=0  Cnfigmx=2
          n=1  nzeta=2  polorb=1
            splnorm:   0.15000    
               vcte:    0.0000    
               rinn:    0.0000    
                rcs:    0.0000      0.0000    
            lambdas:    1.0000      1.0000    
-------------------------------------------------------------------------------
L=0  Nkbl=1  erefs: 0.17977+309
L=1  Nkbl=1  erefs: 0.17977+309
L=2  Nkbl=1  erefs: 0.17977+309
L=3  Nkbl=1  erefs: 0.17977+309
===============================================================================
</basis_specs>

atom: Called for O                     (Z =   8)

read_vps: Pseudopotential generation method:
read_vps: ATM3      Troullier-Martins                       
Total valence charge:    6.00000

xc_check: Exchange-correlation functional:
xc_check: GGA Perdew, Burke & Ernzerhof 1996
xc_check: WARNING: Pseudopotential generated with Ceperley-Alder functional
V l=0 = -2*Zval/r beyond r=  1.1278
V l=1 = -2*Zval/r beyond r=  1.1278
V l=2 = -2*Zval/r beyond r=  1.1278
V l=3 = -2*Zval/r beyond r=  1.1138
All V_l potentials equal beyond r=  1.1278
This should be close to max(r_c) in ps generation
All pots = -2*Zval/r beyond r=  1.1278

VLOCAL1: 99.0% of the norm of Vloc inside     34.126 Ry
VLOCAL1: 99.9% of the norm of Vloc inside     77.774 Ry
atom: Maximum radius for 4*pi*r*r*local-pseudopot. charge    1.37759
atom: Maximum radius for r*vlocal+2*Zval:    1.18566
GHOST: No ghost state for L =  0
GHOST: No ghost state for L =  1
GHOST: No ghost state for L =  2
GHOST: No ghost state for L =  3

KBgen: Kleinman-Bylander projectors: 
   l= 0   rc=  1.294105   el= -1.764717   Ekb=  9.120606   kbcos=  0.329038
   l= 1   rc=  1.294105   el= -0.698441   Ekb= -8.119783   kbcos= -0.400859
   l= 2   rc=  1.448233   el=  0.002031   Ekb= -2.039067   kbcos= -0.003490
   l= 3   rc=  1.561052   el=  0.003153   Ekb= -0.799361   kbcos= -0.000345

KBgen: Total number of  Kleinman-Bylander projectors:   16
atom: -------------------------------------------------------------------------

atom: SANKEY-TYPE ORBITALS:
atom: Selected multiple-zeta basis: split     

SPLIT: Orbitals with angular momentum L= 0

SPLIT: Basis orbitals for state 2s

SPLIT: PAO cut-off radius determined from an
SPLIT: energy shift=  0.010000 Ry

   izeta = 1
                 lambda =    1.000000
                     rc =    3.562532
                 energy =   -1.755511
                kinetic =    1.600463
    potential(screened) =   -3.355974
       potential(ionic) =  -11.286134

   izeta = 2
                 rmatch =    2.510382
              splitnorm =    0.150000
                 energy =   -1.503288
                kinetic =    2.454016
    potential(screened) =   -3.957304
       potential(ionic) =  -12.483069

SPLIT: Orbitals with angular momentum L= 1

SPLIT: Basis orbitals for state 2p

SPLIT: PAO cut-off radius determined from an
SPLIT: energy shift=  0.010000 Ry

   izeta = 1
                 lambda =    1.000000
                     rc =    4.243912
                 energy =   -0.688662
                kinetic =    5.026374
    potential(screened) =   -5.715036
       potential(ionic) =  -13.477958

   izeta = 2
                 rmatch =    2.573941
              splitnorm =    0.150000
                 energy =   -0.419104
                kinetic =    7.468683
    potential(screened) =   -7.887787
       potential(ionic) =  -16.547632

POLgen: Perturbative polarization orbital with L=  2

POLgen: Polarization orbital for state 2p

   izeta = 1
                     rc =    4.243912
                 energy =    2.313152
                kinetic =    4.581177
    potential(screened) =   -2.268025
       potential(ionic) =   -8.473102
atom: Total number of Sankey-type orbitals: 13

atm_pop: Valence configuration (for local Pseudopot. screening):
 2s( 2.00)                                                            
 2p( 4.00)                                                            
Vna: chval, zval:    6.00000   6.00000

Vna:  Cut-off radius for the neutral-atom potential:   4.243912

atom: _________________________________________________________________________

<basis_specs>
===============================================================================
H                    Z=   1    Mass=  1.0100        Charge= 0.17977+309
Lmxo=0 Lmxkb=2     BasisType=split      Semic=F
L=0  Nsemic=0  Cnfigmx=1
          n=1  nzeta=2  polorb=1
            splnorm:   0.15000    
               vcte:    0.0000    
               rinn:    0.0000    
                rcs:    0.0000      0.0000    
            lambdas:    1.0000      1.0000    
-------------------------------------------------------------------------------
L=0  Nkbl=1  erefs: 0.17977+309
L=1  Nkbl=1  erefs: 0.17977+309
L=2  Nkbl=1  erefs: 0.17977+309
===============================================================================
</basis_specs>

atom: Called for H                     (Z =   1)

read_vps: Pseudopotential generation method:
read_vps: ATM3      Troullier-Martins                       
Total valence charge:    1.00000

xc_check: Exchange-correlation functional:
xc_check: GGA Perdew, Burke & Ernzerhof 1996
xc_check: WARNING: Pseudopotential generated with Ceperley-Alder functional
V l=0 = -2*Zval/r beyond r=  1.2343
V l=1 = -2*Zval/r beyond r=  1.2189
V l=2 = -2*Zval/r beyond r=  1.2189
All V_l potentials equal beyond r=  1.2343
This should be close to max(r_c) in ps generation
All pots = -2*Zval/r beyond r=  1.2343

VLOCAL1: 99.0% of the norm of Vloc inside     28.493 Ry
VLOCAL1: 99.9% of the norm of Vloc inside     64.935 Ry
atom: Maximum radius for 4*pi*r*r*local-pseudopot. charge    1.45251
atom: Maximum radius for r*vlocal+2*Zval:    1.21892
GHOST: No ghost state for L =  0
GHOST: No ghost state for L =  1
GHOST: No ghost state for L =  2

KBgen: Kleinman-Bylander projectors: 
   l= 0   rc=  1.364359   el= -0.488086   Ekb= -2.002077   kbcos= -0.347561
   l= 1   rc=  1.434438   el=  0.001075   Ekb= -0.501617   kbcos= -0.021754
   l= 2   rc=  1.470814   el=  0.002010   Ekb= -0.190607   kbcos= -0.002284

KBgen: Total number of  Kleinman-Bylander projectors:    9
atom: -------------------------------------------------------------------------

atom: SANKEY-TYPE ORBITALS:
atom: Selected multiple-zeta basis: split     

SPLIT: Orbitals with angular momentum L= 0

SPLIT: Basis orbitals for state 1s

SPLIT: PAO cut-off radius determined from an
SPLIT: energy shift=  0.010000 Ry

   izeta = 1
                 lambda =    1.000000
                     rc =    5.204501
                 energy =   -0.478113
                kinetic =    0.940144
    potential(screened) =   -1.418257
       potential(ionic) =   -1.931985

   izeta = 2
                 rmatch =    3.903467
              splitnorm =    0.150000
                 energy =   -0.372060
                kinetic =    1.517336
    potential(screened) =   -1.889395
       potential(ionic) =   -2.425474

POLgen: Perturbative polarization orbital with L=  1

POLgen: Polarization orbital for state 1s

   izeta = 1
                     rc =    5.204501
                 energy =    0.663382
                kinetic =    1.340502
    potential(screened) =   -0.677120
       potential(ionic) =   -1.151756
atom: Total number of Sankey-type orbitals:  5

atm_pop: Valence configuration (for local Pseudopot. screening):
 1s( 1.00)                                                            
Vna: chval, zval:    1.00000   1.00000

Vna:  Cut-off radius for the neutral-atom potential:   5.204501

atom: _________________________________________________________________________

prinput: Basis input ----------------------------------------------------------

PAO.BasisType split     

%block ChemicalSpeciesLabel
    1    8 O                       # Species index, atomic number, species label
    2    1 H                       # Species index, atomic number, species label
%endblock ChemicalSpeciesLabel

%block PAO.Basis                 # Define Basis set
O                     2                    # Species label, number of l-shells
 n=2   0   2                         # n, l, Nzeta 
   3.563      2.510   
   1.000      1.000   
 n=2   1   2 P   1                   # n, l, Nzeta, Polarization, NzetaPol
   4.244      2.574   
   1.000      1.000   
H                     1                    # Species label, number of l-shells
 n=1   0   2 P   1                   # n, l, Nzeta, Polarization, NzetaPol
   5.205      3.903   
   1.000      1.000   
%endblock PAO.Basis

prinput: ----------------------------------------------------------------------


siesta: ******************** Simulation parameters ****************************
siesta:
siesta: The following are some of the parameters of the simulation.
siesta: A complete list of the parameters used, including default values,
siesta: can be found in file out.fdf
siesta:
coor:   Atomic-coordinates input format  =     Cartesian coordinates
coor:                                          (in Angstroms)
read_Zmatrix: Length units: Ang       
read_Zmatrix: Angle  units: deg       
read_Zmatrix: Force tolerances:
read_Zmatrix:    for lengths =     0.001556 Ry/Bohr
read_Zmatrix:    for angles  =     0.003565 Ry/rad

read_Zmatrix: Maximum displacements:
read_Zmatrix:    for lengths =     0.200000 Bohr
read_Zmatrix:    for angles  =     0.003000 rad
%block Zmatrix
molecule_cartesian
  1 0 0 0   0.0 0.0 0.0 0 0 0
  2 1 0 0   HO1 90.0 37.743919 1 0 0
  2 1 2 0   HO2 HOH 90.0 1 1 0
variables
    HO1 0.956997
    HO2 0.956997
    HOH 104.0
%endblock Zmatrix

zmatrix: Z-matrix coordinates: (Ang ; deg )
zmatrix: (Fractional coordinates have been converted to cartesian)
molecule    1 (     3 atoms)
      0.00000000      0.00000000      0.00000000
      0.95699700     90.00000000     37.74391900
      0.95699700    104.00000000     90.00000000


Z-matrix Symbol Section -------
Variables
 ho1         0.956997000000000     
 ho2         0.956997000000000     
 hoh          104.000000000000     
Constants
------------ End of Z-matrix Information

redata: Number of spin components        =     1
redata: Long output                      =     F
redata: Number of Atomic Species         =     2
redata: Charge density info will appear in .RHO file
redata: Write Mulliken Pop.              =     NO
redata: Mesh Cutoff                      =   120.0000  Ry
redata: Net charge of the system         =     0.0000 |e|
redata: Max. number of SCF Iter          =    50
redata: Performing Pulay mixing using    =     5 iterations
redata: Mix DM in first SCF step ?       =     F
redata: Write Pulay info on disk?        =     F
redata: New DM Mixing Weight             =     0.3000
redata: New DM Occupancy tolerance       = 0.000000000001
redata: No kicks to SCF
redata: DM Mixing Weight for Kicks       =     0.5000
redata: DM Tolerance for SCF             =     0.000100
redata: Require Energy convergence for SCF =     F
redata: DM Energy tolerance for SCF      =     0.000100 eV
redata: Using Saved Data (generic)   =     F
redata: Use continuation files for DM    =     F
redata: Neglect nonoverlap interactions  =     F
redata: Method of Calculation            =     Diagonalization
redata: Divide and Conquer               =     T
redata: Electronic Temperature           =     0.0019  Ry
redata: Fix the spin of the system       =     F
redata: Dynamics option                  =     CG coord. optimization
redata: Variable cell                    =     F
redata: Use continuation files for CG    =     F
redata: Max atomic displ per move        =     0.2000  Bohr
redata: Maximum number of CG moves       =   200
redata: Force tolerance                  =     0.0016  Ry/Bohr
redata: ***********************************************************************

siesta: Atomic coordinates (Bohr) and species
siesta:      0.00000   0.00000   0.00000  1        1
siesta:      1.43005   1.10702   0.00000  2        2
siesta:     -1.42010   1.11976   0.00000  2        3

initatomlists: Number of atoms, orbitals, and projectors:      3    23    34
Total number of electrons:     8.000000
Total ionic charge:     8.000000

siesta: Automatic unit cell vectors (Ang):
siesta:    7.718081    0.000000    0.000000
siesta:    0.000000    6.151677    0.000000
siesta:    0.000000    0.000000    6.059025

siesta: System type = molecule  

siesta: k-grid: Number of k-points =     1
siesta: k-grid: Cutoff (effective) =     3.030 Ang
siesta: k-grid: Supercell and displacements
siesta: k-grid:    0   0   1      0.000
siesta: k-grid:    0   1   0      0.000
siesta: k-grid:    1   0   0      0.000

* Maximum dynamic memory allocated =     1 MB

siesta:                 ==============================
                            Begin CG move =      0
                        ==============================

zmatrix: Z-matrix coordinates: (Ang ; deg )
zmatrix: (Fractional coordinates have been converted to cartesian)
molecule    1 (     3 atoms)
      0.00000000      0.00000000      0.00000000
      0.95699700     90.00000000     37.74391900
      0.95699700    104.00000000     90.00000000


Z-matrix Symbol Section -------
Variables
 ho1         0.956997000000000     
 ho2         0.956997000000000     
 hoh          104.000000000000     
Constants
------------ End of Z-matrix Information


outcell: Unit cell vectors (Ang):
        7.718081    0.000000    0.000000
        0.000000    6.151677    0.000000
        0.000000    0.000000    6.059025

outcell: Cell vector modules (Ang)   :    7.718081    6.151677    6.059025
outcell: Cell angles (23,13,12) (deg):     90.0000     90.0000     90.0000
outcell: Cell volume (Ang**3)        :    287.6773

InitMesh: MESH =    54 x    48 x    40 =      103680
InitMesh: Mesh cutoff (required, used) =   120.000   120.453 Ry

* Maximum dynamic memory allocated =     8 MB

stepf: Fermi-Dirac step function

siesta: Program's energy decomposition (eV):
siesta: Eions   =       815.854478
siesta: Ena     =       174.498421
siesta: Ekin    =       342.686634
siesta: Enl     =       -53.683622
siesta: DEna    =        -0.000001
siesta: DUscf   =         0.000000
siesta: DUext   =         0.000000
siesta: Exc     =      -112.286040
siesta: eta*DQ  =         0.000000
siesta: Emadel  =         0.000000
siesta: Emeta   =         0.000000
siesta: Emolmec =         0.000000
siesta: Ekinion =         0.000000
siesta: Eharris =      -469.535112
siesta: Etot    =      -464.639087
siesta: FreeEng =      -464.639087

siesta: iscf   Eharris(eV)      E_KS(eV)   FreeEng(eV)   dDmax  Ef(eV)
siesta:    1     -469.5351     -464.6391     -464.6391  1.2069 -5.7875
timer: Routine,Calls,Time,% = IterSCF        1       3.687  73.66
elaps: Routine,Calls,Wall,% = IterSCF        1       3.688  73.66
siesta:    2     -470.5150     -467.7788     -467.7788  0.2683 -0.6880
siesta:    3     -468.7759     -467.8849     -467.8849  0.1017 -3.1630
siesta:    4     -468.7570     -468.3990     -468.3990  0.0136 -3.3152
siesta:    5     -468.7566     -468.5440     -468.5440  0.0053 -3.3323
siesta:    6     -468.7566     -468.7357     -468.7357  0.0008 -3.3079
siesta:    7     -468.7566     -468.7556     -468.7556  0.0002 -3.3088
siesta:    8     -468.7566     -468.7564     -468.7564  0.0001 -3.3117
siesta:    9     -468.7566     -468.7566     -468.7566  0.0000 -3.3116

siesta: E_KS(eV) =             -468.7566

siesta: E_KS - E_eggbox =      -468.7566

zmatrix: Atomic forces (eV/Ang ; eV/deg )
zmatrix: (No information if symbols are used)
molecule    1 (     3 atoms)
     1    0.000000    0.000000    0.000000
     2    0.000000    0.000000    0.000000
     3    0.000000    0.000000    0.000000


Variable forces (eV/Ang ; eV/deg )
 ho1         0.570013917267359     
 ho2         0.572513359455141     
 hoh         2.135309920406599E-003

siesta: Atomic forces (eV/Ang):
----------------------------------------
   Tot   -0.001949    0.093079    0.000003
----------------------------------------
   Max    0.528724
   Res    0.307819    sqrt( Sum f_i^2 / 3N )
----------------------------------------
   Max    0.528724    constrained

Stress-tensor-Voigt (kbar):       -4.36       -1.26       -0.49        0.01        0.00        0.00
Target enthalpy (eV/cell)     -468.7566

* Maximum dynamic memory allocated =     8 MB

siesta:                 ==============================
                            Begin CG move =      1
                        ==============================

zmatrix: Z-matrix coordinates: (Ang ; deg )
zmatrix: (Fractional coordinates have been converted to cartesian)
molecule    1 (     3 atoms)
      0.00000000      0.00000000      0.00000000
      0.96091104     90.00000000     37.74391900
      0.96092820    104.17188734     90.00000000


Z-matrix Symbol Section -------
Variables
 ho1         0.960911038414078     
 ho2         0.960928200999833     
 hoh          104.171887338539     
Constants
------------ End of Z-matrix Information


outcell: Unit cell vectors (Ang):
        7.718081    0.000000    0.000000
        0.000000    6.151677    0.000000
        0.000000    0.000000    6.059025

outcell: Cell vector modules (Ang)   :    7.718081    6.151677    6.059025
outcell: Cell angles (23,13,12) (deg):     90.0000     90.0000     90.0000
outcell: Cell volume (Ang**3)        :    287.6773

siesta: iscf   Eharris(eV)      E_KS(eV)   FreeEng(eV)   dDmax  Ef(eV)
siesta:    1     -468.7606     -468.7146     -468.7146  0.0063 -3.2870
siesta:    2     -468.7606     -468.7605     -468.7605  0.0022 -3.3134
siesta:    3     -468.7606     -468.7550     -468.7550  0.0006 -3.2984
siesta:    4     -468.7606     -468.7599     -468.7599  0.0001 -3.2966
siesta:    5     -468.7606     -468.7604     -468.7604  0.0000 -3.2972

siesta: E_KS(eV) =             -468.7606

zmatrix: Atomic forces (eV/Ang ; eV/deg )
zmatrix: (No information if symbols are used)
molecule    1 (     3 atoms)
     1    0.000000    0.000000    0.000000
     2    0.000000    0.000000    0.000000
     3    0.000000    0.000000    0.000000


Variable forces (eV/Ang ; eV/deg )
 ho1         0.362021384190494     
 ho2         0.362586021676535     
 hoh         1.637093398895039E-003

siesta: Atomic forces (eV/Ang):
----------------------------------------
   Tot   -0.001177    0.094223    0.000000
----------------------------------------
   Max    0.345847
   Res    0.188690    sqrt( Sum f_i^2 / 3N )
----------------------------------------
   Max    0.345847    constrained

Stress-tensor-Voigt (kbar):       -2.85       -0.57       -0.49        0.00        0.00        0.00
Target enthalpy (eV/cell)     -468.7606

* Maximum dynamic memory allocated =     8 MB

siesta:                 ==============================
                            Begin CG move =      2
                        ==============================

zmatrix: Z-matrix coordinates: (Ang ; deg )
zmatrix: (Fractional coordinates have been converted to cartesian)
molecule    1 (     3 atoms)
      0.00000000      0.00000000      0.00000000
      0.96482508     90.00000000     37.74391900
      0.96485940    104.34377468     90.00000000


Z-matrix Symbol Section -------
Variables
 ho1         0.964825076828157     
 ho2         0.964859401999667     
 hoh          104.343774677079     
Constants
------------ End of Z-matrix Information


outcell: Unit cell vectors (Ang):
        7.718081    0.000000    0.000000
        0.000000    6.151677    0.000000
        0.000000    0.000000    6.059025

outcell: Cell vector modules (Ang)   :    7.718081    6.151677    6.059025
outcell: Cell angles (23,13,12) (deg):     90.0000     90.0000     90.0000
outcell: Cell volume (Ang**3)        :    287.6773

siesta: iscf   Eharris(eV)      E_KS(eV)   FreeEng(eV)   dDmax  Ef(eV)
siesta:    1     -468.7629     -468.7172     -468.7172  0.0063 -3.2729
siesta:    2     -468.7629     -468.7628     -468.7628  0.0022 -3.2993
siesta:    3     -468.7628     -468.7572     -468.7572  0.0006 -3.2841
siesta:    4     -468.7628     -468.7622     -468.7622  0.0001 -3.2824
siesta:    5     -468.7628     -468.7627     -468.7627  0.0000 -3.2830

siesta: E_KS(eV) =             -468.7628

zmatrix: Atomic forces (eV/Ang ; eV/deg )
zmatrix: (No information if symbols are used)
molecule    1 (     3 atoms)
     1    0.000000    0.000000    0.000000
     2    0.000000    0.000000    0.000000
     3    0.000000    0.000000    0.000000


Variable forces (eV/Ang ; eV/deg )
 ho1         0.158716754095068     
 ho2         0.157557065774771     
 hoh         1.145768091001345E-003

siesta: Atomic forces (eV/Ang):
----------------------------------------
   Tot   -0.000541    0.095189    0.000000
----------------------------------------
   Max    0.167104
   Res    0.081199    sqrt( Sum f_i^2 / 3N )
----------------------------------------
   Max    0.167104    constrained

Stress-tensor-Voigt (kbar):       -1.35        0.10       -0.49        0.00        0.00        0.00
Target enthalpy (eV/cell)     -468.7628

* Maximum dynamic memory allocated =     8 MB

siesta:                 ==============================
                            Begin CG move =      3
                        ==============================

zmatrix: Z-matrix coordinates: (Ang ; deg )
zmatrix: (Fractional coordinates have been converted to cartesian)
molecule    1 (     3 atoms)
      0.00000000      0.00000000      0.00000000
      0.96873912     90.00000000     37.74391900
      0.96879060    104.51566202     90.00000000


Z-matrix Symbol Section -------
Variables
 ho1         0.968739115242235     
 ho2         0.968790602999501     
 hoh          104.515662015618     
Constants
------------ End of Z-matrix Information


outcell: Unit cell vectors (Ang):
        7.718081    0.000000    0.000000
        0.000000    6.151677    0.000000
        0.000000    0.000000    6.059025

outcell: Cell vector modules (Ang)   :    7.718081    6.151677    6.059025
outcell: Cell angles (23,13,12) (deg):     90.0000     90.0000     90.0000
outcell: Cell volume (Ang**3)        :    287.6773

siesta: iscf   Eharris(eV)      E_KS(eV)   FreeEng(eV)   dDmax  Ef(eV)
siesta:    1     -468.7635     -468.7183     -468.7183  0.0062 -3.2591
siesta:    2     -468.7635     -468.7634     -468.7634  0.0023 -3.2856
siesta:    3     -468.7635     -468.7578     -468.7578  0.0006 -3.2703
siesta:    4     -468.7635     -468.7628     -468.7628  0.0001 -3.2686
siesta:    5     -468.7635     -468.7633     -468.7633  0.0000 -3.2692

siesta: E_KS(eV) =             -468.7634

zmatrix: Atomic forces (eV/Ang ; eV/deg )
zmatrix: (No information if symbols are used)
molecule    1 (     3 atoms)
     1    0.000000    0.000000    0.000000
     2    0.000000    0.000000    0.000000
     3    0.000000    0.000000    0.000000


Variable forces (eV/Ang ; eV/deg )
 ho1        -3.973665138245637E-002
 ho2        -4.251557031000280E-002
 hoh         6.624505589331657E-004

siesta: Atomic forces (eV/Ang):
----------------------------------------
   Tot    0.000017    0.095959   -0.000002
----------------------------------------
   Max    0.208265
   Res    0.074413    sqrt( Sum f_i^2 / 3N )
----------------------------------------
   Max    0.208265    constrained

Stress-tensor-Voigt (kbar):        0.12        0.76       -0.49       -0.01        0.00        0.00
Target enthalpy (eV/cell)     -468.7634

* Maximum dynamic memory allocated =     8 MB

siesta:                 ==============================
                            Begin CG move =      4
                        ==============================

zmatrix: Z-matrix coordinates: (Ang ; deg )
zmatrix: (Fractional coordinates have been converted to cartesian)
molecule    1 (     3 atoms)
      0.00000000      0.00000000      0.00000000
      0.96824271     90.00000000     37.74391900
      0.96829202    104.49386219     90.00000000


Z-matrix Symbol Section -------
Variables
 ho1         0.968242712450237     
 ho2         0.968292023541209     
 hoh          104.493862190033     
Constants
------------ End of Z-matrix Information


outcell: Unit cell vectors (Ang):
        7.718081    0.000000    0.000000
        0.000000    6.151677    0.000000
        0.000000    0.000000    6.059025

outcell: Cell vector modules (Ang)   :    7.718081    6.151677    6.059025
outcell: Cell angles (23,13,12) (deg):     90.0000     90.0000     90.0000
outcell: Cell volume (Ang**3)        :    287.6773

siesta: iscf   Eharris(eV)      E_KS(eV)   FreeEng(eV)   dDmax  Ef(eV)
siesta:    1     -468.7635     -468.7691     -468.7691  0.0008 -3.2721
siesta:    2     -468.7635     -468.7635     -468.7635  0.0003 -3.2687
siesta:    3     -468.7635     -468.7642     -468.7642  0.0001 -3.2707

siesta: E_KS(eV) =             -468.7635

zmatrix: Atomic forces (eV/Ang ; eV/deg )
zmatrix: (No information if symbols are used)
molecule    1 (     3 atoms)
     1    0.000000    0.000000    0.000000
     2    0.000000    0.000000    0.000000
     3    0.000000    0.000000    0.000000


Variable forces (eV/Ang ; eV/deg )
 ho1        -1.520956182735894E-002
 ho2        -1.755374501356000E-002
 hoh         7.203915233914102E-004

siesta: Atomic forces (eV/Ang):
----------------------------------------
   Tot   -0.000023    0.095910    0.000000
----------------------------------------
   Max    0.183335
   Res    0.064794    sqrt( Sum f_i^2 / 3N )
----------------------------------------
   Max    0.183335    constrained

Stress-tensor-Voigt (kbar):       -0.06        0.68       -0.49       -0.01        0.00        0.00
Target enthalpy (eV/cell)     -468.7635

* Maximum dynamic memory allocated =     8 MB

outcoor: Relaxed atomic coordinates (Ang):                  
    0.00000000    0.00000000    0.00000000   1       1  O
    0.76564233    0.59269366    0.00000000   2       2  H
   -0.76549197    0.59296837    0.00000000   2       3  H

zmatrix: Z-matrix coordinates: (Ang ; deg )
zmatrix: (Fractional coordinates have been converted to cartesian)
molecule    1 (     3 atoms)
      0.00000000      0.00000000      0.00000000
      0.96824271     90.00000000     37.74391900
      0.96829202    104.49386219     90.00000000


Z-matrix Symbol Section -------
Variables
 ho1         0.968242712450237     
 ho2         0.968292023541209     
 hoh          104.493862190033     
Constants
------------ End of Z-matrix Information


siesta: Program's energy decomposition (eV):
siesta: Eions   =       815.854478
siesta: Ena     =       174.409695
siesta: Ekin    =       354.043600
siesta: Enl     =       -63.147248
siesta: DEna    =        -3.409665
siesta: DUscf   =         0.813479
siesta: DUext   =         0.000000
siesta: Exc     =      -115.618932
siesta: eta*DQ  =         0.000000
siesta: Emadel  =         0.000000
siesta: Emeta   =         0.000000
siesta: Emolmec =         0.000000
siesta: Ekinion =         0.000000
siesta: Eharris =      -468.763479
siesta: Etot    =      -468.763549
siesta: FreeEng =      -468.763549

siesta: Final energy (eV):
siesta:       Kinetic =     354.043600
siesta:       Hartree =     395.969995
siesta:    Ext. field =       0.000000
siesta:   Exch.-corr. =    -115.618932
siesta:  Ion-electron =   -1101.530945
siesta:       Ion-ion =      -1.627267
siesta:       Ekinion =       0.000000
siesta:         Total =    -468.763549

siesta: Atomic forces (eV/Ang):
siesta:      1   -0.001831    0.183335    0.000000
siesta:      2    0.014034   -0.042976    0.000000
siesta:      3   -0.012227   -0.044449    0.000000
siesta: ----------------------------------------
siesta:    Tot   -0.000023    0.095910    0.000000

siesta: Stress tensor (static) (eV/Ang**3):
siesta:    -0.000039   -0.000004    0.000000
siesta:    -0.000004    0.000423    0.000000
siesta:     0.000000    0.000000   -0.000306

siesta: Cell volume =        287.677305 Ang**3

siesta: Pressure (static):
siesta:                Solid            Molecule  Units
siesta:          -0.00000028          0.00000059  Ry/Bohr**3
siesta:          -0.00002609          0.00005459  eV/Ang**3
siesta:          -0.04180179          0.08746307  kBar

siesta: Electric dipole (a.u.)  =    0.000082    0.592206    0.000000
siesta: Electric dipole (Debye) =    0.000209    1.505238    0.000000

* Maximum dynamic memory allocated : Node    0 =     8 MB

* Maximum memory occured during poison                        

timer: CPU execution times:
timer:  Routine       Calls   Time/call    Tot.time        %
timer:  siesta            1      24.846      24.846   100.00
timer:  Setup             1       0.610       0.610     2.45
timer:  bands             1       0.001       0.001     0.00
timer:  writewave         1       0.000       0.000     0.00
timer:  KSV_init          1       0.000       0.000     0.00
timer:  IterMD            5       4.846      24.231    97.53
timer:  hsparse           6       0.002       0.015     0.06
timer:  overfsm          10       0.071       0.715     2.88
timer:  IterSCF          32       0.734      23.493    94.56
timer:  kinefsm          10       0.067       0.673     2.71
timer:  nlefsm           10       0.203       2.030     8.17
timer:  DHSCF            32       0.648      20.722    83.40
timer:  DHSCF1            1       0.143       0.143     0.58
timer:  DHSCF2            5       0.353       1.764     7.10
timer:  REORD           266       0.001       0.165     0.66
timer:  POISON           37       0.049       1.809     7.28
timer:  DHSCF3           32       0.538      17.231    69.35
timer:  rhoofd           32       0.035       1.124     4.52
timer:  cellXC           32       0.390      12.479    50.23
timer:  vmat             32       0.042       1.344     5.41
timer:  diagon           27       0.001       0.019     0.08
timer:  rdiag            27       0.001       0.017     0.07
timer:  rdiag1           27       0.000       0.002     0.01
timer:  rdiag2           27       0.000       0.001     0.00
timer:  rdiag3           27       0.000       0.011     0.04
timer:  rdiag4           27       0.000       0.001     0.00
timer:  MolMec           10       0.000       0.000     0.00
timer:  DHSCF4            5       0.311       1.555     6.26
timer:  dfscf             5       0.269       1.344     5.41
timer:  optical           1       0.001       0.001     0.00
  

elaps: ELAPSED times:
elaps:  Routine       Calls   Time/call    Tot.time        %
elaps:  siesta            1      24.844      24.844   100.00
elaps:  Setup             1       0.610       0.610     2.45
elaps:  bands             1       0.000       0.000     0.00
elaps:  writewave         1       0.000       0.000     0.00
elaps:  KSV_init          1       0.000       0.000     0.00
elaps:  IterMD            5       4.846      24.230    97.53
elaps:  hsparse           6       0.002       0.014     0.06
elaps:  overfsm          10       0.071       0.714     2.88
elaps:  IterSCF          32       0.734      23.492    94.56
elaps:  kinefsm          10       0.067       0.675     2.71
elaps:  nlefsm           10       0.203       2.028     8.16
elaps:  DHSCF            32       0.648      20.721    83.40
elaps:  DHSCF1            1       0.143       0.143     0.58
elaps:  DHSCF2            5       0.353       1.763     7.10
elaps:  REORD           266       0.001       0.164     0.66
elaps:  POISON           37       0.049       1.807     7.27
elaps:  DHSCF3           32       0.538      17.231    69.36
elaps:  rhoofd           32       0.035       1.123     4.52
elaps:  cellXC           32       0.390      12.479    50.23
elaps:  vmat             32       0.042       1.343     5.41
elaps:  diagon           27       0.001       0.017     0.07
elaps:  rdiag            27       0.001       0.014     0.06
elaps:  rdiag1           27       0.000       0.001     0.00
elaps:  rdiag2           27       0.000       0.002     0.01
elaps:  rdiag3           27       0.000       0.009     0.04
elaps:  rdiag4           27       0.000       0.001     0.00
elaps:  MolMec           10       0.000       0.000     0.00
elaps:  DHSCF4            5       0.311       1.555     6.26
elaps:  dfscf             5       0.269       1.344     5.41
elaps:  optical           1       0.000       0.000     0.00
  
>> End of run:  25-JAN-2007  18:00:00
