Siesta Version: siesta@uam.es--2006/siesta-devel--reference--2.1--patch-28
Architecture  : i686-pc-linux-gnu--Intel
Compiler flags: ifort -O2 -mp
SERIAL version

* Running in serial mode
>> Start of run:  17-DEC-2006  19:59:44

                           ***********************       
                           *  WELCOME TO SIESTA  *       
                           ***********************       

reinit: Reading from standard input
************************** Dump of input data file ****************************
SystemName h2oZ
SystemLabel h2oZ
NumberOfSpecies 2
NumberOfAtoms   3
%block ChemicalSpeciesLabel
1    8 O
2    1 H
%endblock ChemicalSpeciesLabel
AtomicCoordinatesFormat NotScaledCartesianAng
ZM.ForceTolLen 0.04 eV/Ang
ZM.ForceTolAng 0.0001 eV/deg
ZM.MaxDisplLen 0.1 Ang
ZM.MaxDisplAng 20.0 deg
%block Zmatrix
molecule_cartesian
  1 0 0 0   0.0 0.0 0.0 0 0 0
  2 1 0 0   HO1 90.0 37.743919 1 0 0
  2 1 2 0   HO2 HOH 90.0 1 1 0
variables
    HO1 0.956997
    HO2 0.956997
    HOH 104.0
%endblock Zmatrix
ZM.UnitsLength Ang
ZM.UnitsAngle deg
xc.functional GGA
xc.authors PBE
MD.TypeOfRun CG
MD.NumCGsteps 200
MeshCutoff 120 Ry
PAO.EnergyShift 0.01 Ry
DM.NumberPulay 5
DM.MixingWeight 0.3
************************** End of input data file *****************************

reinit: -----------------------------------------------------------------------
reinit: System Name: h2oZ                                                       
reinit: -----------------------------------------------------------------------
reinit: System Label: h2oZ                                                        
reinit: -----------------------------------------------------------------------

initatom: Reading input for the pseudopotentials and atomic orbitals ----------
 Species number:            1  Label: O Atomic number:           8
 Species number:            2  Label: H Atomic number:           1
Ground state valence configuration:   2s02  2p04
Reading pseudopotential information in formatted form from O.psf

Valence configuration for pseudopotential generation:
2s( 2.00) rc: 1.14
2p( 4.00) rc: 1.14
3d( 0.00) rc: 1.14
4f( 0.00) rc: 1.14
Dumping pseudopotential information in formatted form in O.psdump
Ground state valence configuration:   1s01
Reading pseudopotential information in formatted form from H.psf

Valence configuration for pseudopotential generation:
1s( 1.00) rc: 1.25
2p( 0.00) rc: 1.25
3d( 0.00) rc: 1.25
4f( 0.00) rc: 1.25
Dumping pseudopotential information in formatted form in H.psdump
For O, standard SIESTA heuristics set lmxkb to 3
 (one more than the basis l, including polarization orbitals).
Use PS.lmax or PS.KBprojectors blocks to override.
For H, standard SIESTA heuristics set lmxkb to 2
 (one more than the basis l, including polarization orbitals).
Use PS.lmax or PS.KBprojectors blocks to override.

<basis_specs>
===============================================================================
O                    Z=   8    Mass=  16.000        Charge= 0.17977+309
Lmxo=1 Lmxkb=3     BasisType=split      Semic=F
L=0  Nsemic=0  Cnfigmx=2
          n=1  nzeta=2  polorb=0
            splnorm:   0.15000    
               vcte:    0.0000    
               rinn:    0.0000    
                rcs:    0.0000      0.0000    
            lambdas:    1.0000      1.0000    
L=1  Nsemic=0  Cnfigmx=2
          n=1  nzeta=2  polorb=1
            splnorm:   0.15000    
               vcte:    0.0000    
               rinn:    0.0000    
                rcs:    0.0000      0.0000    
            lambdas:    1.0000      1.0000    
-------------------------------------------------------------------------------
L=0  Nkbl=1  erefs: 0.17977+309
L=1  Nkbl=1  erefs: 0.17977+309
L=2  Nkbl=1  erefs: 0.17977+309
L=3  Nkbl=1  erefs: 0.17977+309
===============================================================================
</basis_specs>

atom: Called for O                     (Z =   8)

read_vps: Pseudopotential generation method:
read_vps: ATM3      Troullier-Martins                       
Total valence charge:    6.00000

xc_check: Exchange-correlation functional:
xc_check: GGA Perdew, Burke & Ernzerhof 1996
xc_check: WARNING: Pseudopotential generated with Ceperley-Alder functional
V l=0 = -2*Zval/r beyond r=  1.1278
V l=1 = -2*Zval/r beyond r=  1.1278
V l=2 = -2*Zval/r beyond r=  1.1278
V l=3 = -2*Zval/r beyond r=  1.1138
All V_l potentials equal beyond r=  1.1278
This should be close to max(r_c) in ps generation
All pots = -2*Zval/r beyond r=  1.1278

VLOCAL1: 99.0% of the norm of Vloc inside     34.126 Ry
VLOCAL1: 99.9% of the norm of Vloc inside     77.774 Ry
atom: Maximum radius for 4*pi*r*r*local-pseudopot. charge    1.37759
atom: Maximum radius for r*vlocal+2*Zval:    1.18566
GHOST: No ghost state for L =  0
GHOST: No ghost state for L =  1
GHOST: No ghost state for L =  2
GHOST: No ghost state for L =  3

KBgen: Kleinman-Bylander projectors: 
   l= 0   rc=  1.294105   el= -1.764717   Ekb=  9.120606   kbcos=  0.329038
   l= 1   rc=  1.294105   el= -0.698441   Ekb= -8.119783   kbcos= -0.400859
   l= 2   rc=  1.448233   el=  0.002031   Ekb= -2.039067   kbcos= -0.003490
   l= 3   rc=  1.561052   el=  0.003153   Ekb= -0.799361   kbcos= -0.000345

KBgen: Total number of  Kleinman-Bylander projectors:   16
atom: -------------------------------------------------------------------------

atom: SANKEY-TYPE ORBITALS:
atom: Selected multiple-zeta basis: split     

SPLIT: Orbitals with angular momentum L= 0

SPLIT: Basis orbitals for state 2s

SPLIT: PAO cut-off radius determined from an
SPLIT: energy shift=  0.010000 Ry

   izeta = 1
                 lambda =    1.000000
                     rc =    3.562532
                 energy =   -1.755511
                kinetic =    1.600463
    potential(screened) =   -3.355974
       potential(ionic) =  -11.286134

   izeta = 2
                 rmatch =    2.510382
              splitnorm =    0.150000
                 energy =   -1.503288
                kinetic =    2.454016
    potential(screened) =   -3.957304
       potential(ionic) =  -12.483069

SPLIT: Orbitals with angular momentum L= 1

SPLIT: Basis orbitals for state 2p

SPLIT: PAO cut-off radius determined from an
SPLIT: energy shift=  0.010000 Ry

   izeta = 1
                 lambda =    1.000000
                     rc =    4.243912
                 energy =   -0.688662
                kinetic =    5.026374
    potential(screened) =   -5.715036
       potential(ionic) =  -13.477958

   izeta = 2
                 rmatch =    2.573941
              splitnorm =    0.150000
                 energy =   -0.419104
                kinetic =    7.468683
    potential(screened) =   -7.887787
       potential(ionic) =  -16.547632

POLgen: Perturbative polarization orbital with L=  2

POLgen: Polarization orbital for state 2p

   izeta = 1
                     rc =    4.243912
                 energy =    2.313152
                kinetic =    4.581177
    potential(screened) =   -2.268025
       potential(ionic) =   -8.473102
atom: Total number of Sankey-type orbitals: 13

atm_pop: Valence configuration (for local Pseudopot. screening):
 2s( 2.00)                                                            
 2p( 4.00)                                                            
Vna: chval, zval:    6.00000   6.00000

Vna:  Cut-off radius for the neutral-atom potential:   4.243912

atom: _________________________________________________________________________

<basis_specs>
===============================================================================
H                    Z=   1    Mass=  1.0100        Charge= 0.17977+309
Lmxo=0 Lmxkb=2     BasisType=split      Semic=F
L=0  Nsemic=0  Cnfigmx=1
          n=1  nzeta=2  polorb=1
            splnorm:   0.15000    
               vcte:    0.0000    
               rinn:    0.0000    
                rcs:    0.0000      0.0000    
            lambdas:    1.0000      1.0000    
-------------------------------------------------------------------------------
L=0  Nkbl=1  erefs: 0.17977+309
L=1  Nkbl=1  erefs: 0.17977+309
L=2  Nkbl=1  erefs: 0.17977+309
===============================================================================
</basis_specs>

atom: Called for H                     (Z =   1)

read_vps: Pseudopotential generation method:
read_vps: ATM3      Troullier-Martins                       
Total valence charge:    1.00000

xc_check: Exchange-correlation functional:
xc_check: GGA Perdew, Burke & Ernzerhof 1996
xc_check: WARNING: Pseudopotential generated with Ceperley-Alder functional
V l=0 = -2*Zval/r beyond r=  1.2343
V l=1 = -2*Zval/r beyond r=  1.2189
V l=2 = -2*Zval/r beyond r=  1.2189
All V_l potentials equal beyond r=  1.2343
This should be close to max(r_c) in ps generation
All pots = -2*Zval/r beyond r=  1.2343

VLOCAL1: 99.0% of the norm of Vloc inside     28.493 Ry
VLOCAL1: 99.9% of the norm of Vloc inside     64.935 Ry
atom: Maximum radius for 4*pi*r*r*local-pseudopot. charge    1.45251
atom: Maximum radius for r*vlocal+2*Zval:    1.21892
GHOST: No ghost state for L =  0
GHOST: No ghost state for L =  1
GHOST: No ghost state for L =  2

KBgen: Kleinman-Bylander projectors: 
   l= 0   rc=  1.364359   el= -0.488086   Ekb= -2.002077   kbcos= -0.347561
   l= 1   rc=  1.434438   el=  0.001075   Ekb= -0.501617   kbcos= -0.021754
   l= 2   rc=  1.470814   el=  0.002010   Ekb= -0.190607   kbcos= -0.002284

KBgen: Total number of  Kleinman-Bylander projectors:    9
atom: -------------------------------------------------------------------------

atom: SANKEY-TYPE ORBITALS:
atom: Selected multiple-zeta basis: split     

SPLIT: Orbitals with angular momentum L= 0

SPLIT: Basis orbitals for state 1s

SPLIT: PAO cut-off radius determined from an
SPLIT: energy shift=  0.010000 Ry

   izeta = 1
                 lambda =    1.000000
                     rc =    5.204501
                 energy =   -0.478113
                kinetic =    0.940144
    potential(screened) =   -1.418257
       potential(ionic) =   -1.931985

   izeta = 2
                 rmatch =    3.903467
              splitnorm =    0.150000
                 energy =   -0.372060
                kinetic =    1.517336
    potential(screened) =   -1.889395
       potential(ionic) =   -2.425474

POLgen: Perturbative polarization orbital with L=  1

POLgen: Polarization orbital for state 1s

   izeta = 1
                     rc =    5.204501
                 energy =    0.663382
                kinetic =    1.340502
    potential(screened) =   -0.677120
       potential(ionic) =   -1.151756
atom: Total number of Sankey-type orbitals:  5

atm_pop: Valence configuration (for local Pseudopot. screening):
 1s( 1.00)                                                            
Vna: chval, zval:    1.00000   1.00000

Vna:  Cut-off radius for the neutral-atom potential:   5.204501

atom: _________________________________________________________________________

prinput: Basis input ----------------------------------------------------------

PAO.BasisType split     

%block ChemicalSpeciesLabel
    1    8 O                       # Species index, atomic number, species label
    2    1 H                       # Species index, atomic number, species label
%endblock ChemicalSpeciesLabel

%block PAO.Basis                 # Define Basis set
O                     2                    # Species label, number of l-shells
 n=2   0   2                         # n, l, Nzeta 
   3.563      2.510   
   1.000      1.000   
 n=2   1   2 P   1                   # n, l, Nzeta, Polarization, NzetaPol
   4.244      2.574   
   1.000      1.000   
H                     1                    # Species label, number of l-shells
 n=1   0   2 P   1                   # n, l, Nzeta, Polarization, NzetaPol
   5.205      3.903   
   1.000      1.000   
%endblock PAO.Basis

prinput: ----------------------------------------------------------------------


siesta: ******************** Simulation parameters ****************************
siesta:
siesta: The following are some of the parameters of the simulation.
siesta: A complete list of the parameters used, including default values,
siesta: can be found in file out.fdf
siesta:
coor:   Atomic-coordinates input format  =     Cartesian coordinates
coor:                                          (in Angstroms)
read_Zmatrix: Length units: Ang       
read_Zmatrix: Angle  units: deg       
read_Zmatrix: Force tolerances:
read_Zmatrix:    for lengths =     0.001556 Ry/Bohr
read_Zmatrix:    for angles  =     0.003565 Ry/rad

read_Zmatrix: Maximum displacements:
read_Zmatrix:    for lengths =     0.200000 Bohr
read_Zmatrix:    for angles  =     0.003000 rad
%block Zmatrix
molecule_cartesian
  1 0 0 0   0.0 0.0 0.0 0 0 0
  2 1 0 0   HO1 90.0 37.743919 1 0 0
  2 1 2 0   HO2 HOH 90.0 1 1 0
variables
    HO1 0.956997
    HO2 0.956997
    HOH 104.0
%endblock Zmatrix

zmatrix: Z-matrix coordinates: (Ang ; deg )
zmatrix: (Fractional coordinates have been converted to cartesian)
molecule    1 (     3 atoms)
      0.00000000      0.00000000      0.00000000
      0.95699700     90.00000000     37.74391900
      0.95699700    104.00000000     90.00000000


Z-matrix Symbol Section -------
Variables
 ho1         0.956997000000000     
 ho2         0.956997000000000     
 hoh          104.000000000000     
Constants
------------ End of Z-matrix Information

redata: Number of spin components        =     1
redata: Long output                      =     F
redata: Number of Atomic Species         =     2
redata: Charge density info will appear in .RHO file
redata: Write Mulliken Pop.              =     NO
redata: Mesh Cutoff                      =   120.0000  Ry
redata: Net charge of the system         =     0.0000 |e|
redata: Max. number of SCF Iter          =    50
redata: Performing Pulay mixing using    =     5 iterations
redata: Mix DM in first SCF step ?       =     F
redata: Write Pulay info on disk?        =     F
redata: New DM Mixing Weight             =     0.3000
redata: New DM Occupancy tolerance       = 0.000000000001
redata: No kicks to SCF
redata: DM Mixing Weight for Kicks       =     0.5000
redata: DM Tolerance for SCF             =     0.000100
redata: Require Energy convergence for SCF =     F
redata: DM Energy tolerance for SCF      =     0.000100 eV
redata: Using Saved Data (generic)   =     F
redata: Use continuation files for DM    =     F
redata: Neglect nonoverlap interactions  =     F
redata: Method of Calculation            =     Diagonalization
redata: Divide and Conquer               =     T
redata: Electronic Temperature           =     0.0019  Ry
redata: Fix the spin of the system       =     F
redata: Dynamics option                  =     CG coord. optimization
redata: Variable cell                    =     F
redata: Use continuation files for CG    =     F
redata: Max atomic displ per move        =     0.2000  Bohr
redata: Maximum number of CG moves       =   200
redata: Force tolerance                  =     0.0016  Ry/Bohr
redata: ***********************************************************************

siesta: Atomic coordinates (Bohr) and species
siesta:      0.00000   0.00000   0.00000  1        1
siesta:      1.43005   1.10702   0.00000  2        2
siesta:     -1.42010   1.11976   0.00000  2        3

initatomlists: Number of atoms, orbitals, and projectors:      3    23    34
Total number of electrons:     8.000000
Total ionic charge:     8.000000

siesta: Automatic unit cell vectors (Ang):
siesta:    7.718081    0.000000    0.000000
siesta:    0.000000    6.151677    0.000000
siesta:    0.000000    0.000000    6.059025

siesta: System type = molecule  

siesta: k-grid: Number of k-points =     1
siesta: k-grid: Cutoff (effective) =     3.030 Ang
siesta: k-grid: Supercell and displacements
siesta: k-grid:    0   0   1      0.000
siesta: k-grid:    0   1   0      0.000
siesta: k-grid:    1   0   0      0.000

* Maximum dynamic memory allocated =     1 MB

siesta:                 ==============================
                            Begin CG move =      0
                        ==============================

zmatrix: Z-matrix coordinates: (Ang ; deg )
zmatrix: (Fractional coordinates have been converted to cartesian)
molecule    1 (     3 atoms)
      0.00000000      0.00000000      0.00000000
      0.95699700     90.00000000     37.74391900
      0.95699700    104.00000000     90.00000000


Z-matrix Symbol Section -------
Variables
 ho1         0.956997000000000     
 ho2         0.956997000000000     
 hoh          104.000000000000     
Constants
------------ End of Z-matrix Information


outcell: Unit cell vectors (Ang):
        7.718081    0.000000    0.000000
        0.000000    6.151677    0.000000
        0.000000    0.000000    6.059025

outcell: Cell vector modules (Ang)   :    7.718081    6.151677    6.059025
outcell: Cell angles (23,13,12) (deg):     90.0000     90.0000     90.0000
outcell: Cell volume (Ang**3)        :    287.6773

InitMesh: MESH =    54 x    48 x    40 =      103680
InitMesh: Mesh cutoff (required, used) =   120.000   120.453 Ry

* Maximum dynamic memory allocated =     8 MB

stepf: Fermi-Dirac step function

siesta: Program's energy decomposition (eV):
siesta: Eions   =       815.854478
siesta: Ena     =       174.498421
siesta: Ekin    =       342.686634
siesta: Enl     =       -53.683622
siesta: DEna    =        -0.000001
siesta: DUscf   =         0.000000
siesta: DUext   =         0.000000
siesta: Exc     =      -112.286040
siesta: eta*DQ  =         0.000000
siesta: Emadel  =         0.000000
siesta: Emeta   =         0.000000
siesta: Emolmec =         0.000000
siesta: Ekinion =         0.000000
siesta: Eharris =      -469.535112
siesta: Etot    =      -464.639087
siesta: FreeEng =      -464.639087

siesta: iscf   Eharris(eV)      E_KS(eV)   FreeEng(eV)   dDmax  Ef(eV)
siesta:    1     -469.5351     -464.6391     -464.6391  1.2069 -5.7875
timer: Routine,Calls,Time,% = IterSCF        1       3.678  73.96
elaps: Routine,Calls,Wall,% = IterSCF        1       3.681  73.12
siesta:    2     -470.5150     -467.7788     -467.7788  0.2683 -0.6880
siesta:    3     -468.7759     -467.8849     -467.8849  0.1017 -3.1630
siesta:    4     -468.7570     -468.3990     -468.3990  0.0136 -3.3152
siesta:    5     -468.7566     -468.5440     -468.5440  0.0053 -3.3323
siesta:    6     -468.7566     -468.7357     -468.7357  0.0008 -3.3079
siesta:    7     -468.7566     -468.7556     -468.7556  0.0002 -3.3088
siesta:    8     -468.7566     -468.7564     -468.7564  0.0001 -3.3117
siesta:    9     -468.7566     -468.7566     -468.7566  0.0000 -3.3116

siesta: E_KS(eV) =             -468.7566

siesta: E_KS - E_eggbox =      -468.7566

zmatrix: Atomic forces (eV/Ang ; eV/deg )
zmatrix: (No information if symbols are used)
molecule    1 (     3 atoms)
     1    0.000000    0.000000    0.000000
     2    0.000000    0.000000    0.000000
     3    0.000000    0.000000    0.000000


Variable forces (eV/Ang ; eV/deg )
 ho1         0.570013794965242     
 ho2         0.572512728721452     
 hoh         2.135314841123915E-003

siesta: Atomic forces (eV/Ang):
----------------------------------------
   Tot   -0.001956    0.093080    0.000001
----------------------------------------
   Max    0.528723
   Res    0.307819    sqrt( Sum f_i^2 / 3N )
----------------------------------------
   Max    0.528723    constrained

Stress-tensor-Voigt (kbar):       -4.36       -1.26       -0.49        0.01        0.00        0.00
Target enthalpy (eV/cell)     -468.7566

* Maximum dynamic memory allocated =     8 MB

siesta:                 ==============================
                            Begin CG move =      1
                        ==============================

zmatrix: Z-matrix coordinates: (Ang ; deg )
zmatrix: (Fractional coordinates have been converted to cartesian)
molecule    1 (     3 atoms)
      0.00000000      0.00000000      0.00000000
      0.96091103     90.00000000     37.74391900
      0.96092819    104.17188734     90.00000000


Z-matrix Symbol Section -------
Variables
 ho1         0.960911028554595     
 ho2         0.960928187609629     
 hoh          104.171887338539     
Constants
------------ End of Z-matrix Information


outcell: Unit cell vectors (Ang):
        7.718081    0.000000    0.000000
        0.000000    6.151677    0.000000
        0.000000    0.000000    6.059025

outcell: Cell vector modules (Ang)   :    7.718081    6.151677    6.059025
outcell: Cell angles (23,13,12) (deg):     90.0000     90.0000     90.0000
outcell: Cell volume (Ang**3)        :    287.6773

siesta: iscf   Eharris(eV)      E_KS(eV)   FreeEng(eV)   dDmax  Ef(eV)
siesta:    1     -468.7606     -468.7146     -468.7146  0.0063 -3.2870
siesta:    2     -468.7606     -468.7605     -468.7605  0.0022 -3.3134
siesta:    3     -468.7606     -468.7550     -468.7550  0.0006 -3.2984
siesta:    4     -468.7606     -468.7599     -468.7599  0.0001 -3.2966
siesta:    5     -468.7606     -468.7604     -468.7604  0.0000 -3.2972

siesta: E_KS(eV) =             -468.7606

zmatrix: Atomic forces (eV/Ang ; eV/deg )
zmatrix: (No information if symbols are used)
molecule    1 (     3 atoms)
     1    0.000000    0.000000    0.000000
     2    0.000000    0.000000    0.000000
     3    0.000000    0.000000    0.000000


Variable forces (eV/Ang ; eV/deg )
 ho1         0.362022051515508     
 ho2         0.362587957627852     
 hoh         1.637086749415375E-003

siesta: Atomic forces (eV/Ang):
----------------------------------------
   Tot   -0.001176    0.094231    0.000001
----------------------------------------
   Max    0.345847
   Res    0.188689    sqrt( Sum f_i^2 / 3N )
----------------------------------------
   Max    0.345847    constrained

Stress-tensor-Voigt (kbar):       -2.85       -0.57       -0.49        0.00        0.00        0.00
Target enthalpy (eV/cell)     -468.7606

* Maximum dynamic memory allocated =     8 MB

siesta:                 ==============================
                            Begin CG move =      2
                        ==============================

zmatrix: Z-matrix coordinates: (Ang ; deg )
zmatrix: (Fractional coordinates have been converted to cartesian)
molecule    1 (     3 atoms)
      0.00000000      0.00000000      0.00000000
      0.96482506     90.00000000     37.74391900
      0.96485938    104.34377468     90.00000000


Z-matrix Symbol Section -------
Variables
 ho1         0.964825057109191     
 ho2         0.964859375219258     
 hoh          104.343774677079     
Constants
------------ End of Z-matrix Information


outcell: Unit cell vectors (Ang):
        7.718081    0.000000    0.000000
        0.000000    6.151677    0.000000
        0.000000    0.000000    6.059025

outcell: Cell vector modules (Ang)   :    7.718081    6.151677    6.059025
outcell: Cell angles (23,13,12) (deg):     90.0000     90.0000     90.0000
outcell: Cell volume (Ang**3)        :    287.6773

siesta: iscf   Eharris(eV)      E_KS(eV)   FreeEng(eV)   dDmax  Ef(eV)
siesta:    1     -468.7629     -468.7172     -468.7172  0.0063 -3.2729
siesta:    2     -468.7629     -468.7628     -468.7628  0.0022 -3.2993
siesta:    3     -468.7629     -468.7572     -468.7572  0.0006 -3.2841
siesta:    4     -468.7628     -468.7622     -468.7622  0.0001 -3.2824
siesta:    5     -468.7629     -468.7627     -468.7627  0.0000 -3.2830

siesta: E_KS(eV) =             -468.7628

zmatrix: Atomic forces (eV/Ang ; eV/deg )
zmatrix: (No information if symbols are used)
molecule    1 (     3 atoms)
     1    0.000000    0.000000    0.000000
     2    0.000000    0.000000    0.000000
     3    0.000000    0.000000    0.000000


Variable forces (eV/Ang ; eV/deg )
 ho1         0.158716637054501     
 ho2         0.157558258009837     
 hoh         1.145786096551070E-003

siesta: Atomic forces (eV/Ang):
----------------------------------------
   Tot   -0.000545    0.095189    0.000000
----------------------------------------
   Max    0.167105
   Res    0.081199    sqrt( Sum f_i^2 / 3N )
----------------------------------------
   Max    0.167105    constrained

Stress-tensor-Voigt (kbar):       -1.35        0.10       -0.49        0.00        0.00        0.00
Target enthalpy (eV/cell)     -468.7628

* Maximum dynamic memory allocated =     8 MB

siesta:                 ==============================
                            Begin CG move =      3
                        ==============================

zmatrix: Z-matrix coordinates: (Ang ; deg )
zmatrix: (Fractional coordinates have been converted to cartesian)
molecule    1 (     3 atoms)
      0.00000000      0.00000000      0.00000000
      0.96873909     90.00000000     37.74391900
      0.96879056    104.51566202     90.00000000


Z-matrix Symbol Section -------
Variables
 ho1         0.968739085663786     
 ho2         0.968790562828887     
 hoh          104.515662015618     
Constants
------------ End of Z-matrix Information


outcell: Unit cell vectors (Ang):
        7.718081    0.000000    0.000000
        0.000000    6.151677    0.000000
        0.000000    0.000000    6.059025

outcell: Cell vector modules (Ang)   :    7.718081    6.151677    6.059025
outcell: Cell angles (23,13,12) (deg):     90.0000     90.0000     90.0000
outcell: Cell volume (Ang**3)        :    287.6773

siesta: iscf   Eharris(eV)      E_KS(eV)   FreeEng(eV)   dDmax  Ef(eV)
siesta:    1     -468.7635     -468.7183     -468.7183  0.0062 -3.2591
siesta:    2     -468.7636     -468.7634     -468.7634  0.0023 -3.2856
siesta:    3     -468.7635     -468.7578     -468.7578  0.0006 -3.2703
siesta:    4     -468.7635     -468.7628     -468.7628  0.0001 -3.2686
siesta:    5     -468.7635     -468.7633     -468.7633  0.0000 -3.2692

siesta: E_KS(eV) =             -468.7634

zmatrix: Atomic forces (eV/Ang ; eV/deg )
zmatrix: (No information if symbols are used)
molecule    1 (     3 atoms)
     1    0.000000    0.000000    0.000000
     2    0.000000    0.000000    0.000000
     3    0.000000    0.000000    0.000000


Variable forces (eV/Ang ; eV/deg )
 ho1        -3.973566598907723E-002
 ho2        -4.251546969323088E-002
 hoh         6.624697175875711E-004

siesta: Atomic forces (eV/Ang):
----------------------------------------
   Tot    0.000029    0.095954    0.000001
----------------------------------------
   Max    0.208261
   Res    0.074412    sqrt( Sum f_i^2 / 3N )
----------------------------------------
   Max    0.208261    constrained

Stress-tensor-Voigt (kbar):        0.12        0.76       -0.49       -0.01        0.00        0.00
Target enthalpy (eV/cell)     -468.7634

* Maximum dynamic memory allocated =     8 MB

siesta:                 ==============================
                            Begin CG move =      4
                        ==============================

zmatrix: Z-matrix coordinates: (Ang ; deg )
zmatrix: (Fractional coordinates have been converted to cartesian)
molecule    1 (     3 atoms)
      0.00000000      0.00000000      0.00000000
      0.96824270     90.00000000     37.74391900
      0.96829200    104.49386301     90.00000000


Z-matrix Symbol Section -------
Variables
 ho1         0.968242702881193     
 ho2         0.968292003910029     
 hoh          104.493863013846     
Constants
------------ End of Z-matrix Information


outcell: Unit cell vectors (Ang):
        7.718081    0.000000    0.000000
        0.000000    6.151677    0.000000
        0.000000    0.000000    6.059025

outcell: Cell vector modules (Ang)   :    7.718081    6.151677    6.059025
outcell: Cell angles (23,13,12) (deg):     90.0000     90.0000     90.0000
outcell: Cell volume (Ang**3)        :    287.6773

siesta: iscf   Eharris(eV)      E_KS(eV)   FreeEng(eV)   dDmax  Ef(eV)
siesta:    1     -468.7635     -468.7691     -468.7691  0.0008 -3.2721
siesta:    2     -468.7635     -468.7635     -468.7635  0.0003 -3.2687
siesta:    3     -468.7635     -468.7642     -468.7642  0.0001 -3.2707

siesta: E_KS(eV) =             -468.7636

zmatrix: Atomic forces (eV/Ang ; eV/deg )
zmatrix: (No information if symbols are used)
molecule    1 (     3 atoms)
     1    0.000000    0.000000    0.000000
     2    0.000000    0.000000    0.000000
     3    0.000000    0.000000    0.000000


Variable forces (eV/Ang ; eV/deg )
 ho1        -1.520918155779906E-002
 ho2        -1.755286382840986E-002
 hoh         7.203898560079549E-004

siesta: Atomic forces (eV/Ang):
----------------------------------------
   Tot   -0.000030    0.095905    0.000001
----------------------------------------
   Max    0.183329
   Res    0.064792    sqrt( Sum f_i^2 / 3N )
----------------------------------------
   Max    0.183329    constrained

Stress-tensor-Voigt (kbar):       -0.06        0.68       -0.49       -0.01        0.00        0.00
Target enthalpy (eV/cell)     -468.7636

* Maximum dynamic memory allocated =     8 MB

outcoor: Relaxed atomic coordinates (Ang):                  
    0.00000000    0.00000000    0.00000000   1       1  O
    0.76564232    0.59269366    0.00000000   2       2  H
   -0.76549196    0.59296835    0.00000000   2       3  H

zmatrix: Z-matrix coordinates: (Ang ; deg )
zmatrix: (Fractional coordinates have been converted to cartesian)
molecule    1 (     3 atoms)
      0.00000000      0.00000000      0.00000000
      0.96824270     90.00000000     37.74391900
      0.96829200    104.49386301     90.00000000


Z-matrix Symbol Section -------
Variables
 ho1         0.968242702881193     
 ho2         0.968292003910029     
 hoh          104.493863013846     
Constants
------------ End of Z-matrix Information


siesta: Program's energy decomposition (eV):
siesta: Eions   =       815.854478
siesta: Ena     =       174.409696
siesta: Ekin    =       354.043603
siesta: Enl     =       -63.147249
siesta: DEna    =        -3.409668
siesta: DUscf   =         0.813479
siesta: DUext   =         0.000000
siesta: Exc     =      -115.618933
siesta: eta*DQ  =         0.000000
siesta: Emadel  =         0.000000
siesta: Emeta   =         0.000000
siesta: Emolmec =         0.000000
siesta: Ekinion =         0.000000
siesta: Eharris =      -468.763474
siesta: Etot    =      -468.763550
siesta: FreeEng =      -468.763550

siesta: Final energy (eV):
siesta:       Kinetic =     354.043603
siesta:       Hartree =     395.970001
siesta:    Ext. field =       0.000000
siesta:   Exch.-corr. =    -115.618933
siesta:  Ion-electron =   -1101.530958
siesta:       Ion-ion =      -1.627264
siesta:       Ekinion =       0.000000
siesta:         Total =    -468.763550

siesta: Atomic forces (eV/Ang):
siesta:      1   -0.001837    0.183329    0.000001
siesta:      2    0.014035   -0.042976    0.000000
siesta:      3   -0.012228   -0.044448    0.000000
siesta: ----------------------------------------
siesta:    Tot   -0.000030    0.095905    0.000001

siesta: Stress tensor (static) (eV/Ang**3):
siesta:    -0.000039   -0.000004    0.000000
siesta:    -0.000004    0.000423    0.000000
siesta:     0.000000    0.000000   -0.000306

siesta: Cell volume =        287.677305 Ang**3

siesta: Pressure (static):
siesta:                Solid            Molecule  Units
siesta:          -0.00000028          0.00000059  Ry/Bohr**3
siesta:          -0.00002608          0.00005459  eV/Ang**3
siesta:          -0.04179200          0.08746660  kBar

siesta: Electric dipole (a.u.)  =    0.000082    0.592206    0.000000
siesta: Electric dipole (Debye) =    0.000209    1.505237    0.000000

* Maximum dynamic memory allocated : Node    0 =     8 MB

* Maximum memory occured during poison                        

timer: CPU execution times:
timer:  Routine       Calls   Time/call    Tot.time        %
timer:  siesta            1      24.933      24.933   100.00
timer:  Setup             1       0.572       0.572     2.29
timer:  bands             1       0.000       0.000     0.00
timer:  writewave         1       0.001       0.001     0.00
timer:  KSV_init          1       0.000       0.000     0.00
timer:  IterMD            5       4.871      24.357    97.69
timer:  hsparse           6       0.002       0.015     0.06
timer:  overfsm          10       0.073       0.727     2.92
timer:  IterSCF          32       0.737      23.596    94.64
timer:  kinefsm          10       0.069       0.688     2.76
timer:  nlefsm           10       0.200       1.999     8.02
timer:  DHSCF            32       0.651      20.834    83.56
timer:  DHSCF1            1       0.147       0.147     0.59
timer:  DHSCF2            5       0.349       1.747     7.01
timer:  REORD           266       0.001       0.155     0.62
timer:  POISON           37       0.047       1.744     6.99
timer:  DHSCF3           32       0.542      17.343    69.56
timer:  rhoofd           32       0.039       1.237     4.96
timer:  cellXC           32       0.396      12.665    50.80
timer:  vmat             32       0.038       1.207     4.84
timer:  diagon           27       0.001       0.018     0.07
timer:  rdiag            27       0.000       0.012     0.05
timer:  rdiag1           27       0.000       0.001     0.00
timer:  rdiag2           27       0.000       0.000     0.00
timer:  rdiag3           27       0.000       0.010     0.04
timer:  rdiag4           27       0.000       0.000     0.00
timer:  MolMec           10       0.000       0.000     0.00
timer:  DHSCF4            5       0.313       1.566     6.28
timer:  dfscf             5       0.271       1.356     5.44
timer:  optical           1       0.000       0.000     0.00
  

elaps: ELAPSED times:
elaps:  Routine       Calls   Time/call    Tot.time        %
elaps:  siesta            1      25.088      25.088   100.00
elaps:  Setup             1       0.629       0.629     2.51
elaps:  bands             1       0.000       0.000     0.00
elaps:  writewave         1       0.000       0.000     0.00
elaps:  KSV_init          1       0.000       0.000     0.00
elaps:  IterMD            5       4.890      24.449    97.45
elaps:  hsparse           6       0.002       0.015     0.06
elaps:  overfsm          10       0.073       0.728     2.90
elaps:  IterSCF          32       0.739      23.646    94.25
elaps:  kinefsm          10       0.069       0.689     2.75
elaps:  nlefsm           10       0.200       1.998     7.96
elaps:  DHSCF            32       0.651      20.831    83.03
elaps:  DHSCF1            1       0.147       0.147     0.59
elaps:  DHSCF2            5       0.349       1.746     6.96
elaps:  REORD           266       0.001       0.163     0.65
elaps:  POISON           37       0.047       1.745     6.96
elaps:  DHSCF3           32       0.542      17.340    69.11
elaps:  rhoofd           32       0.039       1.235     4.92
elaps:  cellXC           32       0.396      12.665    50.48
elaps:  vmat             32       0.038       1.208     4.81
elaps:  diagon           27       0.001       0.017     0.07
elaps:  rdiag            27       0.001       0.014     0.06
elaps:  rdiag1           27       0.000       0.001     0.01
elaps:  rdiag2           27       0.000       0.002     0.01
elaps:  rdiag3           27       0.000       0.009     0.04
elaps:  rdiag4           27       0.000       0.001     0.00
elaps:  MolMec           10       0.000       0.000     0.00
elaps:  DHSCF4            5       0.313       1.567     6.25
elaps:  dfscf             5       0.271       1.356     5.41
elaps:  optical           1       0.000       0.000     0.00
  
>> End of run:  17-DEC-2006  20:00:09
