Siesta Version: siesta-4.0--527
Architecture  : x86_64-linux-n-62-18-14
Compiler flags: mpifort -m64 -fPIC -O3 -march=native -ftree-vectorize -fexpensive-optimizatioons -funroll-loops -fprefetch-loop-arrays -fno-second-underscore 
PP flags      : -I/zdata/groups/common/nicpa/2016-oct/generic/build-tools/1.0/include -I/zdatta/groups/common/nicpa/2016-oct/generic/gmp/6.1.0/include -I/zdata/groups/common/nicpa/2016-oct/generic/mpfr/3.1.4/include -I/zdata/groups/common/nicpa/2016-oct/generic/mpc/1.0.3/include -I/zdata/groups/common/nicpa/2016-oct/generic/isl/0.16.1/include -I/zdata/groups/common/nicpa/2016-oct/generic/gcc/6.2.0/include -I/zdata/groups/common/nicpa/2016-oct/generic/numactl/2.0.11/include -I/zdata/groups/common/nicpa/2016-oct/XeonE5-2665/zlib/1.2.8/gnu-6.2.0/include -I/zdata/groups/common/nicpa/2016-oct/XeonE5-2665/libxml2/2.9.4/gnu-6.2.0/include -I/zdata/groups/common/nicpa/2016-oct/XeonE5-2665/hwloc/1.11.4/gnu-6.2.0/include -I/zdata/groups/common/nicpa/2016-oct/XeonE5-2665/openmpi/2.0.1/gnu-6.2.0/include -I/zdata/groups/common/nicpa/2016-oct/XeonE5-2665/hdf5/1.8.17/gnu-6.2.0/include -I/zdata/groups/common/nicpa/2016-oct/XeonE5-2665/pnetcdf/1.7.0/gnu-6.2.0/include -I/zdata/groups/common/nicpa/2016-oct/XeonE5-2665/netcdf/4.4.1/gnu-6.2.0/include -I/zdata/groups/common/nicpa/2016-oct/XeonE5-2665/flook/0.7.0/gnu-6.2.0/include -I/zdata/groups/common/nicpa/2016-oct/XeonE5-2665/parmetis/4.0.3/gnu-6.2.0/include -I/zdata/groups/common/nicpa/2016-oct/XeonE5-2665/scalapack/204/gnu-6.2.0/include -I/zdata/groups/common/nicpa/2016-oct/XeonE5-2665/openblas/0.2.19/gnu-6.2.0/include -I/zdata/groups/common/nicpa/2016-oct/XeonE5-2665/mumps/5.0.2/gnu-6.2.0/include -I/zdata/groups/common/nicpa/2016-oct/XeonE5-2665/fftw/3.3.5/gnu-6.2.0/include -DMPI -DFC_HAVE_FLUSH -DFC_HAVE_ABORT -DCDF  -DSIESTA__METIS -DSIESTA__MUMPS -DTS_NOCHECKS -DSIESTA__FLOOK  
PARALLEL version
NetCDF support

* Running on    8 nodes in parallel
>> Start of run:   2-JUL-2017  11:56:00

                           ***********************       
                           *  WELCOME TO SIESTA  *       
                           ***********************       

reinit: Reading from standard input
************************** Dump of input data file ****************************
SystemName h2oZ
SystemLabel h2oZ
NumberOfSpecies 2
NumberOfAtoms   3
%block ChemicalSpeciesLabel
1    8 O
2    1 H
%endblock ChemicalSpeciesLabel
AtomicCoordinatesFormat NotScaledCartesianAng
ZM.ForceTolLength 0.04 eV/Ang
ZM.ForceTolAngle 0.0001 eV/deg
ZM.MaxDisplLenght 0.1 Ang
ZM.MaxDisplAngle 20.0 deg
%block Zmatrix
molecule_cartesian
  1 0 0 0   0.0 0.0 0.0 0 0 0
  2 1 0 0   HO1 90.0 37.743919 1 0 0
  2 1 2 0   HO2 HOH 90.0 1 1 0
variables
    HO1 0.956997
    HO2 0.956997
    HOH 104.0
%endblock Zmatrix
ZM.UnitsLength Ang
ZM.UnitsAngle deg
xc.functional GGA
xc.authors PBE
MD.TypeOfRun CG
MD.NumCGsteps 200
MeshCutoff 120 Ry
PAO.EnergyShift 0.01 Ry
DM.NumberPulay 5
DM.MixingWeight 0.3
************************** End of input data file *****************************

reinit: -----------------------------------------------------------------------
reinit: System Name: h2oZ
reinit: -----------------------------------------------------------------------
reinit: System Label: h2oZ                                                        
reinit: -----------------------------------------------------------------------

initatom: Reading input for the pseudopotentials and atomic orbitals ----------
 Species number:            1  Label: O Atomic number:           8
 Species number:            2  Label: H Atomic number:           1
Ground state valence configuration:   2s02  2p04
Reading pseudopotential information in formatted form from O.psf

Valence configuration for pseudopotential generation:
2s( 2.00) rc: 1.14
2p( 4.00) rc: 1.14
3d( 0.00) rc: 1.14
4f( 0.00) rc: 1.14
Ground state valence configuration:   1s01
Reading pseudopotential information in formatted form from H.psf

Valence configuration for pseudopotential generation:
1s( 1.00) rc: 1.25
2p( 0.00) rc: 1.25
3d( 0.00) rc: 1.25
4f( 0.00) rc: 1.25
For O, standard SIESTA heuristics set lmxkb to 3
 (one more than the basis l, including polarization orbitals).
Use PS.lmax or PS.KBprojectors blocks to override.
For H, standard SIESTA heuristics set lmxkb to 2
 (one more than the basis l, including polarization orbitals).
Use PS.lmax or PS.KBprojectors blocks to override.

<basis_specs>
===============================================================================
O                    Z=   8    Mass=  16.000        Charge= 0.17977+309
Lmxo=1 Lmxkb= 3    BasisType=split      Semic=F
L=0  Nsemic=0  Cnfigmx=2
          n=1  nzeta=2  polorb=0
            splnorm:   0.15000    
               vcte:    0.0000    
               rinn:    0.0000    
               qcoe:    0.0000    
               qyuk:    0.0000    
               qwid:   0.10000E-01
                rcs:    0.0000      0.0000    
            lambdas:    1.0000      1.0000    
L=1  Nsemic=0  Cnfigmx=2
          n=1  nzeta=2  polorb=1
            splnorm:   0.15000    
               vcte:    0.0000    
               rinn:    0.0000    
               qcoe:    0.0000    
               qyuk:    0.0000    
               qwid:   0.10000E-01
                rcs:    0.0000      0.0000    
            lambdas:    1.0000      1.0000    
-------------------------------------------------------------------------------
L=0  Nkbl=1  erefs: 0.17977+309
L=1  Nkbl=1  erefs: 0.17977+309
L=2  Nkbl=1  erefs: 0.17977+309
L=3  Nkbl=1  erefs: 0.17977+309
===============================================================================
</basis_specs>

atom: Called for O                     (Z =   8)

read_vps: Pseudopotential generation method:
read_vps: ATM3      Troullier-Martins                       
Total valence charge:    6.00000

xc_check: Exchange-correlation functional:
xc_check: GGA Perdew, Burke & Ernzerhof 1996
xc_check: WARNING: Pseudopotential generated with LDA CA functional
V l=0 = -2*Zval/r beyond r=  1.1278
V l=1 = -2*Zval/r beyond r=  1.1278
V l=2 = -2*Zval/r beyond r=  1.1278
V l=3 = -2*Zval/r beyond r=  1.1138
All V_l potentials equal beyond r=  1.1278
This should be close to max(r_c) in ps generation
All pots = -2*Zval/r beyond r=  1.1278

VLOCAL1: 99.0% of the norm of Vloc inside     34.126 Ry
VLOCAL1: 99.9% of the norm of Vloc inside     77.774 Ry
atom: Maximum radius for 4*pi*r*r*local-pseudopot. charge    1.37759
atom: Maximum radius for r*vlocal+2*Zval:    1.18566
GHOST: No ghost state for L =  0
GHOST: No ghost state for L =  1
GHOST: No ghost state for L =  2
GHOST: No ghost state for L =  3

KBgen: Kleinman-Bylander projectors: 
   l= 0   rc=  1.294105   el= -1.764717   Ekb=  9.120606   kbcos=  0.329038
   l= 1   rc=  1.294105   el= -0.698441   Ekb= -8.119783   kbcos= -0.400859
   l= 2   rc=  1.448233   el=  0.002031   Ekb= -2.039067   kbcos= -0.003490
   l= 3   rc=  1.561052   el=  0.003153   Ekb= -0.799361   kbcos= -0.000345

KBgen: Total number of  Kleinman-Bylander projectors:   16
atom: -------------------------------------------------------------------------

atom: SANKEY-TYPE ORBITALS:
atom: Selected multiple-zeta basis: split     

SPLIT: Orbitals with angular momentum L= 0

SPLIT: Basis orbitals for state 2s

SPLIT: PAO cut-off radius determined from an
SPLIT: energy shift=  0.010000 Ry

   izeta = 1
                 lambda =    1.000000
                     rc =    3.562532
                 energy =   -1.755511
                kinetic =    1.600463
    potential(screened) =   -3.355974
       potential(ionic) =  -11.286134

   izeta = 2
                 rmatch =    2.510382
              splitnorm =    0.150000
                 energy =   -1.503288
                kinetic =    2.454016
    potential(screened) =   -3.957304
       potential(ionic) =  -12.483069

SPLIT: Orbitals with angular momentum L= 1

SPLIT: Basis orbitals for state 2p

SPLIT: PAO cut-off radius determined from an
SPLIT: energy shift=  0.010000 Ry

   izeta = 1
                 lambda =    1.000000
                     rc =    4.243912
                 energy =   -0.688662
                kinetic =    5.026374
    potential(screened) =   -5.715036
       potential(ionic) =  -13.477958

   izeta = 2
                 rmatch =    2.573941
              splitnorm =    0.150000
                 energy =   -0.419104
                kinetic =    7.468683
    potential(screened) =   -7.887787
       potential(ionic) =  -16.547632

POLgen: Perturbative polarization orbital with L=  2

POLgen: Polarization orbital for state 2p

   izeta = 1
                     rc =    4.243912
                 energy =    2.313152
                kinetic =    4.581177
    potential(screened) =   -2.268025
       potential(ionic) =   -8.473102
atom: Total number of Sankey-type orbitals: 13

atm_pop: Valence configuration (for local Pseudopot. screening):
 2s( 2.00)                                                            
 2p( 4.00)                                                            
Vna: chval, zval:    6.00000   6.00000

Vna:  Cut-off radius for the neutral-atom potential:   4.243912

atom: _________________________________________________________________________

<basis_specs>
===============================================================================
H                    Z=   1    Mass=  1.0100        Charge= 0.17977+309
Lmxo=0 Lmxkb= 2    BasisType=split      Semic=F
L=0  Nsemic=0  Cnfigmx=1
          n=1  nzeta=2  polorb=1
            splnorm:   0.15000    
               vcte:    0.0000    
               rinn:    0.0000    
               qcoe:    0.0000    
               qyuk:    0.0000    
               qwid:   0.10000E-01
                rcs:    0.0000      0.0000    
            lambdas:    1.0000      1.0000    
-------------------------------------------------------------------------------
L=0  Nkbl=1  erefs: 0.17977+309
L=1  Nkbl=1  erefs: 0.17977+309
L=2  Nkbl=1  erefs: 0.17977+309
===============================================================================
</basis_specs>

atom: Called for H                     (Z =   1)

read_vps: Pseudopotential generation method:
read_vps: ATM3      Troullier-Martins                       
Total valence charge:    1.00000

xc_check: Exchange-correlation functional:
xc_check: GGA Perdew, Burke & Ernzerhof 1996
xc_check: WARNING: Pseudopotential generated with LDA CA functional
V l=0 = -2*Zval/r beyond r=  1.2343
V l=1 = -2*Zval/r beyond r=  1.2189
V l=2 = -2*Zval/r beyond r=  1.2189
All V_l potentials equal beyond r=  1.2343
This should be close to max(r_c) in ps generation
All pots = -2*Zval/r beyond r=  1.2343

VLOCAL1: 99.0% of the norm of Vloc inside     28.493 Ry
VLOCAL1: 99.9% of the norm of Vloc inside     64.935 Ry
atom: Maximum radius for 4*pi*r*r*local-pseudopot. charge    1.45251
atom: Maximum radius for r*vlocal+2*Zval:    1.21892
GHOST: No ghost state for L =  0
GHOST: No ghost state for L =  1
GHOST: No ghost state for L =  2

KBgen: Kleinman-Bylander projectors: 
   l= 0   rc=  1.364359   el= -0.488086   Ekb= -2.002077   kbcos= -0.347561
   l= 1   rc=  1.434438   el=  0.001075   Ekb= -0.501617   kbcos= -0.021754
   l= 2   rc=  1.470814   el=  0.002010   Ekb= -0.190607   kbcos= -0.002284

KBgen: Total number of  Kleinman-Bylander projectors:    9
atom: -------------------------------------------------------------------------

atom: SANKEY-TYPE ORBITALS:
atom: Selected multiple-zeta basis: split     

SPLIT: Orbitals with angular momentum L= 0

SPLIT: Basis orbitals for state 1s

SPLIT: PAO cut-off radius determined from an
SPLIT: energy shift=  0.010000 Ry

   izeta = 1
                 lambda =    1.000000
                     rc =    5.204501
                 energy =   -0.478113
                kinetic =    0.940144
    potential(screened) =   -1.418257
       potential(ionic) =   -1.931985

   izeta = 2
                 rmatch =    3.903467
              splitnorm =    0.150000
                 energy =   -0.372060
                kinetic =    1.517336
    potential(screened) =   -1.889395
       potential(ionic) =   -2.425474

POLgen: Perturbative polarization orbital with L=  1

POLgen: Polarization orbital for state 1s

   izeta = 1
                     rc =    5.204501
                 energy =    0.663382
                kinetic =    1.340502
    potential(screened) =   -0.677120
       potential(ionic) =   -1.151756
atom: Total number of Sankey-type orbitals:  5

atm_pop: Valence configuration (for local Pseudopot. screening):
 1s( 1.00)                                                            
Vna: chval, zval:    1.00000   1.00000

Vna:  Cut-off radius for the neutral-atom potential:   5.204501

atom: _________________________________________________________________________

prinput: Basis input ----------------------------------------------------------

PAO.BasisType split     

%block ChemicalSpeciesLabel
    1    8 O                       # Species index, atomic number, species label
    2    1 H                       # Species index, atomic number, species label
%endblock ChemicalSpeciesLabel

%block PAO.Basis                 # Define Basis set
O                     2                    # Species label, number of l-shells
 n=2   0   2                         # n, l, Nzeta 
   3.563      2.510   
   1.000      1.000   
 n=2   1   2 P   1                   # n, l, Nzeta, Polarization, NzetaPol
   4.244      2.574   
   1.000      1.000   
H                     1                    # Species label, number of l-shells
 n=1   0   2 P   1                   # n, l, Nzeta, Polarization, NzetaPol
   5.205      3.903   
   1.000      1.000   
%endblock PAO.Basis

prinput: ----------------------------------------------------------------------

Dumping basis to NetCDF file O.ion.nc
Dumping basis to NetCDF file H.ion.nc
coor:   Atomic-coordinates input format  =     Cartesian coordinates
coor:                                          (in Angstroms)
read_Zmatrix: Length units: Ang       
read_Zmatrix: Angle  units: deg       
read_Zmatrix: Force tolerances:
read_Zmatrix:    for lengths =     0.001556 Ry/Bohr
read_Zmatrix:    for angles  =     0.000421 Ry/rad

read_Zmatrix: Maximum displacements:
read_Zmatrix:    for lengths =     0.200000 Bohr
read_Zmatrix:    for angles  =     0.349066 rad
%block Zmatrix
molecule_cartesian
  1 0 0 0   0.0 0.0 0.0 0 0 0
  2 1 0 0   HO1 90.0 37.743919 1 0 0
  2 1 2 0   HO2 HOH 90.0 1 1 0
variables
    HO1 0.956997
    HO2 0.956997
    HOH 104.0
%endblock Zmatrix
 nZmol:            1
 nSpecies:            1           2           2

zmatrix: Z-matrix coordinates: (Ang ; deg )
zmatrix: (Fractional coordinates have been converted to cartesian)
molecule    1 (     3 atoms)
      0.00000000      0.00000000      0.00000000
      0.95699700     90.00000000     37.74391900
      0.95699700    104.00000000     90.00000000


Z-matrix Symbol Section -------
Variables
 HO1         0.95699699999999988     
 HO2         0.95699699999999988     
 HOH          104.00000000000014     
Constants
------------ End of Z-matrix Information


siesta: Atomic coordinates (Bohr) and species
siesta:      0.00000   0.00000   0.00000  1        1
siesta:      1.43005   1.10702  -0.00000  2        2
siesta:     -1.42010   1.11976  -0.00000  2        3

siesta: Automatic unit cell vectors (Ang):
siesta:    7.718081    0.000000    0.000000
siesta:    0.000000    6.151677    0.000000
siesta:    0.000000    0.000000    6.059025

siesta: System type = molecule  

initatomlists: Number of atoms, orbitals, and projectors:      3    23    34

siesta: ******************** Simulation parameters ****************************
siesta:
siesta: The following are some of the parameters of the simulation.
siesta: A complete list of the parameters used, including default values,
siesta: can be found in file out.fdf
siesta:
redata: Non-Collinear-spin run           =     F
redata: SpinPolarized (Up/Down) run      =     F
redata: Number of spin components        =     1
redata: Long output                      =     F
redata: Number of Atomic Species         =        2
redata: Charge density info will appear in .RHO file
redata: Write Mulliken Pop.              =     NO
redata: Mesh Cutoff                      =   120.0000  Ry
redata: Net charge of the system         =     0.0000 |e|
redata: Min. number of SCF Iter          =        0
redata: Max. number of SCF Iter          =       50
redata: Mix DM or H after convergence    =     F
redata: Recompute H after scf cycle      =     F
redata: Performing Pulay mixing using    =     5 iterations
redata: Mix DM in first SCF step ?       =     F
redata: Write Pulay info on disk?        =     F
redata: Discard 1st Pulay DM after  kick =     F
redata: New DM Mixing Weight             =     0.3000
redata: New DM Occupancy tolerance       = 0.000000000001
redata: No kicks to SCF
redata: DM Mixing Weight for Kicks       =     0.5000
redata: DM Tolerance for SCF             =     0.000100
redata: Require (free) Energy convergence in SCF =     F
redata: DM (free)Energy tolerance for SCF =     0.000010 eV
redata: Require Harris convergence for SCF =     F
redata: DM Harris energy tolerance for SCF =     0.000010 eV
redata: Using Saved Data (generic)   =     F
redata: Use continuation files for DM    =     F
redata: Neglect nonoverlap interactions  =     F
redata: Method of Calculation            =     Diagonalization
redata: Divide and Conquer               =     T
redata: Electronic Temperature           =     0.0019  Ry
redata: Fix the spin of the system       =     F
redata: Dynamics option                  =     CG coord. optimization
redata: Variable cell                    =     F
redata: Use continuation files for CG    =     F
redata: Max atomic displ per move        =     0.2000  Bohr
redata: Maximum number of CG moves       =      200
redata: Force tolerance                  =     0.0016  Ry/Bohr
redata: ***********************************************************************
Total number of electrons:     8.000000
Total ionic charge:     8.000000

* ProcessorY, Blocksize:    2   3


* Orbital distribution balance (max,min):     3     2

 Kpoints in:            1 . Kpoints trimmed:            1

siesta: k-grid: Number of k-points =     1
siesta: k-grid: Cutoff (effective) =     3.030 Ang
siesta: k-grid: Supercell and displacements
siesta: k-grid:    1   0   0      0.000
siesta: k-grid:    0   1   0      0.000
siesta: k-grid:    0   0   1      0.000

                     ====================================
                        Begin CG opt. move =      0

zmatrix: Z-matrix coordinates: (Ang ; deg )
zmatrix: (Fractional coordinates have been converted to cartesian)
molecule    1 (     3 atoms)
      0.00000000      0.00000000      0.00000000
      0.95699700     90.00000000     37.74391900
      0.95699700    104.00000000     90.00000000


Z-matrix Symbol Section -------
Variables
 HO1         0.95699699999999988     
 HO2         0.95699699999999988     
 HOH          104.00000000000014     
Constants
------------ End of Z-matrix Information

                     ====================================

outcell: Unit cell vectors (Ang):
        7.718081    0.000000    0.000000
        0.000000    6.151677    0.000000
        0.000000    0.000000    6.059025

outcell: Cell vector modules (Ang)   :    7.718081    6.151677    6.059025
outcell: Cell angles (23,13,12) (deg):     90.0000     90.0000     90.0000
outcell: Cell volume (Ang**3)        :    287.6773
New_DM. Step:     1
Initializing Density Matrix...
New grid distribution:   1
           1       1:   27    1:   12    1:    5
           2       1:   27    1:   12    6:   10
           3       1:   27    1:   12   11:   15
           4       1:   27    1:   12   16:   20
           5       1:   27   13:   24    1:    5
           6       1:   27   13:   24    6:   10
           7       1:   27   13:   24   11:   15
           8       1:   27   13:   24   16:   20

InitMesh: MESH =    54 x    48 x    40 =      103680
InitMesh: (bp) =    27 x    24 x    20 =       12960
InitMesh: Mesh cutoff (required, used) =   120.000   120.453 Ry
ExtMesh (bp) on 0 =    67 x    56 x    45 =      168840
New grid distribution:   2
           1       9:   27    8:   24    1:    7
           2       9:   27    1:    7    1:    7
           3       9:   27    1:    7    8:   20
           4       1:    8    1:    7    8:   20
           5       1:    8    8:   24    1:    7
           6       1:    8    1:    7    1:    7
           7       9:   27    8:   24    8:   20
           8       1:    8    8:   24    8:   20
New grid distribution:   3
           1      12:   27    1:    8    1:    9
           2       1:   11    1:    8   10:   20
           3       1:   11    9:   24    9:   20
           4      12:   27    1:    8   10:   20
           5      12:   27    9:   24    1:    8
           6       1:   11    9:   24    1:    8
           7      12:   27    9:   24    9:   20
           8       1:   11    1:    8    1:    9
Setting up quadratic distribution...
ExtMesh (bp) on 0 =    59 x    61 x    47 =      169153
PhiOnMesh: Number of (b)points on node 0 =                 2261
PhiOnMesh: nlist on node 0 =                 8567

stepf: Fermi-Dirac step function

siesta: Program's energy decomposition (eV):
siesta: Ebs     =      -127.275201
siesta: Eions   =       815.854478
siesta: Ena     =       174.498421
siesta: Ekin    =       342.686634
siesta: Enl     =       -53.683622
siesta: DEna    =        -0.000001
siesta: DUscf   =         0.000000
siesta: DUext   =         0.000000
siesta: Exc     =      -112.286041
siesta: eta*DQ  =         0.000000
siesta: Emadel  =         0.000000
siesta: Emeta   =         0.000000
siesta: Emolmec =         0.000000
siesta: Ekinion =         0.000000
siesta: Eharris =      -469.535111
siesta: Etot    =      -464.639087
siesta: FreeEng =      -464.639087

   scf: iscf   Eharris(eV)      E_KS(eV)   FreeEng(eV)    dDmax  Ef(eV)
   scf:    1     -469.5351     -464.6391     -464.6391  1.20686 -5.7875
timer: Routine,Calls,Time,% =    IterSCF     1       0.045   4.07
   scf:    2     -470.5150     -467.7788     -467.7788  0.26828 -0.6880
   scf:    3     -468.7759     -467.8849     -467.8849  0.10166 -3.1630
   scf:    4     -468.7570     -468.3990     -468.3990  0.01358 -3.3152
   scf:    5     -468.7566     -468.5440     -468.5440  0.00530 -3.3323
   scf:    6     -468.7566     -468.7357     -468.7357  0.00080 -3.3079
   scf:    7     -468.7566     -468.7556     -468.7556  0.00025 -3.3088
   scf:    8     -468.7566     -468.7564     -468.7564  0.00014 -3.3117
   scf:    9     -468.7566     -468.7566     -468.7566  0.00005 -3.3116

SCF Convergence by dMax criterion
max |DM_out - DM_in|:     0.00004720
SCF cycle converged after    9 iterations

Using DM_out to compute the final energy and forces

siesta: E_KS(eV) =             -468.7566

siesta: E_KS - E_eggbox =      -468.7566

zmatrix: Atomic forces (eV/Ang ; eV/deg )
zmatrix: (No information if symbols are used)
molecule    1 (     3 atoms)
     1    0.000000    0.000000    0.000000
     2    0.000000    0.000000    0.000000
     3    0.000000    0.000000    0.000000


Variable forces (eV/Ang ; eV/deg )
 HO1         0.57002620067398624     
 HO2         0.57252649058290739     
 HOH          2.1352030935531002E-003

siesta: Atomic forces (eV/Ang):
----------------------------------------
   Tot   -0.001958    0.093064   -0.000000
----------------------------------------
   Max    0.528730
   Res    0.307830    sqrt( Sum f_i^2 / 3N )
----------------------------------------
   Max    0.528730    constrained

Stress-tensor-Voigt (kbar):       -4.36       -1.26       -0.49        0.01        0.00        0.00
(Free)E + p*V (eV/cell)     -468.3908
Target enthalpy (eV/cell)     -468.7566

                     ====================================
                        Begin CG opt. move =      1

zmatrix: Z-matrix coordinates: (Ang ; deg )
zmatrix: (Fractional coordinates have been converted to cartesian)
molecule    1 (     3 atoms)
      0.00000000      0.00000000      0.00000000
      1.06237020     90.00000000     37.74391900
      1.06283240    108.62719609     90.00000000


Z-matrix Symbol Section -------
Variables
 HO1          1.0623702044737156     
 HO2          1.0628324000000000     
 HOH          108.62719609207346     
Constants
------------ End of Z-matrix Information

                     ====================================

outcell: Unit cell vectors (Ang):
        7.718081    0.000000    0.000000
        0.000000    6.151677    0.000000
        0.000000    0.000000    6.059025

outcell: Cell vector modules (Ang)   :    7.718081    6.151677    6.059025
outcell: Cell angles (23,13,12) (deg):     90.0000     90.0000     90.0000
outcell: Cell volume (Ang**3)        :    287.6773
New_DM. Step:     2
Re-using DM from previous geometry...
Re-using DM without extrapolation (not allowed)
Density Matrix sparsity pattern changed.
Note: For starting DM, Qtot, Tr[D*S] =          8.00000000          7.87368669
New grid distribution:   1
           1       1:   27    1:   12    1:    5
           2       1:   27    1:   12    6:   10
           3       1:   27    1:   12   11:   15
           4       1:   27    1:   12   16:   20
           5       1:   27   13:   24    1:    5
           6       1:   27   13:   24    6:   10
           7       1:   27   13:   24   11:   15
           8       1:   27   13:   24   16:   20

InitMesh: MESH =    54 x    48 x    40 =      103680
InitMesh: (bp) =    27 x    24 x    20 =       12960
InitMesh: Mesh cutoff (required, used) =   120.000   120.453 Ry
ExtMesh (bp) on 0 =    67 x    56 x    45 =      168840
New grid distribution:   2
           1       9:   27    8:   24    1:    7
           2       9:   27    1:    7    1:    7
           3       9:   27    1:    7    8:   20
           4       1:    8    1:    7    8:   20
           5       1:    8    8:   24    1:    7
           6       1:    8    1:    7    1:    7
           7       9:   27    8:   24    8:   20
           8       1:    8    8:   24    8:   20
New grid distribution:   3
           1       1:   12    9:   24    1:    8
           2       1:   12    1:    8   10:   20
           3       1:   12    9:   24    9:   20
           4      13:   27    1:    8   10:   20
           5      13:   27    9:   24    1:    8
           6      13:   27    1:    8    1:    9
           7      13:   27    9:   24    9:   20
           8       1:   12    1:    8    1:    9
Setting up quadratic distribution...
ExtMesh (bp) on 0 =    59 x    61 x    47 =      169153
PhiOnMesh: Number of (b)points on node 0 =                 2261
PhiOnMesh: nlist on node 0 =                 8691

   scf: iscf   Eharris(eV)      E_KS(eV)   FreeEng(eV)    dDmax  Ef(eV)
   scf:    1     -468.4152     -467.1388     -467.1388  0.15250 -2.8998
   scf:    2     -468.4327     -468.3463     -468.3463  0.06727 -3.5154
   scf:    3     -468.3797     -468.1885     -468.1885  0.01616 -3.1139
   scf:    4     -468.3794     -468.3495     -468.3495  0.00491 -3.0941
   scf:    5     -468.3792     -468.3708     -468.3708  0.00115 -3.1110
   scf:    6     -468.3792     -468.3761     -468.3761  0.00027 -3.1080
   scf:    7     -468.3792     -468.3788     -468.3788  0.00010 -3.1076

SCF Convergence by dMax criterion
max |DM_out - DM_in|:     0.00009612
SCF cycle converged after    7 iterations

Using DM_out to compute the final energy and forces

siesta: E_KS(eV) =             -468.3792

zmatrix: Atomic forces (eV/Ang ; eV/deg )
zmatrix: (No information if symbols are used)
molecule    1 (     3 atoms)
     1    0.000000    0.000000    0.000000
     2    0.000000    0.000000    0.000000
     3    0.000000    0.000000    0.000000


Variable forces (eV/Ang ; eV/deg )
 HO1         -3.4161421908816405     
 HO2         -3.4395314194909665     
 HOH         -9.1655242037819544E-003

siesta: Atomic forces (eV/Ang):
----------------------------------------
   Tot    0.004109    0.103959   -0.000000
----------------------------------------
   Max    3.293326
   Res    1.967972    sqrt( Sum f_i^2 / 3N )
----------------------------------------
   Max    3.293326    constrained

Stress-tensor-Voigt (kbar):       29.67       11.43       -0.51        0.62        0.00       -0.00
(Free)E + p*V (eV/cell)     -470.8084
Target enthalpy (eV/cell)     -468.3792

                     ====================================
                        Begin CG opt. move =      2

zmatrix: Z-matrix coordinates: (Ang ; deg )
zmatrix: (Fractional coordinates have been converted to cartesian)
molecule    1 (     3 atoms)
      0.00000000      0.00000000      0.00000000
      0.97233277     90.00000000     37.74391900
      0.97240003    104.67343110     90.00000000


Z-matrix Symbol Section -------
Variables
 HO1         0.97233276528662138     
 HO2         0.97240003212303416     
 HOH          104.67343110193565     
Constants
------------ End of Z-matrix Information

                     ====================================

outcell: Unit cell vectors (Ang):
        7.718081    0.000000    0.000000
        0.000000    6.151677    0.000000
        0.000000    0.000000    6.059025

outcell: Cell vector modules (Ang)   :    7.718081    6.151677    6.059025
outcell: Cell angles (23,13,12) (deg):     90.0000     90.0000     90.0000
outcell: Cell volume (Ang**3)        :    287.6773
New_DM. Step:     3
Re-using DM from previous geometry...
Re-using DM without extrapolation (not allowed)
Note: For starting DM, Qtot, Tr[D*S] =          8.00000000          8.10113071
New grid distribution:   1
           1       1:   27    1:   12    1:    5
           2       1:   27    1:   12    6:   10
           3       1:   27    1:   12   11:   15
           4       1:   27    1:   12   16:   20
           5       1:   27   13:   24    1:    5
           6       1:   27   13:   24    6:   10
           7       1:   27   13:   24   11:   15
           8       1:   27   13:   24   16:   20

InitMesh: MESH =    54 x    48 x    40 =      103680
InitMesh: (bp) =    27 x    24 x    20 =       12960
InitMesh: Mesh cutoff (required, used) =   120.000   120.453 Ry
ExtMesh (bp) on 0 =    67 x    56 x    45 =      168840
New grid distribution:   2
           1       9:   27    8:   24    1:    7
           2       9:   27    1:    7    1:    7
           3       9:   27    1:    7    8:   20
           4       1:    8    1:    7    8:   20
           5       1:    8    8:   24    1:    7
           6       1:    8    1:    7    1:    7
           7       9:   27    8:   24    8:   20
           8       1:    8    8:   24    8:   20
New grid distribution:   3
           1      12:   27    1:    8    1:    9
           2       1:   11    1:    8   10:   20
           3       1:   11    9:   24    9:   20
           4      12:   27    1:    8   10:   20
           5      12:   27    9:   24    1:    8
           6       1:   11    9:   24    1:    8
           7      12:   27    9:   24    9:   20
           8       1:   11    1:    8    1:    9
Setting up quadratic distribution...
ExtMesh (bp) on 0 =    59 x    61 x    47 =      169153
PhiOnMesh: Number of (b)points on node 0 =                 2261
PhiOnMesh: nlist on node 0 =                 8579

   scf: iscf   Eharris(eV)      E_KS(eV)   FreeEng(eV)    dDmax  Ef(eV)
   scf:    1     -468.7941     -469.5676     -469.5676  0.13112 -3.5409
   scf:    2     -468.8252     -468.7254     -468.7254  0.05977 -2.7864
   scf:    3     -468.7632     -468.8827     -468.8827  0.01450 -3.2314
   scf:    4     -468.7627     -468.7610     -468.7610  0.00294 -3.2676
   scf:    5     -468.7626     -468.7640     -468.7640  0.00051 -3.2566
   scf:    6     -468.7626     -468.7630     -468.7630  0.00033 -3.2550
   scf:    7     -468.7626     -468.7625     -468.7625  0.00005 -3.2568

SCF Convergence by dMax criterion
max |DM_out - DM_in|:     0.00005137
SCF cycle converged after    7 iterations

Using DM_out to compute the final energy and forces

siesta: E_KS(eV) =             -468.7626

zmatrix: Atomic forces (eV/Ang ; eV/deg )
zmatrix: (No information if symbols are used)
molecule    1 (     3 atoms)
     1    0.000000    0.000000    0.000000
     2    0.000000    0.000000    0.000000
     3    0.000000    0.000000    0.000000


Variable forces (eV/Ang ; eV/deg )
 HO1        -0.21784921710313229     
 HO2        -0.22196792694912140     
 HOH          2.2546694194342076E-004

siesta: Atomic forces (eV/Ang):
----------------------------------------
   Tot    0.000281    0.096600   -0.000000
----------------------------------------
   Max    0.386277
   Res    0.165428    sqrt( Sum f_i^2 / 3N )
----------------------------------------
   Max    0.386277    constrained

Stress-tensor-Voigt (kbar):        1.46        1.35       -0.49       -0.01        0.00       -0.00
(Free)E + p*V (eV/cell)     -468.9014
Target enthalpy (eV/cell)     -468.7626

cgvc_zmatrix: Finished line minimization    1.  Mean atomic displacement =    0.0247

                     ====================================
                        Begin CG opt. move =      3

zmatrix: Z-matrix coordinates: (Ang ; deg )
zmatrix: (Fractional coordinates have been converted to cartesian)
molecule    1 (     3 atoms)
      0.00000000      0.00000000      0.00000000
      0.98071487     90.00000000     37.74391900
      0.98036935    106.77670763     90.00000000


Z-matrix Symbol Section -------
Variables
 HO1         0.98071486752008341     
 HO2         0.98036935482236254     
 HOH          106.77670762891775     
Constants
------------ End of Z-matrix Information

                     ====================================

outcell: Unit cell vectors (Ang):
        7.718081    0.000000    0.000000
        0.000000    6.151677    0.000000
        0.000000    0.000000    6.059025

outcell: Cell vector modules (Ang)   :    7.718081    6.151677    6.059025
outcell: Cell angles (23,13,12) (deg):     90.0000     90.0000     90.0000
outcell: Cell volume (Ang**3)        :    287.6773
New_DM. Step:     4
Re-using DM from previous geometry...
Re-using DM without extrapolation (not allowed)
New grid distribution:   1
           1       1:   27    1:   12    1:    5
           2       1:   27    1:   12    6:   10
           3       1:   27    1:   12   11:   15
           4       1:   27    1:   12   16:   20
           5       1:   27   13:   24    1:    5
           6       1:   27   13:   24    6:   10
           7       1:   27   13:   24   11:   15
           8       1:   27   13:   24   16:   20

InitMesh: MESH =    54 x    48 x    40 =      103680
InitMesh: (bp) =    27 x    24 x    20 =       12960
InitMesh: Mesh cutoff (required, used) =   120.000   120.453 Ry
ExtMesh (bp) on 0 =    67 x    56 x    45 =      168840
New grid distribution:   2
           1       9:   27    8:   24    1:    7
           2       9:   27    1:    7    1:    7
           3       9:   27    1:    7    8:   20
           4       1:    8    1:    7    8:   20
           5       1:    8    8:   24    1:    7
           6       1:    8    1:    7    1:    7
           7       9:   27    8:   24    8:   20
           8       1:    8    8:   24    8:   20
New grid distribution:   3
           1      12:   27    1:    8    1:    9
           2       1:   11    1:    8   10:   20
           3       1:   11    9:   24    9:   20
           4      12:   27    1:    8   10:   20
           5      12:   27    9:   24    1:    8
           6       1:   11    9:   24    1:    8
           7      12:   27    9:   24    9:   20
           8       1:   11    1:    8    1:    9
Setting up quadratic distribution...
ExtMesh (bp) on 0 =    59 x    61 x    47 =      169153
PhiOnMesh: Number of (b)points on node 0 =                 2261
PhiOnMesh: nlist on node 0 =                 8614

   scf: iscf   Eharris(eV)      E_KS(eV)   FreeEng(eV)    dDmax  Ef(eV)
   scf:    1     -468.7536     -468.6599     -468.6599  0.02761 -3.1616
   scf:    2     -468.7527     -468.7522     -468.7522  0.00195 -3.1534
   scf:    3     -468.7526     -468.7485     -468.7485  0.00120 -3.1532
   scf:    4     -468.7525     -468.7519     -468.7519  0.00041 -3.1560
   scf:    5     -468.7525     -468.7523     -468.7523  0.00015 -3.1571
   scf:    6     -468.7525     -468.7525     -468.7525  0.00002 -3.1566

SCF Convergence by dMax criterion
max |DM_out - DM_in|:     0.00001574
SCF cycle converged after    6 iterations

Using DM_out to compute the final energy and forces

siesta: E_KS(eV) =             -468.7525

zmatrix: Atomic forces (eV/Ang ; eV/deg )
zmatrix: (No information if symbols are used)
molecule    1 (     3 atoms)
     1    0.000000    0.000000    0.000000
     2    0.000000    0.000000    0.000000
     3    0.000000    0.000000    0.000000


Variable forces (eV/Ang ; eV/deg )
 HO1        -0.67012974477430354     
 HO2        -0.65459791313438875     
 HOH         -2.8550334444693731E-003

siesta: Atomic forces (eV/Ang):
----------------------------------------
   Tot   -0.001814    0.097586   -0.000000
----------------------------------------
   Max    0.633148
   Res    0.382447    sqrt( Sum f_i^2 / 3N )
----------------------------------------
   Max    0.633148    constrained

Stress-tensor-Voigt (kbar):        5.57        2.07       -0.49        0.11        0.00       -0.00
(Free)E + p*V (eV/cell)     -469.1805
Target enthalpy (eV/cell)     -468.7525

                     ====================================
                        Begin CG opt. move =      4

zmatrix: Z-matrix coordinates: (Ang ; deg )
zmatrix: (Fractional coordinates have been converted to cartesian)
molecule    1 (     3 atoms)
      0.00000000      0.00000000      0.00000000
      0.97042589     90.00000000     37.74391900
      0.97058706    104.19494948     90.00000000


Z-matrix Symbol Section -------
Variables
 HO1         0.97042589196351836     
 HO2         0.97058706343865297     
 HOH          104.19494947659827     
Constants
------------ End of Z-matrix Information

                     ====================================

outcell: Unit cell vectors (Ang):
        7.718081    0.000000    0.000000
        0.000000    6.151677    0.000000
        0.000000    0.000000    6.059025

outcell: Cell vector modules (Ang)   :    7.718081    6.151677    6.059025
outcell: Cell angles (23,13,12) (deg):     90.0000     90.0000     90.0000
outcell: Cell volume (Ang**3)        :    287.6773
New_DM. Step:     5
Re-using DM from previous geometry...
Re-using DM without extrapolation (not allowed)
Density Matrix sparsity pattern changed.
New grid distribution:   1
           1       1:   27    1:   12    1:    5
           2       1:   27    1:   12    6:   10
           3       1:   27    1:   12   11:   15
           4       1:   27    1:   12   16:   20
           5       1:   27   13:   24    1:    5
           6       1:   27   13:   24    6:   10
           7       1:   27   13:   24   11:   15
           8       1:   27   13:   24   16:   20

InitMesh: MESH =    54 x    48 x    40 =      103680
InitMesh: (bp) =    27 x    24 x    20 =       12960
InitMesh: Mesh cutoff (required, used) =   120.000   120.453 Ry
ExtMesh (bp) on 0 =    67 x    56 x    45 =      168840
New grid distribution:   2
           1       9:   27    8:   24    1:    7
           2       9:   27    1:    7    1:    7
           3       9:   27    1:    7    8:   20
           4       1:    8    1:    7    8:   20
           5       1:    8    8:   24    1:    7
           6       1:    8    1:    7    1:    7
           7       9:   27    8:   24    8:   20
           8       1:    8    8:   24    8:   20
New grid distribution:   3
           1      12:   27    1:    8    1:    9
           2       1:   11    1:    8   10:   20
           3       1:   11    9:   24    9:   20
           4      12:   27    1:    8   10:   20
           5      12:   27    9:   24    1:    8
           6       1:   11    9:   24    1:    8
           7      12:   27    9:   24    9:   20
           8       1:   11    1:    8    1:    9
Setting up quadratic distribution...
ExtMesh (bp) on 0 =    59 x    61 x    47 =      169153
PhiOnMesh: Number of (b)points on node 0 =                 2261
PhiOnMesh: nlist on node 0 =                 8571

   scf: iscf   Eharris(eV)      E_KS(eV)   FreeEng(eV)    dDmax  Ef(eV)
   scf:    1     -468.7644     -468.8704     -468.8704  0.03386 -3.2779
   scf:    2     -468.7632     -468.7624     -468.7624  0.00269 -3.2817
   scf:    3     -468.7630     -468.7671     -468.7671  0.00155 -3.2854
   scf:    4     -468.7629     -468.7636     -468.7636  0.00052 -3.2831
   scf:    5     -468.7629     -468.7631     -468.7631  0.00021 -3.2811
   scf:    6     -468.7629     -468.7629     -468.7629  0.00002 -3.2816

SCF Convergence by dMax criterion
max |DM_out - DM_in|:     0.00001965
SCF cycle converged after    6 iterations

Using DM_out to compute the final energy and forces

siesta: E_KS(eV) =             -468.7629

zmatrix: Atomic forces (eV/Ang ; eV/deg )
zmatrix: (No information if symbols are used)
molecule    1 (     3 atoms)
     1    0.000000    0.000000    0.000000
     2    0.000000    0.000000    0.000000
     3    0.000000    0.000000    0.000000


Variable forces (eV/Ang ; eV/deg )
 HO1        -0.11150937140544227     
 HO2        -0.11850025122766304     
 HOH          9.5393771086292687E-004

siesta: Atomic forces (eV/Ang):
----------------------------------------
   Tot   -0.000602    0.097118   -0.000000
----------------------------------------
   Max    0.327463
   Res    0.124769    sqrt( Sum f_i^2 / 3N )
----------------------------------------
   Max    0.327463    constrained

Stress-tensor-Voigt (kbar):        0.53        1.16       -0.49       -0.02        0.00        0.00
(Free)E + p*V (eV/cell)     -468.8345
Target enthalpy (eV/cell)     -468.7629

cgvc_zmatrix: Finished line minimization    2.  Mean atomic displacement =    0.0056

                     ====================================
                        Begin CG opt. move =      5

zmatrix: Z-matrix coordinates: (Ang ; deg )
zmatrix: (Fractional coordinates have been converted to cartesian)
molecule    1 (     3 atoms)
      0.00000000      0.00000000      0.00000000
      0.96720858     90.00000000     37.74391900
      0.96719682    104.42735891     90.00000000


Z-matrix Symbol Section -------
Variables
 HO1         0.96720858305283175     
 HO2         0.96719681564760585     
 HOH          104.42735890989927     
Constants
------------ End of Z-matrix Information

                     ====================================

outcell: Unit cell vectors (Ang):
        7.718081    0.000000    0.000000
        0.000000    6.151677    0.000000
        0.000000    0.000000    6.059025

outcell: Cell vector modules (Ang)   :    7.718081    6.151677    6.059025
outcell: Cell angles (23,13,12) (deg):     90.0000     90.0000     90.0000
outcell: Cell volume (Ang**3)        :    287.6773
New_DM. Step:     6
Re-using DM from previous geometry...
Re-using DM without extrapolation (not allowed)
New grid distribution:   1
           1       1:   27    1:   12    1:    5
           2       1:   27    1:   12    6:   10
           3       1:   27    1:   12   11:   15
           4       1:   27    1:   12   16:   20
           5       1:   27   13:   24    1:    5
           6       1:   27   13:   24    6:   10
           7       1:   27   13:   24   11:   15
           8       1:   27   13:   24   16:   20

InitMesh: MESH =    54 x    48 x    40 =      103680
InitMesh: (bp) =    27 x    24 x    20 =       12960
InitMesh: Mesh cutoff (required, used) =   120.000   120.453 Ry
ExtMesh (bp) on 0 =    67 x    56 x    45 =      168840
New grid distribution:   2
           1       9:   27    8:   24    1:    7
           2       9:   27    1:    7    1:    7
           3       9:   27    1:    7    8:   20
           4       1:    8    1:    7    8:   20
           5       1:    8    8:   24    1:    7
           6       1:    8    1:    7    1:    7
           7       9:   27    8:   24    8:   20
           8       1:    8    8:   24    8:   20
New grid distribution:   3
           1      12:   27    1:    8    1:    9
           2       1:   11    1:    8   10:   20
           3       1:   11    9:   24    9:   20
           4      12:   27    1:    8   10:   20
           5      12:   27    9:   24    1:    8
           6       1:   11    9:   24    1:    8
           7      12:   27    9:   24    9:   20
           8       1:   11    1:    8    1:    9
Setting up quadratic distribution...
ExtMesh (bp) on 0 =    59 x    61 x    47 =      169153
PhiOnMesh: Number of (b)points on node 0 =                 2261
PhiOnMesh: nlist on node 0 =                 8567

   scf: iscf   Eharris(eV)      E_KS(eV)   FreeEng(eV)    dDmax  Ef(eV)
   scf:    1     -468.7634     -468.8004     -468.8004  0.00580 -3.2898
   scf:    2     -468.7635     -468.7633     -468.7633  0.00288 -3.2534
   scf:    3     -468.7634     -468.7702     -468.7702  0.00075 -3.2739
   scf:    4     -468.7634     -468.7637     -468.7637  0.00014 -3.2757
   scf:    5     -468.7634     -468.7635     -468.7635  0.00002 -3.2755

SCF Convergence by dMax criterion
max |DM_out - DM_in|:     0.00002332
SCF cycle converged after    5 iterations

Using DM_out to compute the final energy and forces

siesta: E_KS(eV) =             -468.7634

zmatrix: Atomic forces (eV/Ang ; eV/deg )
zmatrix: (No information if symbols are used)
molecule    1 (     3 atoms)
     1    0.000000    0.000000    0.000000
     2    0.000000    0.000000    0.000000
     3    0.000000    0.000000    0.000000


Variable forces (eV/Ang ; eV/deg )
 HO1          3.7911545330468338E-002
 HO2          3.8659213719415698E-002
 HOH          8.7899120730527687E-004

siesta: Atomic forces (eV/Ang):
----------------------------------------
   Tot   -0.000210    0.095723   -0.000000
----------------------------------------
   Max    0.131057
   Res    0.053254    sqrt( Sum f_i^2 / 3N )
----------------------------------------
   Max    0.131057    constrained

Stress-tensor-Voigt (kbar):       -0.48        0.51       -0.49        0.00        0.00        0.00
(Free)E + p*V (eV/cell)     -468.7359
Target enthalpy (eV/cell)     -468.7634

                     ====================================
                        Begin CG opt. move =      6

zmatrix: Z-matrix coordinates: (Ang ; deg )
zmatrix: (Fractional coordinates have been converted to cartesian)
molecule    1 (     3 atoms)
      0.00000000      0.00000000      0.00000000
      0.96736072     90.00000000     37.74391900
      0.96735713    104.41636884     90.00000000


Z-matrix Symbol Section -------
Variables
 HO1         0.96736072169617815     
 HO2         0.96735713214622510     
 HOH          104.41636883811417     
Constants
------------ End of Z-matrix Information

                     ====================================

outcell: Unit cell vectors (Ang):
        7.718081    0.000000    0.000000
        0.000000    6.151677    0.000000
        0.000000    0.000000    6.059025

outcell: Cell vector modules (Ang)   :    7.718081    6.151677    6.059025
outcell: Cell angles (23,13,12) (deg):     90.0000     90.0000     90.0000
outcell: Cell volume (Ang**3)        :    287.6773
New_DM. Step:     7
Re-using DM from previous geometry...
Re-using DM without extrapolation (not allowed)
New grid distribution:   1
           1       1:   27    1:   12    1:    5
           2       1:   27    1:   12    6:   10
           3       1:   27    1:   12   11:   15
           4       1:   27    1:   12   16:   20
           5       1:   27   13:   24    1:    5
           6       1:   27   13:   24    6:   10
           7       1:   27   13:   24   11:   15
           8       1:   27   13:   24   16:   20

InitMesh: MESH =    54 x    48 x    40 =      103680
InitMesh: (bp) =    27 x    24 x    20 =       12960
InitMesh: Mesh cutoff (required, used) =   120.000   120.453 Ry
ExtMesh (bp) on 0 =    67 x    56 x    45 =      168840
New grid distribution:   2
           1       9:   27    8:   24    1:    7
           2       9:   27    1:    7    1:    7
           3       9:   27    1:    7    8:   20
           4       1:    8    1:    7    8:   20
           5       1:    8    8:   24    1:    7
           6       1:    8    1:    7    1:    7
           7       9:   27    8:   24    8:   20
           8       1:    8    8:   24    8:   20
New grid distribution:   3
           1      12:   27    1:    8    1:    9
           2       1:   11    1:    8   10:   20
           3       1:   11    9:   24    9:   20
           4      12:   27    1:    8   10:   20
           5      12:   27    9:   24    1:    8
           6       1:   11    9:   24    1:    8
           7      12:   27    9:   24    9:   20
           8       1:   11    1:    8    1:    9
Setting up quadratic distribution...
ExtMesh (bp) on 0 =    59 x    61 x    47 =      169153
PhiOnMesh: Number of (b)points on node 0 =                 2261
PhiOnMesh: nlist on node 0 =                 8567

   scf: iscf   Eharris(eV)      E_KS(eV)   FreeEng(eV)    dDmax  Ef(eV)
   scf:    1     -468.7634     -468.7616     -468.7616  0.00028 -3.2750
   scf:    2     -468.7634     -468.7634     -468.7634  0.00015 -3.2769
   scf:    3     -468.7634     -468.7630     -468.7630  0.00004 -3.2758

SCF Convergence by dMax criterion
max |DM_out - DM_in|:     0.00003836
SCF cycle converged after    3 iterations

Using DM_out to compute the final energy and forces

siesta: E_KS(eV) =             -468.7634

zmatrix: Atomic forces (eV/Ang ; eV/deg )
zmatrix: (No information if symbols are used)
molecule    1 (     3 atoms)
     1    0.000000    0.000000    0.000000
     2    0.000000    0.000000    0.000000
     3    0.000000    0.000000    0.000000


Variable forces (eV/Ang ; eV/deg )
 HO1          3.0801088902392641E-002
 HO2          3.1310235783493540E-002
 HOH          8.8210177891881881E-004

siesta: Atomic forces (eV/Ang):
----------------------------------------
   Tot   -0.000224    0.095786   -0.000000
----------------------------------------
   Max    0.140290
   Res    0.054842    sqrt( Sum f_i^2 / 3N )
----------------------------------------
   Max    0.140290    constrained

Stress-tensor-Voigt (kbar):       -0.43        0.54       -0.49        0.00        0.00        0.00
(Free)E + p*V (eV/cell)     -468.7405
Target enthalpy (eV/cell)     -468.7634

cgvc_zmatrix: Finished line minimization    3.  Mean atomic displacement =    0.0053

                     ====================================
                        Begin CG opt. move =      7

zmatrix: Z-matrix coordinates: (Ang ; deg )
zmatrix: (Fractional coordinates have been converted to cartesian)
molecule    1 (     3 atoms)
      0.00000000      0.00000000      0.00000000
      0.96751669     90.00000000     37.74391900
      0.96747208    104.94649083     90.00000000


Z-matrix Symbol Section -------
Variables
 HO1         0.96751668588990292     
 HO2         0.96747208467450097     
 HOH          104.94649083438014     
Constants
------------ End of Z-matrix Information

                     ====================================

outcell: Unit cell vectors (Ang):
        7.718081    0.000000    0.000000
        0.000000    6.151677    0.000000
        0.000000    0.000000    6.059025

outcell: Cell vector modules (Ang)   :    7.718081    6.151677    6.059025
outcell: Cell angles (23,13,12) (deg):     90.0000     90.0000     90.0000
outcell: Cell volume (Ang**3)        :    287.6773
New_DM. Step:     8
Re-using DM from previous geometry...
Re-using DM without extrapolation (not allowed)
Density Matrix sparsity pattern changed.
New grid distribution:   1
           1       1:   27    1:   12    1:    5
           2       1:   27    1:   12    6:   10
           3       1:   27    1:   12   11:   15
           4       1:   27    1:   12   16:   20
           5       1:   27   13:   24    1:    5
           6       1:   27   13:   24    6:   10
           7       1:   27   13:   24   11:   15
           8       1:   27   13:   24   16:   20

InitMesh: MESH =    54 x    48 x    40 =      103680
InitMesh: (bp) =    27 x    24 x    20 =       12960
InitMesh: Mesh cutoff (required, used) =   120.000   120.453 Ry
ExtMesh (bp) on 0 =    67 x    56 x    45 =      168840
New grid distribution:   2
           1       9:   27    8:   24    1:    7
           2       9:   27    1:    7    1:    7
           3       9:   27    1:    7    8:   20
           4       1:    8    1:    7    8:   20
           5       1:    8    8:   24    1:    7
           6       1:    8    1:    7    1:    7
           7       9:   27    8:   24    8:   20
           8       1:    8    8:   24    8:   20
New grid distribution:   3
           1      12:   27    1:    8    1:    9
           2       1:   11    1:    8   10:   20
           3       1:   11    9:   24    9:   20
           4      12:   27    1:    8   10:   20
           5      12:   27    9:   24    1:    8
           6       1:   11    9:   24    1:    8
           7      12:   27    9:   24    9:   20
           8       1:   11    1:    8    1:    9
Setting up quadratic distribution...
ExtMesh (bp) on 0 =    59 x    61 x    47 =      169153
PhiOnMesh: Number of (b)points on node 0 =                 2261
PhiOnMesh: nlist on node 0 =                 8584

   scf: iscf   Eharris(eV)      E_KS(eV)   FreeEng(eV)    dDmax  Ef(eV)
   scf:    1     -468.7637     -468.7615     -468.7615  0.00483 -3.2587
   scf:    2     -468.7637     -468.7637     -468.7637  0.00123 -3.2411
   scf:    3     -468.7637     -468.7635     -468.7635  0.00044 -3.2496
   scf:    4     -468.7637     -468.7637     -468.7637  0.00013 -3.2512
   scf:    5     -468.7637     -468.7637     -468.7637  0.00004 -3.2514

SCF Convergence by dMax criterion
max |DM_out - DM_in|:     0.00004095
SCF cycle converged after    5 iterations

Using DM_out to compute the final energy and forces

siesta: E_KS(eV) =             -468.7637

zmatrix: Atomic forces (eV/Ang ; eV/deg )
zmatrix: (No information if symbols are used)
molecule    1 (     3 atoms)
     1    0.000000    0.000000    0.000000
     2    0.000000    0.000000    0.000000
     3    0.000000    0.000000    0.000000


Variable forces (eV/Ang ; eV/deg )
 HO1          6.5744135598433560E-003
 HO2          6.9622213231621986E-003
 HOH          1.9751978071238640E-004

siesta: Atomic forces (eV/Ang):
----------------------------------------
   Tot    0.000970    0.095007   -0.000000
----------------------------------------
   Max    0.105297
   Res    0.035674    sqrt( Sum f_i^2 / 3N )
----------------------------------------
   Max    0.105297    constrained

Stress-tensor-Voigt (kbar):       -0.06        0.42       -0.49        0.00        0.00       -0.00
(Free)E + p*V (eV/cell)     -468.7558
Target enthalpy (eV/cell)     -468.7637

                     ====================================
                        Begin CG opt. move =      8

zmatrix: Z-matrix coordinates: (Ang ; deg )
zmatrix: (Fractional coordinates have been converted to cartesian)
molecule    1 (     3 atoms)
      0.00000000      0.00000000      0.00000000
      0.96776623     90.00000000     37.74391900
      0.96765601    105.79468603     90.00000000


Z-matrix Symbol Section -------
Variables
 HO1         0.96776622859986283     
 HO2         0.96765600871974222     
 HOH          105.79468602840569     
Constants
------------ End of Z-matrix Information

                     ====================================

outcell: Unit cell vectors (Ang):
        7.718081    0.000000    0.000000
        0.000000    6.151677    0.000000
        0.000000    0.000000    6.059025

outcell: Cell vector modules (Ang)   :    7.718081    6.151677    6.059025
outcell: Cell angles (23,13,12) (deg):     90.0000     90.0000     90.0000
outcell: Cell volume (Ang**3)        :    287.6773
New_DM. Step:     9
Re-using DM from previous geometry...
Re-using DM without extrapolation (not allowed)
New grid distribution:   1
           1       1:   27    1:   12    1:    5
           2       1:   27    1:   12    6:   10
           3       1:   27    1:   12   11:   15
           4       1:   27    1:   12   16:   20
           5       1:   27   13:   24    1:    5
           6       1:   27   13:   24    6:   10
           7       1:   27   13:   24   11:   15
           8       1:   27   13:   24   16:   20

InitMesh: MESH =    54 x    48 x    40 =      103680
InitMesh: (bp) =    27 x    24 x    20 =       12960
InitMesh: Mesh cutoff (required, used) =   120.000   120.453 Ry
ExtMesh (bp) on 0 =    67 x    56 x    45 =      168840
New grid distribution:   2
           1       9:   27    8:   24    1:    7
           2       9:   27    1:    7    1:    7
           3       9:   27    1:    7    8:   20
           4       1:    8    1:    7    8:   20
           5       1:    8    8:   24    1:    7
           6       1:    8    1:    7    1:    7
           7       9:   27    8:   24    8:   20
           8       1:    8    8:   24    8:   20
New grid distribution:   3
           1      12:   27    1:    8    1:    9
           2       1:   11    1:    8   10:   20
           3       1:   11    9:   24    9:   20
           4      12:   27    1:    8   10:   20
           5      12:   27    9:   24    1:    8
           6       1:   11    9:   24    1:    8
           7      12:   27    9:   24    9:   20
           8       1:   11    1:    8    1:    9
Setting up quadratic distribution...
ExtMesh (bp) on 0 =    59 x    61 x    47 =      169153
PhiOnMesh: Number of (b)points on node 0 =                 2261
PhiOnMesh: nlist on node 0 =                 8597

   scf: iscf   Eharris(eV)      E_KS(eV)   FreeEng(eV)    dDmax  Ef(eV)
   scf:    1     -468.7635     -468.7605     -468.7605  0.00778 -3.2262
   scf:    2     -468.7635     -468.7633     -468.7633  0.00198 -3.1977
   scf:    3     -468.7634     -468.7631     -468.7631  0.00070 -3.2116
   scf:    4     -468.7634     -468.7633     -468.7633  0.00020 -3.2141
   scf:    5     -468.7634     -468.7634     -468.7634  0.00006 -3.2144

SCF Convergence by dMax criterion
max |DM_out - DM_in|:     0.00006456
SCF cycle converged after    5 iterations

Using DM_out to compute the final energy and forces

siesta: E_KS(eV) =             -468.7634

zmatrix: Atomic forces (eV/Ang ; eV/deg )
zmatrix: (No information if symbols are used)
molecule    1 (     3 atoms)
     1    0.000000    0.000000    0.000000
     2    0.000000    0.000000    0.000000
     3    0.000000    0.000000    0.000000


Variable forces (eV/Ang ; eV/deg )
 HO1         -3.1839428590712746E-002
 HO2         -2.9971708775855744E-002
 HOH         -8.8405968821542939E-004

siesta: Atomic forces (eV/Ang):
----------------------------------------
   Tot    0.001934    0.094809   -0.000000
----------------------------------------
   Max    0.057068
   Res    0.032937    sqrt( Sum f_i^2 / 3N )
----------------------------------------
   Max    0.057068    constrained

Stress-tensor-Voigt (kbar):        0.52        0.23       -0.49        0.02        0.00       -0.00
(Free)E + p*V (eV/cell)     -468.7788
Target enthalpy (eV/cell)     -468.7634

                     ====================================
                        Begin CG opt. move =      9

zmatrix: Z-matrix coordinates: (Ang ; deg )
zmatrix: (Fractional coordinates have been converted to cartesian)
molecule    1 (     3 atoms)
      0.00000000      0.00000000      0.00000000
      0.96756224     90.00000000     37.74391900
      0.96750566    105.10132599     90.00000000


Z-matrix Symbol Section -------
Variables
 HO1         0.96756223906562699     
 HO2         0.96750565938543553     
 HOH          105.10132599156789     
Constants
------------ End of Z-matrix Information

                     ====================================

outcell: Unit cell vectors (Ang):
        7.718081    0.000000    0.000000
        0.000000    6.151677    0.000000
        0.000000    0.000000    6.059025

outcell: Cell vector modules (Ang)   :    7.718081    6.151677    6.059025
outcell: Cell angles (23,13,12) (deg):     90.0000     90.0000     90.0000
outcell: Cell volume (Ang**3)        :    287.6773
New_DM. Step:    10
Re-using DM from previous geometry...
Re-using DM without extrapolation (not allowed)
New grid distribution:   1
           1       1:   27    1:   12    1:    5
           2       1:   27    1:   12    6:   10
           3       1:   27    1:   12   11:   15
           4       1:   27    1:   12   16:   20
           5       1:   27   13:   24    1:    5
           6       1:   27   13:   24    6:   10
           7       1:   27   13:   24   11:   15
           8       1:   27   13:   24   16:   20

InitMesh: MESH =    54 x    48 x    40 =      103680
InitMesh: (bp) =    27 x    24 x    20 =       12960
InitMesh: Mesh cutoff (required, used) =   120.000   120.453 Ry
ExtMesh (bp) on 0 =    67 x    56 x    45 =      168840
New grid distribution:   2
           1       9:   27    8:   24    1:    7
           2       9:   27    1:    7    1:    7
           3       9:   27    1:    7    8:   20
           4       1:    8    1:    7    8:   20
           5       1:    8    8:   24    1:    7
           6       1:    8    1:    7    1:    7
           7       9:   27    8:   24    8:   20
           8       1:    8    8:   24    8:   20
New grid distribution:   3
           1      12:   27    1:    8    1:    9
           2       1:   11    1:    8   10:   20
           3       1:   11    9:   24    9:   20
           4      12:   27    1:    8   10:   20
           5      12:   27    9:   24    1:    8
           6       1:   11    9:   24    1:    8
           7      12:   27    9:   24    9:   20
           8       1:   11    1:    8    1:    9
Setting up quadratic distribution...
ExtMesh (bp) on 0 =    59 x    61 x    47 =      169153
PhiOnMesh: Number of (b)points on node 0 =                 2261
PhiOnMesh: nlist on node 0 =                 8583

   scf: iscf   Eharris(eV)      E_KS(eV)   FreeEng(eV)    dDmax  Ef(eV)
   scf:    1     -468.7638     -468.7654     -468.7654  0.00635 -3.2349
   scf:    2     -468.7637     -468.7637     -468.7637  0.00162 -3.2579
   scf:    3     -468.7637     -468.7638     -468.7638  0.00059 -3.2467
   scf:    4     -468.7637     -468.7637     -468.7637  0.00016 -3.2446
   scf:    5     -468.7637     -468.7637     -468.7637  0.00006 -3.2444

SCF Convergence by dMax criterion
max |DM_out - DM_in|:     0.00005505
SCF cycle converged after    5 iterations

Using DM_out to compute the final energy and forces

siesta: E_KS(eV) =             -468.7637

zmatrix: Atomic forces (eV/Ang ; eV/deg )
zmatrix: (No information if symbols are used)
molecule    1 (     3 atoms)
     1    0.000000    0.000000    0.000000
     2    0.000000    0.000000    0.000000
     3    0.000000    0.000000    0.000000


Variable forces (eV/Ang ; eV/deg )
 HO1         -9.4058940789878531E-004
 HO2          4.8593732924594147E-004
 HOH         -1.4664969821443246E-006

siesta: Atomic forces (eV/Ang):
----------------------------------------
   Tot    0.001212    0.094881   -0.000000
----------------------------------------
   Max    0.095214
   Res    0.031749    sqrt( Sum f_i^2 / 3N )
----------------------------------------
   Max    0.095214    constrained

Stress-tensor-Voigt (kbar):        0.05        0.38       -0.49        0.01        0.00       -0.00
(Free)E + p*V (eV/cell)     -468.7601
Target enthalpy (eV/cell)     -468.7637

outcoor: Relaxed atomic coordinates (Ang):                  
    0.00000000    0.00000000    0.00000000   1       1  O
    0.76510424    0.59227712   -0.00000000   2       2  H
   -0.77110889    0.58434432   -0.00000000   2       3  H

zmatrix: Z-matrix coordinates: (Ang ; deg )
zmatrix: (Fractional coordinates have been converted to cartesian)
molecule    1 (     3 atoms)
      0.00000000      0.00000000      0.00000000
      0.96756224     90.00000000     37.74391900
      0.96750566    105.10132599     90.00000000


Z-matrix Symbol Section -------
Variables
 HO1         0.96756223906562699     
 HO2         0.96750565938543553     
 HOH          105.10132599156789     
Constants
------------ End of Z-matrix Information


siesta: Program's energy decomposition (eV):
siesta: Ebs     =      -105.548101
siesta: Eions   =       815.854478
siesta: Ena     =       174.417316
siesta: Ekin    =       354.155478
siesta: Enl     =       -63.216799
siesta: DEna    =        -3.444821
siesta: DUscf   =         0.815658
siesta: DUext   =         0.000000
siesta: Exc     =      -115.636055
siesta: eta*DQ  =         0.000000
siesta: Emadel  =         0.000000
siesta: Emeta   =         0.000000
siesta: Emolmec =         0.000000
siesta: Ekinion =         0.000000
siesta: Eharris =      -468.763701
siesta: Etot    =      -468.763701
siesta: FreeEng =      -468.763701

siesta: Final energy (eV):
siesta:  Band Struct. =    -105.548101
siesta:       Kinetic =     354.155478
siesta:       Hartree =     396.072447
siesta:    Ext. field =       0.000000
siesta:   Exch.-corr. =    -115.636055
siesta:  Ion-electron =   -1101.826200
siesta:       Ion-ion =      -1.529372
siesta:       Ekinion =       0.000000
siesta:         Total =    -468.763701

siesta: Atomic forces (eV/Ang):
siesta:      1    0.002197    0.095214    0.000000
siesta:      2   -0.000650   -0.000696   -0.000000
siesta:      3   -0.000335    0.000363   -0.000000
siesta: ----------------------------------------
siesta:    Tot    0.001212    0.094881   -0.000000

siesta: Stress tensor (static) (eV/Ang**3):
siesta:     0.000029    0.000005    0.000000
siesta:     0.000005    0.000239   -0.000000
siesta:    -0.000000    0.000000   -0.000306

siesta: Cell volume =        287.677305 Ang**3

siesta: Pressure (static):
siesta:                Solid            Molecule  Units
siesta:           0.00000014          0.00000061  Ry/Bohr**3
siesta:           0.00001261          0.00005623  eV/Ang**3
siesta:           0.02019854          0.09009548  kBar
(Free)E+ p_basis*V_orbitals  =        -468.055655
(Free)Eharris+ p_basis*V_orbitals  =        -468.055655

siesta: Electric dipole (a.u.)  =   -0.002888    0.588814    0.000000
siesta: Electric dipole (Debye) =   -0.007340    1.496618    0.000000
>> End of run:   2-JUL-2017  11:56:04
Job completed
