Siesta Version  : siesta-4.0--578
Architecture    : x86_64-linux-n-62-25-35
Compiler version: GNU Fortran (GCC) 7.3.0
Compiler flags  : mpif90 -m64 -fPIC -O3 -march=native -ftree-vectorize -fexpensive-optimizationns -funroll-loops -fprefetch-loop-arrays -fno-second-underscore
PP flags        : -I/zdata/groups/common/nicpa/2018-feb/generic/build-tools/1.0/include -I/zdatta/groups/common/nicpa/2018-feb/generic/gcc/7.3.0/include -I/zdata/groups/common/nicpa/2018-feb/generic/gcc/7.3.0/include -I/zdata/groups/common/nicpa/2018-feb/XeonE5-2660v3/zlib/1.2.11/gnu-7.3.0/include -I/zdata/groups/common/nicpa/2018-feb/generic/numactl/2.0.11/include -I/zdata/groups/common/nicpa/2018-feb/XeonE5-2660v3/libxml2/2.9.7/gnu-7.3.0/include -I/zdata/groups/common/nicpa/2018-feb/XeonE5-2660v3/hwloc/1.11.9/gnu-7.3.0/include -I/zdata/groups/common/nicpa/2018-feb/XeonE5-2660v3/openmpi/3.0.0/gnu-7.3.0/include -I/zdata/groups/common/nicpa/2018-feb/XeonE5-2660v3/szip/2.1.1/gnu-7.3.0/include -I/zdata/groups/common/nicpa/2018-feb/XeonE5-2660v3/hdf5-serial/1.8.18/gnu-7.3.0/include -I/zdata/groups/common/nicpa/2018-feb/XeonE5-2660v3/netcdf-serial/4.6.0/gnu-7.3.0/include -I/zdata/groups/common/nicpa/2018-feb/XeonE5-2660v3/scalapack/204/gnu-7.3.0/include -I/zdata/groups/common/nicpa/2018-feb/XeonE5-2660v3/openblas/0.2.20/gnu-7.3.0/include -I/zdata/groups/common/nicpa/2018-feb/XeonE5-2660v3/elpa/2017.05.003/gnu-7.3.0/include -DSIESTA__ELPA -DMPI -D1 -DFC_HAVE_ABORT -DCDF -DSIESTA__MRRR 
PARALLEL version
NetCDF support

* Running on    8 nodes in parallel
>> Start of run:  10-JUN-2018  21:47:51

                           ***********************       
                           *  WELCOME TO SIESTA  *       
                           ***********************       

reinit: Reading from standard input
************************** Dump of input data file ****************************
SystemName h2oZ
SystemLabel h2oZ
NumberOfSpecies 2
NumberOfAtoms   3
%block ChemicalSpeciesLabel
1    8 O
2    1 H
%endblock ChemicalSpeciesLabel
AtomicCoordinatesFormat NotScaledCartesianAng
ZM.ForceTolLength 0.04 eV/Ang
ZM.ForceTolAngle 0.0001 eV/deg
ZM.MaxDisplLenght 0.1 Ang
ZM.MaxDisplAngle 20.0 deg
%block Zmatrix
molecule_cartesian
  1 0 0 0   0.0 0.0 0.0 0 0 0
  2 1 0 0   HO1 90.0 37.743919 1 0 0
  2 1 2 0   HO2 HOH 90.0 1 1 0
variables
    HO1 0.956997
    HO2 0.956997
    HOH 104.0
%endblock Zmatrix
ZM.UnitsLength Ang
ZM.UnitsAngle deg
xc.functional GGA
xc.authors PBE
MD.TypeOfRun CG
MD.NumCGsteps 200
MeshCutoff 120 Ry
PAO.EnergyShift 0.01 Ry
DM.NumberPulay 5
DM.MixingWeight 0.3
************************** End of input data file *****************************

reinit: -----------------------------------------------------------------------
reinit: System Name: h2oZ
reinit: -----------------------------------------------------------------------
reinit: System Label: h2oZ                                                        
reinit: -----------------------------------------------------------------------

initatom: Reading input for the pseudopotentials and atomic orbitals ----------
 Species number:            1  Label: O Atomic number:           8
 Species number:            2  Label: H Atomic number:           1
Ground state valence configuration:   2s02  2p04
Reading pseudopotential information in formatted form from O.psf

Valence configuration for pseudopotential generation:
2s( 2.00) rc: 1.14
2p( 4.00) rc: 1.14
3d( 0.00) rc: 1.14
4f( 0.00) rc: 1.14
Ground state valence configuration:   1s01
Reading pseudopotential information in formatted form from H.psf

Valence configuration for pseudopotential generation:
1s( 1.00) rc: 1.25
2p( 0.00) rc: 1.25
3d( 0.00) rc: 1.25
4f( 0.00) rc: 1.25
For O, standard SIESTA heuristics set lmxkb to 3
 (one more than the basis l, including polarization orbitals).
Use PS.lmax or PS.KBprojectors blocks to override.
For H, standard SIESTA heuristics set lmxkb to 2
 (one more than the basis l, including polarization orbitals).
Use PS.lmax or PS.KBprojectors blocks to override.

<basis_specs>
===============================================================================
O                    Z=   8    Mass=  16.000        Charge= 0.17977+309
Lmxo=1 Lmxkb= 3    BasisType=split      Semic=F
L=0  Nsemic=0  Cnfigmx=2
          n=1  nzeta=2  polorb=0
            splnorm:   0.15000    
               vcte:    0.0000    
               rinn:    0.0000    
               qcoe:    0.0000    
               qyuk:    0.0000    
               qwid:   0.10000E-01
                rcs:    0.0000      0.0000    
            lambdas:    1.0000      1.0000    
L=1  Nsemic=0  Cnfigmx=2
          n=1  nzeta=2  polorb=1
            splnorm:   0.15000    
               vcte:    0.0000    
               rinn:    0.0000    
               qcoe:    0.0000    
               qyuk:    0.0000    
               qwid:   0.10000E-01
                rcs:    0.0000      0.0000    
            lambdas:    1.0000      1.0000    
-------------------------------------------------------------------------------
L=0  Nkbl=1  erefs: 0.17977+309
L=1  Nkbl=1  erefs: 0.17977+309
L=2  Nkbl=1  erefs: 0.17977+309
L=3  Nkbl=1  erefs: 0.17977+309
===============================================================================
</basis_specs>

atom: Called for O                     (Z =   8)

read_vps: Pseudopotential generation method:
read_vps: ATM3      Troullier-Martins                       
Total valence charge:    6.00000

xc_check: Exchange-correlation functional:
xc_check: GGA Perdew, Burke & Ernzerhof 1996
xc_check: WARNING: Pseudopotential generated with LDA CA functional
V l=0 = -2*Zval/r beyond r=  1.1278
V l=1 = -2*Zval/r beyond r=  1.1278
V l=2 = -2*Zval/r beyond r=  1.1278
V l=3 = -2*Zval/r beyond r=  1.1138
All V_l potentials equal beyond r=  1.1278
This should be close to max(r_c) in ps generation
All pots = -2*Zval/r beyond r=  1.1278

VLOCAL1: 99.0% of the norm of Vloc inside     34.126 Ry
VLOCAL1: 99.9% of the norm of Vloc inside     77.774 Ry
atom: Maximum radius for 4*pi*r*r*local-pseudopot. charge    1.37759
atom: Maximum radius for r*vlocal+2*Zval:    1.18566
GHOST: No ghost state for L =  0
GHOST: No ghost state for L =  1
GHOST: No ghost state for L =  2
GHOST: No ghost state for L =  3

KBgen: Kleinman-Bylander projectors: 
   l= 0   rc=  1.294105   el= -1.764717   Ekb=  9.120606   kbcos=  0.329038
   l= 1   rc=  1.294105   el= -0.698441   Ekb= -8.119783   kbcos= -0.400859
   l= 2   rc=  1.448233   el=  0.002031   Ekb= -2.039067   kbcos= -0.003490
   l= 3   rc=  1.561052   el=  0.003153   Ekb= -0.799361   kbcos= -0.000345

KBgen: Total number of  Kleinman-Bylander projectors:   16
atom: -------------------------------------------------------------------------

atom: SANKEY-TYPE ORBITALS:
atom: Selected multiple-zeta basis: split     

SPLIT: Orbitals with angular momentum L= 0

SPLIT: Basis orbitals for state 2s

SPLIT: PAO cut-off radius determined from an
SPLIT: energy shift=  0.010000 Ry

   izeta = 1
                 lambda =    1.000000
                     rc =    3.562532
                 energy =   -1.755511
                kinetic =    1.600463
    potential(screened) =   -3.355974
       potential(ionic) =  -11.286134

   izeta = 2
                 rmatch =    2.510382
              splitnorm =    0.150000
                 energy =   -1.503288
                kinetic =    2.454016
    potential(screened) =   -3.957304
       potential(ionic) =  -12.483069

SPLIT: Orbitals with angular momentum L= 1

SPLIT: Basis orbitals for state 2p

SPLIT: PAO cut-off radius determined from an
SPLIT: energy shift=  0.010000 Ry

   izeta = 1
                 lambda =    1.000000
                     rc =    4.243912
                 energy =   -0.688662
                kinetic =    5.026374
    potential(screened) =   -5.715036
       potential(ionic) =  -13.477958

   izeta = 2
                 rmatch =    2.573941
              splitnorm =    0.150000
                 energy =   -0.419104
                kinetic =    7.468683
    potential(screened) =   -7.887787
       potential(ionic) =  -16.547632

POLgen: Perturbative polarization orbital with L=  2

POLgen: Polarization orbital for state 2p

   izeta = 1
                     rc =    4.243912
                 energy =    2.313152
                kinetic =    4.581177
    potential(screened) =   -2.268025
       potential(ionic) =   -8.473102
atom: Total number of Sankey-type orbitals: 13

atm_pop: Valence configuration (for local Pseudopot. screening):
 2s( 2.00)                                                            
 2p( 4.00)                                                            
Vna: chval, zval:    6.00000   6.00000

Vna:  Cut-off radius for the neutral-atom potential:   4.243912

atom: _________________________________________________________________________

<basis_specs>
===============================================================================
H                    Z=   1    Mass=  1.0100        Charge= 0.17977+309
Lmxo=0 Lmxkb= 2    BasisType=split      Semic=F
L=0  Nsemic=0  Cnfigmx=1
          n=1  nzeta=2  polorb=1
            splnorm:   0.15000    
               vcte:    0.0000    
               rinn:    0.0000    
               qcoe:    0.0000    
               qyuk:    0.0000    
               qwid:   0.10000E-01
                rcs:    0.0000      0.0000    
            lambdas:    1.0000      1.0000    
-------------------------------------------------------------------------------
L=0  Nkbl=1  erefs: 0.17977+309
L=1  Nkbl=1  erefs: 0.17977+309
L=2  Nkbl=1  erefs: 0.17977+309
===============================================================================
</basis_specs>

atom: Called for H                     (Z =   1)

read_vps: Pseudopotential generation method:
read_vps: ATM3      Troullier-Martins                       
Total valence charge:    1.00000

xc_check: Exchange-correlation functional:
xc_check: GGA Perdew, Burke & Ernzerhof 1996
xc_check: WARNING: Pseudopotential generated with LDA CA functional
V l=0 = -2*Zval/r beyond r=  1.2343
V l=1 = -2*Zval/r beyond r=  1.2189
V l=2 = -2*Zval/r beyond r=  1.2189
All V_l potentials equal beyond r=  1.2343
This should be close to max(r_c) in ps generation
All pots = -2*Zval/r beyond r=  1.2343

VLOCAL1: 99.0% of the norm of Vloc inside     28.493 Ry
VLOCAL1: 99.9% of the norm of Vloc inside     64.935 Ry
atom: Maximum radius for 4*pi*r*r*local-pseudopot. charge    1.45251
atom: Maximum radius for r*vlocal+2*Zval:    1.21892
GHOST: No ghost state for L =  0
GHOST: No ghost state for L =  1
GHOST: No ghost state for L =  2

KBgen: Kleinman-Bylander projectors: 
   l= 0   rc=  1.364359   el= -0.488086   Ekb= -2.002077   kbcos= -0.347561
   l= 1   rc=  1.434438   el=  0.001075   Ekb= -0.501617   kbcos= -0.021754
   l= 2   rc=  1.470814   el=  0.002010   Ekb= -0.190607   kbcos= -0.002284

KBgen: Total number of  Kleinman-Bylander projectors:    9
atom: -------------------------------------------------------------------------

atom: SANKEY-TYPE ORBITALS:
atom: Selected multiple-zeta basis: split     

SPLIT: Orbitals with angular momentum L= 0

SPLIT: Basis orbitals for state 1s

SPLIT: PAO cut-off radius determined from an
SPLIT: energy shift=  0.010000 Ry

   izeta = 1
                 lambda =    1.000000
                     rc =    5.204501
                 energy =   -0.478113
                kinetic =    0.940144
    potential(screened) =   -1.418257
       potential(ionic) =   -1.931985

   izeta = 2
                 rmatch =    3.903467
              splitnorm =    0.150000
                 energy =   -0.372060
                kinetic =    1.517336
    potential(screened) =   -1.889395
       potential(ionic) =   -2.425474

POLgen: Perturbative polarization orbital with L=  1

POLgen: Polarization orbital for state 1s

   izeta = 1
                     rc =    5.204501
                 energy =    0.663382
                kinetic =    1.340502
    potential(screened) =   -0.677120
       potential(ionic) =   -1.151756
atom: Total number of Sankey-type orbitals:  5

atm_pop: Valence configuration (for local Pseudopot. screening):
 1s( 1.00)                                                            
Vna: chval, zval:    1.00000   1.00000

Vna:  Cut-off radius for the neutral-atom potential:   5.204501

atom: _________________________________________________________________________

prinput: Basis input ----------------------------------------------------------

PAO.BasisType split     

%block ChemicalSpeciesLabel
    1    8 O                       # Species index, atomic number, species label
    2    1 H                       # Species index, atomic number, species label
%endblock ChemicalSpeciesLabel

%block PAO.Basis                 # Define Basis set
O                     2                    # Species label, number of l-shells
 n=2   0   2                         # n, l, Nzeta 
   3.563      2.510   
   1.000      1.000   
 n=2   1   2 P   1                   # n, l, Nzeta, Polarization, NzetaPol
   4.244      2.574   
   1.000      1.000   
H                     1                    # Species label, number of l-shells
 n=1   0   2 P   1                   # n, l, Nzeta, Polarization, NzetaPol
   5.205      3.903   
   1.000      1.000   
%endblock PAO.Basis

prinput: ----------------------------------------------------------------------

Dumping basis to NetCDF file O.ion.nc
Dumping basis to NetCDF file H.ion.nc
coor:   Atomic-coordinates input format  =     Cartesian coordinates
coor:                                          (in Angstroms)
read_Zmatrix: Length units: Ang       
read_Zmatrix: Angle  units: deg       
read_Zmatrix: Force tolerances:
read_Zmatrix:    for lengths =     0.001556 Ry/Bohr
read_Zmatrix:    for angles  =     0.000421 Ry/rad

read_Zmatrix: Maximum displacements:
read_Zmatrix:    for lengths =     0.200000 Bohr
read_Zmatrix:    for angles  =     0.349066 rad
%block Zmatrix
molecule_cartesian
  1 0 0 0   0.0 0.0 0.0 0 0 0
  2 1 0 0   HO1 90.0 37.743919 1 0 0
  2 1 2 0   HO2 HOH 90.0 1 1 0
variables
    HO1 0.956997
    HO2 0.956997
    HOH 104.0
%endblock Zmatrix
 nZmol:            1
 nSpecies:            1           2           2

zmatrix: Z-matrix coordinates: (Ang ; deg )
zmatrix: (Fractional coordinates have been converted to cartesian)
molecule    1 (     3 atoms)
      0.00000000      0.00000000      0.00000000
      0.95699700     90.00000000     37.74391900
      0.95699700    104.00000000     90.00000000


Z-matrix Symbol Section -------
Variables
 HO1         0.95699699999999988     
 HO2         0.95699699999999988     
 HOH          104.00000000000014     
Constants
------------ End of Z-matrix Information


siesta: Atomic coordinates (Bohr) and species
siesta:      0.00000   0.00000   0.00000  1        1
siesta:      1.43005   1.10702  -0.00000  2        2
siesta:     -1.42010   1.11976  -0.00000  2        3

siesta: Automatic unit cell vectors (Ang):
siesta:    7.718081    0.000000    0.000000
siesta:    0.000000    6.151677    0.000000
siesta:    0.000000    0.000000    6.059025

siesta: System type = molecule  

initatomlists: Number of atoms, orbitals, and projectors:      3    23    34

siesta: ******************** Simulation parameters ****************************
siesta:
siesta: The following are some of the parameters of the simulation.
siesta: A complete list of the parameters used, including default values,
siesta: can be found in file out.fdf
siesta:
redata: Non-Collinear-spin run           =     F
redata: SpinPolarized (Up/Down) run      =     F
redata: Number of spin components        =     1
redata: Long output                      =     F
redata: Number of Atomic Species         =        2
redata: Charge density info will appear in .RHO file
redata: Write Mulliken Pop.              =     NO
redata: Matel table size (NRTAB)         =     1024
redata: Mesh Cutoff                      =   120.0000 Ry
redata: Net charge of the system         =     0.0000 |e|
redata: Min. number of SCF Iter          =        0
redata: Max. number of SCF Iter          =       50
redata: Mix DM or H after convergence    =     F
redata: Recompute H after scf cycle      =     F
redata: Performing Pulay mixing using    =     5 iterations
redata: Mix DM in first SCF step ?       =     F
redata: Write Pulay info on disk?        =     F
redata: Discard 1st Pulay DM after  kick =     F
redata: New DM Mixing Weight             =     0.3000
redata: New DM Occupancy tolerance       = 0.000000000001
redata: No kicks to SCF
redata: DM Mixing Weight for Kicks       =     0.5000
redata: DM Tolerance for SCF             =     0.000100
redata: Require (free) Energy convergence in SCF =     F
redata: DM (free)Energy tolerance for SCF =     0.000010 eV
redata: Require Harris convergence for SCF =     F
redata: DM Harris energy tolerance for SCF =     0.000010 eV
redata: Using Saved Data (generic)   =     F
redata: Use continuation files for DM    =     F
redata: Neglect nonoverlap interactions  =     F
redata: Method of Calculation            =     Diagonalization
redata: Divide and Conquer               =     T
redata: Electronic Temperature           =     0.0019  Ry
redata: Fix the spin of the system       =     F
redata: Dynamics option                  =     CG coord. optimization
redata: Variable cell                    =     F
redata: Use continuation files for CG    =     F
redata: Max atomic displ per move        =     0.2000  Bohr
redata: Maximum number of CG moves       =      200
redata: Force tolerance                  =     0.0016  Ry/Bohr
redata: ***********************************************************************
Total number of electrons:     8.000000
Total ionic charge:     8.000000

* ProcessorY, Blocksize:    2   3


* Orbital distribution balance (max,min):     3     2

 Kpoints in:            1 . Kpoints trimmed:            1

siesta: k-grid: Number of k-points =     1
siesta: k-grid: Cutoff (effective) =     3.030 Ang
siesta: k-grid: Supercell and displacements
siesta: k-grid:    1   0   0      0.000
siesta: k-grid:    0   1   0      0.000
siesta: k-grid:    0   0   1      0.000

                     ====================================
                        Begin CG opt. move =      0

zmatrix: Z-matrix coordinates: (Ang ; deg )
zmatrix: (Fractional coordinates have been converted to cartesian)
molecule    1 (     3 atoms)
      0.00000000      0.00000000      0.00000000
      0.95699700     90.00000000     37.74391900
      0.95699700    104.00000000     90.00000000


Z-matrix Symbol Section -------
Variables
 HO1         0.95699699999999988     
 HO2         0.95699699999999988     
 HOH          104.00000000000014     
Constants
------------ End of Z-matrix Information

                     ====================================

outcell: Unit cell vectors (Ang):
        7.718081    0.000000    0.000000
        0.000000    6.151677    0.000000
        0.000000    0.000000    6.059025

outcell: Cell vector modules (Ang)   :    7.718081    6.151677    6.059025
outcell: Cell angles (23,13,12) (deg):     90.0000     90.0000     90.0000
outcell: Cell volume (Ang**3)        :    287.6773
New_DM. Step:     1
Initializing Density Matrix...
New grid distribution:   1
           1       1:   27    1:   12    1:    5
           2       1:   27    1:   12    6:   10
           3       1:   27    1:   12   11:   15
           4       1:   27    1:   12   16:   20
           5       1:   27   13:   24    1:    5
           6       1:   27   13:   24    6:   10
           7       1:   27   13:   24   11:   15
           8       1:   27   13:   24   16:   20

InitMesh: MESH =    54 x    48 x    40 =      103680
InitMesh: (bp) =    27 x    24 x    20 =       12960
InitMesh: Mesh cutoff (required, used) =   120.000   120.453 Ry
ExtMesh (bp) on 0 =    67 x    56 x    45 =      168840
New grid distribution:   2
           1       9:   27    8:   24    1:    7
           2       9:   27    1:    7    1:    7
           3       9:   27    1:    7    8:   20
           4       1:    8    1:    7    8:   20
           5       1:    8    8:   24    1:    7
           6       1:    8    1:    7    1:    7
           7       9:   27    8:   24    8:   20
           8       1:    8    8:   24    8:   20
New grid distribution:   3
           1      12:   27    1:    8    1:    9
           2       1:   11    1:    8   10:   20
           3       1:   11    9:   24    9:   20
           4      12:   27    1:    8   10:   20
           5      12:   27    9:   24    1:    8
           6       1:   11    9:   24    1:    8
           7      12:   27    9:   24    9:   20
           8       1:   11    1:    8    1:    9
Setting up quadratic distribution...
ExtMesh (bp) on 0 =    59 x    61 x    47 =      169153
PhiOnMesh: Number of (b)points on node 0 =                 2261
PhiOnMesh: nlist on node 0 =                 8567

stepf: Fermi-Dirac step function

siesta: Program's energy decomposition (eV):
siesta: Ebs     =      -127.274988
siesta: Eions   =       815.854478
siesta: Ena     =       174.499751
siesta: Ekin    =       342.686635
siesta: Enl     =       -53.683724
siesta: DEna    =        -0.000001
siesta: DUscf   =         0.000000
siesta: DUext   =         0.000000
siesta: Exc     =      -112.286041
siesta: eta*DQ  =         0.000000
siesta: Emadel  =         0.000000
siesta: Emeta   =         0.000000
siesta: Emolmec =         0.000000
siesta: Ekinion =         0.000000
siesta: Eharris =      -469.533568
siesta: Etot    =      -464.637858
siesta: FreeEng =      -464.637858

   scf: iscf   Eharris(eV)      E_KS(eV)   FreeEng(eV)    dDmax  Ef(eV)
   scf:    1     -469.5336     -464.6379     -464.6379  1.20707 -5.7885
timer: Routine,Calls,Time,% =    IterSCF     1       0.034   2.68
   scf:    2     -470.5135     -467.7773     -467.7773  0.26829 -0.6890
   scf:    3     -468.7743     -467.8834     -467.8834  0.10166 -3.1641
   scf:    4     -468.7554     -468.3974     -468.3974  0.01358 -3.3162
   scf:    5     -468.7551     -468.5425     -468.5425  0.00530 -3.3334
   scf:    6     -468.7550     -468.7342     -468.7342  0.00080 -3.3089
   scf:    7     -468.7550     -468.7540     -468.7540  0.00025 -3.3099
   scf:    8     -468.7550     -468.7549     -468.7549  0.00014 -3.3127
   scf:    9     -468.7550     -468.7551     -468.7551  0.00005 -3.3127

SCF Convergence by dMax criterion
max |DM_out - DM_in|:     0.00004720
SCF cycle converged after    9 iterations

Using DM_out to compute the final energy and forces

siesta: E_KS(eV) =             -468.7550

siesta: E_KS - E_eggbox =      -468.7550

zmatrix: Atomic forces (eV/Ang ; eV/deg )
zmatrix: (No information if symbols are used)
molecule    1 (     3 atoms)
     1    0.000000    0.000000    0.000000
     2    0.000000    0.000000    0.000000
     3    0.000000    0.000000    0.000000


Variable forces (eV/Ang ; eV/deg )
 HO1         0.53506225749905090     
 HO2         0.53756225494468735     
 HOH          2.1320415081112370E-003

siesta: Atomic forces (eV/Ang):
----------------------------------------
   Tot   -0.001958    0.093064   -0.000000
----------------------------------------
   Max    0.501157
   Res    0.287152    sqrt( Sum f_i^2 / 3N )
----------------------------------------
   Max    0.501157    constrained

Stress-tensor-Voigt (kbar):       -4.13       -1.12       -0.49        0.01        0.00        0.00
(Free)E + p*V (eV/cell)     -468.4116
Target enthalpy (eV/cell)     -468.7550

                     ====================================
                        Begin CG opt. move =      1

zmatrix: Z-matrix coordinates: (Ang ; deg )
zmatrix: (Fractional coordinates have been converted to cartesian)
molecule    1 (     3 atoms)
      0.00000000      0.00000000      0.00000000
      1.06234020     90.00000000     37.74391900
      1.06283240    108.92086204     90.00000000


Z-matrix Symbol Section -------
Variables
 HO1          1.0623401998367181     
 HO2          1.0628324000000000     
 HOH          108.92086203697666     
Constants
------------ End of Z-matrix Information

                     ====================================

outcell: Unit cell vectors (Ang):
        7.718081    0.000000    0.000000
        0.000000    6.151677    0.000000
        0.000000    0.000000    6.059025

outcell: Cell vector modules (Ang)   :    7.718081    6.151677    6.059025
outcell: Cell angles (23,13,12) (deg):     90.0000     90.0000     90.0000
outcell: Cell volume (Ang**3)        :    287.6773
New_DM. Step:     2
Re-using DM from previous geometry...
Re-using DM without extrapolation (not allowed)
Density Matrix sparsity pattern changed.
Note: For starting DM, Qtot, Tr[D*S] =          8.00000000          7.87398778
New grid distribution:   1
           1       1:   27    1:   12    1:    5
           2       1:   27    1:   12    6:   10
           3       1:   27    1:   12   11:   15
           4       1:   27    1:   12   16:   20
           5       1:   27   13:   24    1:    5
           6       1:   27   13:   24    6:   10
           7       1:   27   13:   24   11:   15
           8       1:   27   13:   24   16:   20

InitMesh: MESH =    54 x    48 x    40 =      103680
InitMesh: (bp) =    27 x    24 x    20 =       12960
InitMesh: Mesh cutoff (required, used) =   120.000   120.453 Ry
ExtMesh (bp) on 0 =    67 x    56 x    45 =      168840
New grid distribution:   2
           1       9:   27    8:   24    1:    7
           2       9:   27    1:    7    1:    7
           3       9:   27    1:    7    8:   20
           4       1:    8    1:    7    8:   20
           5       1:    8    8:   24    1:    7
           6       1:    8    1:    7    1:    7
           7       9:   27    8:   24    8:   20
           8       1:    8    8:   24    8:   20
New grid distribution:   3
           1       1:   12    9:   24    1:    8
           2       1:   12    1:    8   10:   20
           3       1:   12    9:   24    9:   20
           4      13:   27    1:    8   10:   20
           5      13:   27    9:   24    1:    8
           6      13:   27    1:    8    1:    9
           7      13:   27    9:   24    9:   20
           8       1:   12    1:    8    1:    9
Setting up quadratic distribution...
ExtMesh (bp) on 0 =    59 x    61 x    47 =      169153
PhiOnMesh: Number of (b)points on node 0 =                 2261
PhiOnMesh: nlist on node 0 =                 8706

   scf: iscf   Eharris(eV)      E_KS(eV)   FreeEng(eV)    dDmax  Ef(eV)
   scf:    1     -468.4131     -467.1376     -467.1376  0.15508 -2.8952
   scf:    2     -468.4284     -468.3441     -468.3441  0.06616 -3.4972
   scf:    3     -468.3770     -468.1896     -468.1896  0.01582 -3.1041
   scf:    4     -468.3768     -468.3467     -468.3467  0.00492 -3.0847
   scf:    5     -468.3765     -468.3681     -468.3681  0.00115 -3.1017
   scf:    6     -468.3765     -468.3736     -468.3736  0.00026 -3.0986
   scf:    7     -468.3765     -468.3761     -468.3761  0.00010 -3.0983

SCF Convergence by dMax criterion
max |DM_out - DM_in|:     0.00009803
SCF cycle converged after    7 iterations

Using DM_out to compute the final energy and forces

siesta: E_KS(eV) =             -468.3765

zmatrix: Atomic forces (eV/Ang ; eV/deg )
zmatrix: (No information if symbols are used)
molecule    1 (     3 atoms)
     1    0.000000    0.000000    0.000000
     2    0.000000    0.000000    0.000000
     3    0.000000    0.000000    0.000000


Variable forces (eV/Ang ; eV/deg )
 HO1         -3.4082267285322656     
 HO2         -3.4345676995478960     
 HOH         -9.4862867605163392E-003

siesta: Atomic forces (eV/Ang):
----------------------------------------
   Tot    0.005047    0.103668   -0.000000
----------------------------------------
   Max    3.241356
   Res    1.956906    sqrt( Sum f_i^2 / 3N )
----------------------------------------
   Max    3.241356    constrained

Stress-tensor-Voigt (kbar):       29.80       11.21       -0.51        0.68        0.00       -0.00
(Free)E + p*V (eV/cell)     -470.8006
Target enthalpy (eV/cell)     -468.3765

                     ====================================
                        Begin CG opt. move =      2

zmatrix: Z-matrix coordinates: (Ang ; deg )
zmatrix: (Fractional coordinates have been converted to cartesian)
molecule    1 (     3 atoms)
      0.00000000      0.00000000      0.00000000
      0.97159581     90.00000000     37.74391900
      0.97166402    104.68194948     90.00000000


Z-matrix Symbol Section -------
Variables
 HO1         0.97159581210826751     
 HO2         0.97166402284910847     
 HOH          104.68194947941484     
Constants
------------ End of Z-matrix Information

                     ====================================

outcell: Unit cell vectors (Ang):
        7.718081    0.000000    0.000000
        0.000000    6.151677    0.000000
        0.000000    0.000000    6.059025

outcell: Cell vector modules (Ang)   :    7.718081    6.151677    6.059025
outcell: Cell angles (23,13,12) (deg):     90.0000     90.0000     90.0000
outcell: Cell volume (Ang**3)        :    287.6773
New_DM. Step:     3
Re-using DM from previous geometry...
Re-using DM without extrapolation (not allowed)
Note: For starting DM, Qtot, Tr[D*S] =          8.00000000          8.10152687
New grid distribution:   1
           1       1:   27    1:   12    1:    5
           2       1:   27    1:   12    6:   10
           3       1:   27    1:   12   11:   15
           4       1:   27    1:   12   16:   20
           5       1:   27   13:   24    1:    5
           6       1:   27   13:   24    6:   10
           7       1:   27   13:   24   11:   15
           8       1:   27   13:   24   16:   20

InitMesh: MESH =    54 x    48 x    40 =      103680
InitMesh: (bp) =    27 x    24 x    20 =       12960
InitMesh: Mesh cutoff (required, used) =   120.000   120.453 Ry
ExtMesh (bp) on 0 =    67 x    56 x    45 =      168840
New grid distribution:   2
           1       9:   27    8:   24    1:    7
           2       9:   27    1:    7    1:    7
           3       9:   27    1:    7    8:   20
           4       1:    8    1:    7    8:   20
           5       1:    8    8:   24    1:    7
           6       1:    8    1:    7    1:    7
           7       9:   27    8:   24    8:   20
           8       1:    8    8:   24    8:   20
New grid distribution:   3
           1      12:   27    1:    8    1:    9
           2       1:   11    1:    8   10:   20
           3       1:   11    9:   24    9:   20
           4      12:   27    1:    8   10:   20
           5      12:   27    9:   24    1:    8
           6       1:   11    9:   24    1:    8
           7      12:   27    9:   24    9:   20
           8       1:   11    1:    8    1:    9
Setting up quadratic distribution...
ExtMesh (bp) on 0 =    59 x    61 x    47 =      169153
PhiOnMesh: Number of (b)points on node 0 =                 2261
PhiOnMesh: nlist on node 0 =                 8579

   scf: iscf   Eharris(eV)      E_KS(eV)   FreeEng(eV)    dDmax  Ef(eV)
   scf:    1     -468.7926     -469.5696     -469.5696  0.13251 -3.5432
   scf:    2     -468.8231     -468.7230     -468.7230  0.05966 -2.7893
   scf:    3     -468.7610     -468.8794     -468.8794  0.01441 -3.2335
   scf:    4     -468.7605     -468.7590     -468.7590  0.00291 -3.2702
   scf:    5     -468.7604     -468.7619     -468.7619  0.00052 -3.2589
   scf:    6     -468.7604     -468.7607     -468.7607  0.00033 -3.2574
   scf:    7     -468.7604     -468.7603     -468.7603  0.00005 -3.2592

SCF Convergence by dMax criterion
max |DM_out - DM_in|:     0.00005228
SCF cycle converged after    7 iterations

Using DM_out to compute the final energy and forces

siesta: E_KS(eV) =             -468.7604

zmatrix: Atomic forces (eV/Ang ; eV/deg )
zmatrix: (No information if symbols are used)
molecule    1 (     3 atoms)
     1    0.000000    0.000000    0.000000
     2    0.000000    0.000000    0.000000
     3    0.000000    0.000000    0.000000


Variable forces (eV/Ang ; eV/deg )
 HO1        -0.21054501997224537     
 HO2        -0.21473112275025544     
 HOH          2.6300942229102867E-004

siesta: Atomic forces (eV/Ang):
----------------------------------------
   Tot    0.000330    0.096410   -0.000000
----------------------------------------
   Max    0.380719
   Res    0.161890    sqrt( Sum f_i^2 / 3N )
----------------------------------------
   Max    0.380719    constrained

Stress-tensor-Voigt (kbar):        1.40        1.33       -0.49       -0.01        0.00       -0.00
(Free)E + p*V (eV/cell)     -468.8945
Target enthalpy (eV/cell)     -468.7604

cgvc_zmatrix: Finished line minimization    1.  Mean atomic displacement =    0.0236

                     ====================================
                        Begin CG opt. move =      3

zmatrix: Z-matrix coordinates: (Ang ; deg )
zmatrix: (Fractional coordinates have been converted to cartesian)
molecule    1 (     3 atoms)
      0.00000000      0.00000000      0.00000000
      0.97900630     90.00000000     37.74391900
      0.97868306    106.74692038     90.00000000


Z-matrix Symbol Section -------
Variables
 HO1         0.97900630215174778     
 HO2         0.97868305980123438     
 HOH          106.74692038378343     
Constants
------------ End of Z-matrix Information

                     ====================================

outcell: Unit cell vectors (Ang):
        7.718081    0.000000    0.000000
        0.000000    6.151677    0.000000
        0.000000    0.000000    6.059025

outcell: Cell vector modules (Ang)   :    7.718081    6.151677    6.059025
outcell: Cell angles (23,13,12) (deg):     90.0000     90.0000     90.0000
outcell: Cell volume (Ang**3)        :    287.6773
New_DM. Step:     4
Re-using DM from previous geometry...
Re-using DM without extrapolation (not allowed)
New grid distribution:   1
           1       1:   27    1:   12    1:    5
           2       1:   27    1:   12    6:   10
           3       1:   27    1:   12   11:   15
           4       1:   27    1:   12   16:   20
           5       1:   27   13:   24    1:    5
           6       1:   27   13:   24    6:   10
           7       1:   27   13:   24   11:   15
           8       1:   27   13:   24   16:   20

InitMesh: MESH =    54 x    48 x    40 =      103680
InitMesh: (bp) =    27 x    24 x    20 =       12960
InitMesh: Mesh cutoff (required, used) =   120.000   120.453 Ry
ExtMesh (bp) on 0 =    67 x    56 x    45 =      168840
New grid distribution:   2
           1       9:   27    8:   24    1:    7
           2       9:   27    1:    7    1:    7
           3       9:   27    1:    7    8:   20
           4       1:    8    1:    7    8:   20
           5       1:    8    8:   24    1:    7
           6       1:    8    1:    7    1:    7
           7       9:   27    8:   24    8:   20
           8       1:    8    8:   24    8:   20
New grid distribution:   3
           1       1:   12    9:   24    1:    8
           2       1:   12    1:    8   10:   20
           3       1:   12    9:   24    9:   20
           4      13:   27    1:    8   10:   20
           5      13:   27    9:   24    1:    8
           6      13:   27    1:    8    1:    9
           7      13:   27    9:   24    9:   20
           8       1:   12    1:    8    1:    9
Setting up quadratic distribution...
ExtMesh (bp) on 0 =    59 x    61 x    47 =      169153
PhiOnMesh: Number of (b)points on node 0 =                 2261
PhiOnMesh: nlist on node 0 =                 8619

   scf: iscf   Eharris(eV)      E_KS(eV)   FreeEng(eV)    dDmax  Ef(eV)
   scf:    1     -468.7528     -468.6698     -468.6698  0.02616 -3.1693
   scf:    2     -468.7521     -468.7516     -468.7516  0.00184 -3.1546
   scf:    3     -468.7519     -468.7484     -468.7484  0.00112 -3.1580
   scf:    4     -468.7519     -468.7514     -468.7514  0.00038 -3.1618
   scf:    5     -468.7519     -468.7518     -468.7518  0.00006 -3.1621

SCF Convergence by dMax criterion
max |DM_out - DM_in|:     0.00005640
SCF cycle converged after    5 iterations

Using DM_out to compute the final energy and forces

siesta: E_KS(eV) =             -468.7519

zmatrix: Atomic forces (eV/Ang ; eV/deg )
zmatrix: (No information if symbols are used)
molecule    1 (     3 atoms)
     1    0.000000    0.000000    0.000000
     2    0.000000    0.000000    0.000000
     3    0.000000    0.000000    0.000000


Variable forces (eV/Ang ; eV/deg )
 HO1        -0.61224269510762719     
 HO2        -0.59836450244423200     
 HOH         -2.7177212966083501E-003

siesta: Atomic forces (eV/Ang):
----------------------------------------
   Tot   -0.001296    0.097456   -0.000000
----------------------------------------
   Max    0.582415
   Res    0.349808    sqrt( Sum f_i^2 / 3N )
----------------------------------------
   Max    0.582415    constrained

Stress-tensor-Voigt (kbar):        5.11        1.89       -0.49        0.10        0.00       -0.00
(Free)E + p*V (eV/cell)     -469.1418
Target enthalpy (eV/cell)     -468.7519

                     ====================================
                        Begin CG opt. move =      4

zmatrix: Z-matrix coordinates: (Ang ; deg )
zmatrix: (Fractional coordinates have been converted to cartesian)
molecule    1 (     3 atoms)
      0.00000000      0.00000000      0.00000000
      0.97001381     90.00000000     37.74391900
      0.97016559    104.24111645     90.00000000


Z-matrix Symbol Section -------
Variables
 HO1         0.97001380977289875     
 HO2         0.97016558849656886     
 HOH          104.24111644758938     
Constants
------------ End of Z-matrix Information

                     ====================================

outcell: Unit cell vectors (Ang):
        7.718081    0.000000    0.000000
        0.000000    6.151677    0.000000
        0.000000    0.000000    6.059025

outcell: Cell vector modules (Ang)   :    7.718081    6.151677    6.059025
outcell: Cell angles (23,13,12) (deg):     90.0000     90.0000     90.0000
outcell: Cell volume (Ang**3)        :    287.6773
New_DM. Step:     5
Re-using DM from previous geometry...
Re-using DM without extrapolation (not allowed)
Density Matrix sparsity pattern changed.
New grid distribution:   1
           1       1:   27    1:   12    1:    5
           2       1:   27    1:   12    6:   10
           3       1:   27    1:   12   11:   15
           4       1:   27    1:   12   16:   20
           5       1:   27   13:   24    1:    5
           6       1:   27   13:   24    6:   10
           7       1:   27   13:   24   11:   15
           8       1:   27   13:   24   16:   20

InitMesh: MESH =    54 x    48 x    40 =      103680
InitMesh: (bp) =    27 x    24 x    20 =       12960
InitMesh: Mesh cutoff (required, used) =   120.000   120.453 Ry
ExtMesh (bp) on 0 =    67 x    56 x    45 =      168840
New grid distribution:   2
           1       9:   27    8:   24    1:    7
           2       9:   27    1:    7    1:    7
           3       9:   27    1:    7    8:   20
           4       1:    8    1:    7    8:   20
           5       1:    8    8:   24    1:    7
           6       1:    8    1:    7    1:    7
           7       9:   27    8:   24    8:   20
           8       1:    8    8:   24    8:   20
New grid distribution:   3
           1      12:   27    1:    8    1:    9
           2       1:   11    1:    8   10:   20
           3       1:   11    9:   24    9:   20
           4      12:   27    1:    8   10:   20
           5      12:   27    9:   24    1:    8
           6       1:   11    9:   24    1:    8
           7      12:   27    9:   24    9:   20
           8       1:   11    1:    8    1:    9
Setting up quadratic distribution...
ExtMesh (bp) on 0 =    59 x    61 x    47 =      169153
PhiOnMesh: Number of (b)points on node 0 =                 2261
PhiOnMesh: nlist on node 0 =                 8570

   scf: iscf   Eharris(eV)      E_KS(eV)   FreeEng(eV)    dDmax  Ef(eV)
   scf:    1     -468.7620     -468.8545     -468.8545  0.03170 -3.2744
   scf:    2     -468.7609     -468.7602     -468.7602  0.00223 -3.2879
   scf:    3     -468.7607     -468.7642     -468.7642  0.00142 -3.2861
   scf:    4     -468.7607     -468.7610     -468.7610  0.00048 -3.2822
   scf:    5     -468.7607     -468.7608     -468.7608  0.00014 -3.2813
   scf:    6     -468.7607     -468.7607     -468.7607  0.00002 -3.2818

SCF Convergence by dMax criterion
max |DM_out - DM_in|:     0.00001868
SCF cycle converged after    6 iterations

Using DM_out to compute the final energy and forces

siesta: E_KS(eV) =             -468.7607

zmatrix: Atomic forces (eV/Ang ; eV/deg )
zmatrix: (No information if symbols are used)
molecule    1 (     3 atoms)
     1    0.000000    0.000000    0.000000
     2    0.000000    0.000000    0.000000
     3    0.000000    0.000000    0.000000


Variable forces (eV/Ang ; eV/deg )
 HO1        -0.12194585681894760     
 HO2        -0.12853175985675613     
 HOH          9.2230445923150014E-004

siesta: Atomic forces (eV/Ang):
----------------------------------------
   Tot   -0.000523    0.096897   -0.000000
----------------------------------------
   Max    0.336820
   Res    0.129451    sqrt( Sum f_i^2 / 3N )
----------------------------------------
   Max    0.336820    constrained

Stress-tensor-Voigt (kbar):        0.61        1.19       -0.49       -0.02        0.00        0.00
(Free)E + p*V (eV/cell)     -468.8388
Target enthalpy (eV/cell)     -468.7607

cgvc_zmatrix: Finished line minimization    2.  Mean atomic displacement =    0.0050

                     ====================================
                        Begin CG opt. move =      5

zmatrix: Z-matrix coordinates: (Ang ; deg )
zmatrix: (Fractional coordinates have been converted to cartesian)
molecule    1 (     3 atoms)
      0.00000000      0.00000000      0.00000000
      0.96705653     90.00000000     37.74391900
      0.96707032    104.42861480     90.00000000


Z-matrix Symbol Section -------
Variables
 HO1         0.96705652991575175     
 HO2         0.96707032345624599     
 HOH          104.42861479684746     
Constants
------------ End of Z-matrix Information

                     ====================================

outcell: Unit cell vectors (Ang):
        7.718081    0.000000    0.000000
        0.000000    6.151677    0.000000
        0.000000    0.000000    6.059025

outcell: Cell vector modules (Ang)   :    7.718081    6.151677    6.059025
outcell: Cell angles (23,13,12) (deg):     90.0000     90.0000     90.0000
outcell: Cell volume (Ang**3)        :    287.6773
New_DM. Step:     6
Re-using DM from previous geometry...
Re-using DM without extrapolation (not allowed)
New grid distribution:   1
           1       1:   27    1:   12    1:    5
           2       1:   27    1:   12    6:   10
           3       1:   27    1:   12   11:   15
           4       1:   27    1:   12   16:   20
           5       1:   27   13:   24    1:    5
           6       1:   27   13:   24    6:   10
           7       1:   27   13:   24   11:   15
           8       1:   27   13:   24   16:   20

InitMesh: MESH =    54 x    48 x    40 =      103680
InitMesh: (bp) =    27 x    24 x    20 =       12960
InitMesh: Mesh cutoff (required, used) =   120.000   120.453 Ry
ExtMesh (bp) on 0 =    67 x    56 x    45 =      168840
New grid distribution:   2
           1       9:   27    8:   24    1:    7
           2       9:   27    1:    7    1:    7
           3       9:   27    1:    7    8:   20
           4       1:    8    1:    7    8:   20
           5       1:    8    8:   24    1:    7
           6       1:    8    1:    7    1:    7
           7       9:   27    8:   24    8:   20
           8       1:    8    8:   24    8:   20
New grid distribution:   3
           1      12:   27    1:    8    1:    9
           2       1:   11    1:    8   10:   20
           3       1:   11    9:   24    9:   20
           4      12:   27    1:    8   10:   20
           5      12:   27    9:   24    1:    8
           6       1:   11    9:   24    1:    8
           7      12:   27    9:   24    9:   20
           8       1:   11    1:    8    1:    9
Setting up quadratic distribution...
ExtMesh (bp) on 0 =    59 x    61 x    47 =      169153
PhiOnMesh: Number of (b)points on node 0 =                 2261
PhiOnMesh: nlist on node 0 =                 8567

   scf: iscf   Eharris(eV)      E_KS(eV)   FreeEng(eV)    dDmax  Ef(eV)
   scf:    1     -468.7612     -468.7952     -468.7952  0.00528 -3.2899
   scf:    2     -468.7613     -468.7611     -468.7611  0.00257 -3.2576
   scf:    3     -468.7612     -468.7674     -468.7674  0.00065 -3.2759
   scf:    4     -468.7612     -468.7615     -468.7615  0.00013 -3.2774
   scf:    5     -468.7612     -468.7613     -468.7613  0.00002 -3.2772

SCF Convergence by dMax criterion
max |DM_out - DM_in|:     0.00001944
SCF cycle converged after    5 iterations

Using DM_out to compute the final energy and forces

siesta: E_KS(eV) =             -468.7612

zmatrix: Atomic forces (eV/Ang ; eV/deg )
zmatrix: (No information if symbols are used)
molecule    1 (     3 atoms)
     1    0.000000    0.000000    0.000000
     2    0.000000    0.000000    0.000000
     3    0.000000    0.000000    0.000000


Variable forces (eV/Ang ; eV/deg )
 HO1          1.4491771060949002E-002
 HO2          1.3936114837124047E-002
 HOH          8.8564305972503327E-004

siesta: Atomic forces (eV/Ang):
----------------------------------------
   Tot   -0.000197    0.095684   -0.000000
----------------------------------------
   Max    0.161159
   Res    0.059514    sqrt( Sum f_i^2 / 3N )
----------------------------------------
   Max    0.161159    constrained

Stress-tensor-Voigt (kbar):       -0.32        0.60       -0.49       -0.00        0.00        0.00
(Free)E + p*V (eV/cell)     -468.7492
Target enthalpy (eV/cell)     -468.7612

                     ====================================
                        Begin CG opt. move =      6

zmatrix: Z-matrix coordinates: (Ang ; deg )
zmatrix: (Fractional coordinates have been converted to cartesian)
molecule    1 (     3 atoms)
      0.00000000      0.00000000      0.00000000
      0.96232488     90.00000000     37.74391900
      0.96211790    104.72861216     90.00000000


Z-matrix Symbol Section -------
Variables
 HO1         0.96232488214431666     
 HO2         0.96211789939172920     
 HOH          104.72861215566041     
Constants
------------ End of Z-matrix Information

                     ====================================

outcell: Unit cell vectors (Ang):
        7.718081    0.000000    0.000000
        0.000000    6.151677    0.000000
        0.000000    0.000000    6.059025

outcell: Cell vector modules (Ang)   :    7.718081    6.151677    6.059025
outcell: Cell angles (23,13,12) (deg):     90.0000     90.0000     90.0000
outcell: Cell volume (Ang**3)        :    287.6773
New_DM. Step:     7
Re-using DM from previous geometry...
Re-using DM without extrapolation (not allowed)
Density Matrix sparsity pattern changed.
New grid distribution:   1
           1       1:   27    1:   12    1:    5
           2       1:   27    1:   12    6:   10
           3       1:   27    1:   12   11:   15
           4       1:   27    1:   12   16:   20
           5       1:   27   13:   24    1:    5
           6       1:   27   13:   24    6:   10
           7       1:   27   13:   24   11:   15
           8       1:   27   13:   24   16:   20

InitMesh: MESH =    54 x    48 x    40 =      103680
InitMesh: (bp) =    27 x    24 x    20 =       12960
InitMesh: Mesh cutoff (required, used) =   120.000   120.453 Ry
ExtMesh (bp) on 0 =    67 x    56 x    45 =      168840
New grid distribution:   2
           1       9:   27    8:   24    1:    7
           2       9:   27    1:    7    1:    7
           3       9:   27    1:    7    8:   20
           4       1:    8    1:    7    8:   20
           5       1:    8    8:   24    1:    7
           6       1:    8    1:    7    1:    7
           7       9:   27    8:   24    8:   20
           8       1:    8    8:   24    8:   20
New grid distribution:   3
           1      12:   27    1:    8    1:    9
           2       1:   11    1:    8   10:   20
           3       1:   11    9:   24    9:   20
           4      12:   27    1:    8   10:   20
           5      12:   27    9:   24    1:    8
           6       1:   11    9:   24    1:    8
           7      12:   27    9:   24    9:   20
           8       1:   11    1:    8    1:    9
Setting up quadratic distribution...
ExtMesh (bp) on 0 =    59 x    61 x    47 =      169153
PhiOnMesh: Number of (b)points on node 0 =                 2261
PhiOnMesh: nlist on node 0 =                 8573

   scf: iscf   Eharris(eV)      E_KS(eV)   FreeEng(eV)    dDmax  Ef(eV)
   scf:    1     -468.7603     -468.8148     -468.8148  0.00849 -3.2911
   scf:    2     -468.7604     -468.7600     -468.7600  0.00404 -3.2396
   scf:    3     -468.7602     -468.7700     -468.7700  0.00100 -3.2685
   scf:    4     -468.7602     -468.7607     -468.7607  0.00020 -3.2711
   scf:    5     -468.7602     -468.7603     -468.7603  0.00003 -3.2708

SCF Convergence by dMax criterion
max |DM_out - DM_in|:     0.00003018
SCF cycle converged after    5 iterations

Using DM_out to compute the final energy and forces

siesta: E_KS(eV) =             -468.7602

zmatrix: Atomic forces (eV/Ang ; eV/deg )
zmatrix: (No information if symbols are used)
molecule    1 (     3 atoms)
     1    0.000000    0.000000    0.000000
     2    0.000000    0.000000    0.000000
     3    0.000000    0.000000    0.000000


Variable forces (eV/Ang ; eV/deg )
 HO1         0.23871500795103787     
 HO2         0.24844445026866044     
 HOH          8.2487560683159916E-004

siesta: Atomic forces (eV/Ang):
----------------------------------------
   Tot    0.000625    0.093750   -0.000000
----------------------------------------
   Max    0.226954
   Res    0.124483    sqrt( Sum f_i^2 / 3N )
----------------------------------------
   Max    0.226954    constrained

Stress-tensor-Voigt (kbar):       -1.83       -0.34       -0.49        0.02        0.00       -0.00
(Free)E + p*V (eV/cell)     -468.6010
Target enthalpy (eV/cell)     -468.7602

                     ====================================
                        Begin CG opt. move =      7

zmatrix: Z-matrix coordinates: (Ang ; deg )
zmatrix: (Fractional coordinates have been converted to cartesian)
molecule    1 (     3 atoms)
      0.00000000      0.00000000      0.00000000
      0.96678600     90.00000000     37.74391900
      0.96678717    104.44576702     90.00000000


Z-matrix Symbol Section -------
Variables
 HO1         0.96678599997363468     
 HO2         0.96678717072378728     
 HOH          104.44576701781475     
Constants
------------ End of Z-matrix Information

                     ====================================

outcell: Unit cell vectors (Ang):
        7.718081    0.000000    0.000000
        0.000000    6.151677    0.000000
        0.000000    0.000000    6.059025

outcell: Cell vector modules (Ang)   :    7.718081    6.151677    6.059025
outcell: Cell angles (23,13,12) (deg):     90.0000     90.0000     90.0000
outcell: Cell volume (Ang**3)        :    287.6773
New_DM. Step:     8
Re-using DM from previous geometry...
Re-using DM without extrapolation (not allowed)
Density Matrix sparsity pattern changed.
New grid distribution:   1
           1       1:   27    1:   12    1:    5
           2       1:   27    1:   12    6:   10
           3       1:   27    1:   12   11:   15
           4       1:   27    1:   12   16:   20
           5       1:   27   13:   24    1:    5
           6       1:   27   13:   24    6:   10
           7       1:   27   13:   24   11:   15
           8       1:   27   13:   24   16:   20

InitMesh: MESH =    54 x    48 x    40 =      103680
InitMesh: (bp) =    27 x    24 x    20 =       12960
InitMesh: Mesh cutoff (required, used) =   120.000   120.453 Ry
ExtMesh (bp) on 0 =    67 x    56 x    45 =      168840
New grid distribution:   2
           1       9:   27    8:   24    1:    7
           2       9:   27    1:    7    1:    7
           3       9:   27    1:    7    8:   20
           4       1:    8    1:    7    8:   20
           5       1:    8    8:   24    1:    7
           6       1:    8    1:    7    1:    7
           7       9:   27    8:   24    8:   20
           8       1:    8    8:   24    8:   20
New grid distribution:   3
           1      12:   27    1:    8    1:    9
           2       1:   11    1:    8   10:   20
           3       1:   11    9:   24    9:   20
           4      12:   27    1:    8   10:   20
           5      12:   27    9:   24    1:    8
           6       1:   11    9:   24    1:    8
           7      12:   27    9:   24    9:   20
           8       1:   11    1:    8    1:    9
Setting up quadratic distribution...
ExtMesh (bp) on 0 =    59 x    61 x    47 =      169153
PhiOnMesh: Number of (b)points on node 0 =                 2261
PhiOnMesh: nlist on node 0 =                 8567

   scf: iscf   Eharris(eV)      E_KS(eV)   FreeEng(eV)    dDmax  Ef(eV)
   scf:    1     -468.7613     -468.7088     -468.7088  0.00801 -3.2578
   scf:    2     -468.7614     -468.7610     -468.7610  0.00388 -3.3065
   scf:    3     -468.7612     -468.7516     -468.7516  0.00095 -3.2790
   scf:    4     -468.7612     -468.7606     -468.7606  0.00019 -3.2765
   scf:    5     -468.7612     -468.7610     -468.7610  0.00003 -3.2769

SCF Convergence by dMax criterion
max |DM_out - DM_in|:     0.00003217
SCF cycle converged after    5 iterations

Using DM_out to compute the final energy and forces

siesta: E_KS(eV) =             -468.7612

zmatrix: Atomic forces (eV/Ang ; eV/deg )
zmatrix: (No information if symbols are used)
molecule    1 (     3 atoms)
     1    0.000000    0.000000    0.000000
     2    0.000000    0.000000    0.000000
     3    0.000000    0.000000    0.000000


Variable forces (eV/Ang ; eV/deg )
 HO1          2.6868613601276663E-002
 HO2          2.7324931080114828E-002
 HOH          8.8147588431128181E-004

siesta: Atomic forces (eV/Ang):
----------------------------------------
   Tot   -0.000162    0.095569   -0.000000
----------------------------------------
   Max    0.145009
   Res    0.055739    sqrt( Sum f_i^2 / 3N )
----------------------------------------
   Max    0.145009    constrained

Stress-tensor-Voigt (kbar):       -0.40        0.55       -0.49        0.00        0.00        0.00
(Free)E + p*V (eV/cell)     -468.7409
Target enthalpy (eV/cell)     -468.7612

cgvc_zmatrix: Finished line minimization    3.  Mean atomic displacement =    0.0055

                     ====================================
                        Begin CG opt. move =      8

zmatrix: Z-matrix coordinates: (Ang ; deg )
zmatrix: (Fractional coordinates have been converted to cartesian)
molecule    1 (     3 atoms)
      0.00000000      0.00000000      0.00000000
      0.96688053     90.00000000     37.74391900
      0.96684957    104.99136404     90.00000000


Z-matrix Symbol Section -------
Variables
 HO1         0.96688053021140485     
 HO2         0.96684957363428536     
 HOH          104.99136403682441     
Constants
------------ End of Z-matrix Information

                     ====================================

outcell: Unit cell vectors (Ang):
        7.718081    0.000000    0.000000
        0.000000    6.151677    0.000000
        0.000000    0.000000    6.059025

outcell: Cell vector modules (Ang)   :    7.718081    6.151677    6.059025
outcell: Cell angles (23,13,12) (deg):     90.0000     90.0000     90.0000
outcell: Cell volume (Ang**3)        :    287.6773
New_DM. Step:     9
Re-using DM from previous geometry...
Re-using DM without extrapolation (not allowed)
Density Matrix sparsity pattern changed.
New grid distribution:   1
           1       1:   27    1:   12    1:    5
           2       1:   27    1:   12    6:   10
           3       1:   27    1:   12   11:   15
           4       1:   27    1:   12   16:   20
           5       1:   27   13:   24    1:    5
           6       1:   27   13:   24    6:   10
           7       1:   27   13:   24   11:   15
           8       1:   27   13:   24   16:   20

InitMesh: MESH =    54 x    48 x    40 =      103680
InitMesh: (bp) =    27 x    24 x    20 =       12960
InitMesh: Mesh cutoff (required, used) =   120.000   120.453 Ry
ExtMesh (bp) on 0 =    67 x    56 x    45 =      168840
New grid distribution:   2
           1       9:   27    8:   24    1:    7
           2       9:   27    1:    7    1:    7
           3       9:   27    1:    7    8:   20
           4       1:    8    1:    7    8:   20
           5       1:    8    8:   24    1:    7
           6       1:    8    1:    7    1:    7
           7       9:   27    8:   24    8:   20
           8       1:    8    8:   24    8:   20
New grid distribution:   3
           1      12:   27    1:    8    1:    9
           2       1:   11    1:    8   10:   20
           3       1:   11    9:   24    9:   20
           4      12:   27    1:    8   10:   20
           5      12:   27    9:   24    1:    8
           6       1:   11    9:   24    1:    8
           7      12:   27    9:   24    9:   20
           8       1:   11    1:    8    1:    9
Setting up quadratic distribution...
ExtMesh (bp) on 0 =    59 x    61 x    47 =      169153
PhiOnMesh: Number of (b)points on node 0 =                 2261
PhiOnMesh: nlist on node 0 =                 8583

   scf: iscf   Eharris(eV)      E_KS(eV)   FreeEng(eV)    dDmax  Ef(eV)
   scf:    1     -468.7615     -468.7600     -468.7600  0.00504 -3.2599
   scf:    2     -468.7615     -468.7614     -468.7614  0.00135 -3.2406
   scf:    3     -468.7615     -468.7613     -468.7613  0.00049 -3.2501
   scf:    4     -468.7615     -468.7614     -468.7614  0.00013 -3.2518
   scf:    5     -468.7615     -468.7615     -468.7615  0.00004 -3.2520

SCF Convergence by dMax criterion
max |DM_out - DM_in|:     0.00004228
SCF cycle converged after    5 iterations

Using DM_out to compute the final energy and forces

siesta: E_KS(eV) =             -468.7615

zmatrix: Atomic forces (eV/Ang ; eV/deg )
zmatrix: (No information if symbols are used)
molecule    1 (     3 atoms)
     1    0.000000    0.000000    0.000000
     2    0.000000    0.000000    0.000000
     3    0.000000    0.000000    0.000000


Variable forces (eV/Ang ; eV/deg )
 HO1          5.5360041258340773E-003
 HO2          5.0507423315604722E-003
 HOH          1.8146597158132886E-004

siesta: Atomic forces (eV/Ang):
----------------------------------------
   Tot    0.001090    0.094793   -0.000000
----------------------------------------
   Max    0.105424
   Res    0.035594    sqrt( Sum f_i^2 / 3N )
----------------------------------------
   Max    0.105424    constrained

Stress-tensor-Voigt (kbar):       -0.04        0.42       -0.49        0.00        0.00       -0.00
(Free)E + p*V (eV/cell)     -468.7545
Target enthalpy (eV/cell)     -468.7615

                     ====================================
                        Begin CG opt. move =      9

zmatrix: Z-matrix coordinates: (Ang ; deg )
zmatrix: (Fractional coordinates have been converted to cartesian)
molecule    1 (     3 atoms)
      0.00000000      0.00000000      0.00000000
      0.96703178     90.00000000     37.74391900
      0.96694942    105.86431927     90.00000000


Z-matrix Symbol Section -------
Variables
 HO1         0.96703177859183720     
 HO2         0.96694941829108239     
 HOH          105.86431926723986     
Constants
------------ End of Z-matrix Information

                     ====================================

outcell: Unit cell vectors (Ang):
        7.718081    0.000000    0.000000
        0.000000    6.151677    0.000000
        0.000000    0.000000    6.059025

outcell: Cell vector modules (Ang)   :    7.718081    6.151677    6.059025
outcell: Cell angles (23,13,12) (deg):     90.0000     90.0000     90.0000
outcell: Cell volume (Ang**3)        :    287.6773
New_DM. Step:    10
Re-using DM from previous geometry...
Re-using DM without extrapolation (not allowed)
New grid distribution:   1
           1       1:   27    1:   12    1:    5
           2       1:   27    1:   12    6:   10
           3       1:   27    1:   12   11:   15
           4       1:   27    1:   12   16:   20
           5       1:   27   13:   24    1:    5
           6       1:   27   13:   24    6:   10
           7       1:   27   13:   24   11:   15
           8       1:   27   13:   24   16:   20

InitMesh: MESH =    54 x    48 x    40 =      103680
InitMesh: (bp) =    27 x    24 x    20 =       12960
InitMesh: Mesh cutoff (required, used) =   120.000   120.453 Ry
ExtMesh (bp) on 0 =    67 x    56 x    45 =      168840
New grid distribution:   2
           1       9:   27    8:   24    1:    7
           2       9:   27    1:    7    1:    7
           3       9:   27    1:    7    8:   20
           4       1:    8    1:    7    8:   20
           5       1:    8    8:   24    1:    7
           6       1:    8    1:    7    1:    7
           7       9:   27    8:   24    8:   20
           8       1:    8    8:   24    8:   20
New grid distribution:   3
           1      12:   27    1:    8    1:    9
           2       1:   11    1:    8   10:   20
           3       1:   11    9:   24    9:   20
           4      12:   27    1:    8   10:   20
           5      12:   27    9:   24    1:    8
           6       1:   11    9:   24    1:    8
           7      12:   27    9:   24    9:   20
           8       1:   11    1:    8    1:    9
Setting up quadratic distribution...
ExtMesh (bp) on 0 =    59 x    61 x    47 =      169153
PhiOnMesh: Number of (b)points on node 0 =                 2261
PhiOnMesh: nlist on node 0 =                 8602

   scf: iscf   Eharris(eV)      E_KS(eV)   FreeEng(eV)    dDmax  Ef(eV)
   scf:    1     -468.7613     -468.7593     -468.7593  0.00811 -3.2267
   scf:    2     -468.7612     -468.7611     -468.7611  0.00209 -3.1966
   scf:    3     -468.7611     -468.7609     -468.7609  0.00075 -3.2113
   scf:    4     -468.7611     -468.7611     -468.7611  0.00020 -3.2140
   scf:    5     -468.7611     -468.7611     -468.7611  0.00007 -3.2143

SCF Convergence by dMax criterion
max |DM_out - DM_in|:     0.00006582
SCF cycle converged after    5 iterations

Using DM_out to compute the final energy and forces

siesta: E_KS(eV) =             -468.7611

zmatrix: Atomic forces (eV/Ang ; eV/deg )
zmatrix: (No information if symbols are used)
molecule    1 (     3 atoms)
     1    0.000000    0.000000    0.000000
     2    0.000000    0.000000    0.000000
     3    0.000000    0.000000    0.000000


Variable forces (eV/Ang ; eV/deg )
 HO1         -2.8655111200891120E-002
 HO2         -2.8427283232541938E-002
 HOH         -9.2496340412517484E-004

siesta: Atomic forces (eV/Ang):
----------------------------------------
   Tot    0.002123    0.094682   -0.000000
----------------------------------------
   Max    0.055951
   Res    0.032247    sqrt( Sum f_i^2 / 3N )
----------------------------------------
   Max    0.055951    constrained

Stress-tensor-Voigt (kbar):        0.52        0.20       -0.49        0.01        0.00       -0.00
(Free)E + p*V (eV/cell)     -468.7750
Target enthalpy (eV/cell)     -468.7611

                     ====================================
                        Begin CG opt. move =     10

zmatrix: Z-matrix coordinates: (Ang ; deg )
zmatrix: (Fractional coordinates have been converted to cartesian)
molecule    1 (     3 atoms)
      0.00000000      0.00000000      0.00000000
      0.96690533     90.00000000     37.74391900
      0.96686594    105.13448874     90.00000000


Z-matrix Symbol Section -------
Variables
 HO1         0.96690532802259499     
 HO2         0.96686594358773892     
 HOH          105.13448873620574     
Constants
------------ End of Z-matrix Information

                     ====================================

outcell: Unit cell vectors (Ang):
        7.718081    0.000000    0.000000
        0.000000    6.151677    0.000000
        0.000000    0.000000    6.059025

outcell: Cell vector modules (Ang)   :    7.718081    6.151677    6.059025
outcell: Cell angles (23,13,12) (deg):     90.0000     90.0000     90.0000
outcell: Cell volume (Ang**3)        :    287.6773
New_DM. Step:    11
Re-using DM from previous geometry...
Re-using DM without extrapolation (not allowed)
New grid distribution:   1
           1       1:   27    1:   12    1:    5
           2       1:   27    1:   12    6:   10
           3       1:   27    1:   12   11:   15
           4       1:   27    1:   12   16:   20
           5       1:   27   13:   24    1:    5
           6       1:   27   13:   24    6:   10
           7       1:   27   13:   24   11:   15
           8       1:   27   13:   24   16:   20

InitMesh: MESH =    54 x    48 x    40 =      103680
InitMesh: (bp) =    27 x    24 x    20 =       12960
InitMesh: Mesh cutoff (required, used) =   120.000   120.453 Ry
ExtMesh (bp) on 0 =    67 x    56 x    45 =      168840
New grid distribution:   2
           1       9:   27    8:   24    1:    7
           2       9:   27    1:    7    1:    7
           3       9:   27    1:    7    8:   20
           4       1:    8    1:    7    8:   20
           5       1:    8    8:   24    1:    7
           6       1:    8    1:    7    1:    7
           7       9:   27    8:   24    8:   20
           8       1:    8    8:   24    8:   20
New grid distribution:   3
           1      12:   27    1:    8    1:    9
           2       1:   11    1:    8   10:   20
           3       1:   11    9:   24    9:   20
           4      12:   27    1:    8   10:   20
           5      12:   27    9:   24    1:    8
           6       1:   11    9:   24    1:    8
           7      12:   27    9:   24    9:   20
           8       1:   11    1:    8    1:    9
Setting up quadratic distribution...
ExtMesh (bp) on 0 =    59 x    61 x    47 =      169153
PhiOnMesh: Number of (b)points on node 0 =                 2261
PhiOnMesh: nlist on node 0 =                 8583

   scf: iscf   Eharris(eV)      E_KS(eV)   FreeEng(eV)    dDmax  Ef(eV)
   scf:    1     -468.7616     -468.7623     -468.7623  0.00676 -3.2352
   scf:    2     -468.7615     -468.7614     -468.7614  0.00175 -3.2602
   scf:    3     -468.7615     -468.7615     -468.7615  0.00064 -3.2480
   scf:    4     -468.7615     -468.7615     -468.7615  0.00017 -3.2458
   scf:    5     -468.7615     -468.7615     -468.7615  0.00006 -3.2455

SCF Convergence by dMax criterion
max |DM_out - DM_in|:     0.00005746
SCF cycle converged after    5 iterations

Using DM_out to compute the final energy and forces

siesta: E_KS(eV) =             -468.7615

zmatrix: Atomic forces (eV/Ang ; eV/deg )
zmatrix: (No information if symbols are used)
molecule    1 (     3 atoms)
     1    0.000000    0.000000    0.000000
     2    0.000000    0.000000    0.000000
     3    0.000000    0.000000    0.000000


Variable forces (eV/Ang ; eV/deg )
 HO1         -5.8244720727595968E-004
 HO2         -1.5301029075173977E-004
 HOH         -1.3708344944807114E-006

siesta: Atomic forces (eV/Ang):
----------------------------------------
   Tot    0.001319    0.094689   -0.000000
----------------------------------------
   Max    0.095251
   Res    0.031755    sqrt( Sum f_i^2 / 3N )
----------------------------------------
   Max    0.095251    constrained

Stress-tensor-Voigt (kbar):        0.05        0.38       -0.49        0.01        0.00       -0.00
(Free)E + p*V (eV/cell)     -468.7580
Target enthalpy (eV/cell)     -468.7615

outcoor: Relaxed atomic coordinates (Ang):                  
    0.00000000    0.00000000    0.00000000   1       1  O
    0.76458478    0.59187501   -0.00000000   2       2  H
   -0.77093689    0.58351183   -0.00000000   2       3  H

zmatrix: Z-matrix coordinates: (Ang ; deg )
zmatrix: (Fractional coordinates have been converted to cartesian)
molecule    1 (     3 atoms)
      0.00000000      0.00000000      0.00000000
      0.96690533     90.00000000     37.74391900
      0.96686594    105.13448874     90.00000000


Z-matrix Symbol Section -------
Variables
 HO1         0.96690532802259499     
 HO2         0.96686594358773892     
 HOH          105.13448873620574     
Constants
------------ End of Z-matrix Information


siesta: Program's energy decomposition (eV):
siesta: Ebs     =      -105.580508
siesta: Eions   =       815.854478
siesta: Ena     =       174.424378
siesta: Ekin    =       354.223201
siesta: Enl     =       -63.249255
siesta: DEna    =        -3.469870
siesta: DUscf   =         0.816127
siesta: DUext   =         0.000000
siesta: Exc     =      -115.651576
siesta: eta*DQ  =         0.000000
siesta: Emadel  =         0.000000
siesta: Emeta   =         0.000000
siesta: Emolmec =         0.000000
siesta: Ekinion =         0.000000
siesta: Eharris =      -468.761473
siesta: Etot    =      -468.761473
siesta: FreeEng =      -468.761473

siesta: Final energy (eV):
siesta:  Band Struct. =    -105.580508
siesta:       Kinetic =     354.223201
siesta:       Hartree =     396.167181
siesta:    Ext. field =       0.000000
siesta:   Exch.-corr. =    -115.651576
siesta:  Ion-electron =   -1102.095554
siesta:       Ion-ion =      -1.404724
siesta:       Ekinion =       0.000000
siesta:         Total =    -468.761473

siesta: Atomic forces (eV/Ang):
siesta:      1    0.001472    0.095251    0.000000
siesta:      2   -0.000324   -0.000534   -0.000000
siesta:      3    0.000171   -0.000028   -0.000000
siesta: ----------------------------------------
siesta:    Tot    0.001319    0.094689   -0.000000

siesta: Stress tensor (static) (eV/Ang**3):
siesta:     0.000030    0.000003   -0.000000
siesta:     0.000004    0.000239   -0.000000
siesta:    -0.000000    0.000000   -0.000306

siesta: Cell volume =        287.677305 Ang**3

siesta: Pressure (static):
siesta:                Solid            Molecule  Units
siesta:           0.00000013          0.00000061  Ry/Bohr**3
siesta:           0.00001220          0.00005601  eV/Ang**3
siesta:           0.01954458          0.08973256  kBar
(Free)E+ p_basis*V_orbitals  =        -468.053426
(Free)Eharris+ p_basis*V_orbitals  =        -468.053426

siesta: Electric dipole (a.u.)  =   -0.003057    0.588521    0.000000
siesta: Electric dipole (Debye) =   -0.007769    1.495871    0.000000
>> End of run:  10-JUN-2018  21:47:55
Job completed
