
                           ***********************       
                           *  WELCOME TO SIESTA  *       
                           ***********************       

reinit: Reading from ../h_chain.fdf

reinit: -----------------------------------------------------------------------
reinit: System Name: H chain
reinit: -----------------------------------------------------------------------
reinit: System Label: h_chain
reinit: -----------------------------------------------------------------------
Siesta Version: siesta-4.1--731
Architecture  : x86_64-linux-n-62-18-14
Compiler flags: mpifort -m64 -fPIC -O3 -march=native -ftree-vectorize -fexpensive-optimizatioons -funroll-loops -fprefetch-loop-arrays -fno-second-underscore  -flto -fuse-linker-plugin
PP flags      : -I/zdata/groups/common/nicpa/2016-oct/generic/build-tools/1.0/include -I/zdatta/groups/common/nicpa/2016-oct/generic/gmp/6.1.0/include -I/zdata/groups/common/nicpa/2016-oct/generic/mpfr/3.1.4/include -I/zdata/groups/common/nicpa/2016-oct/generic/mpc/1.0.3/include -I/zdata/groups/common/nicpa/2016-oct/generic/isl/0.16.1/include -I/zdata/groups/common/nicpa/2016-oct/generic/gcc/6.2.0/include -I/zdata/groups/common/nicpa/2016-oct/generic/numactl/2.0.11/include -I/zdata/groups/common/nicpa/2016-oct/XeonE5-2665/zlib/1.2.8/gnu-6.2.0/include -I/zdata/groups/common/nicpa/2016-oct/XeonE5-2665/libxml2/2.9.4/gnu-6.2.0/include -I/zdata/groups/common/nicpa/2016-oct/XeonE5-2665/hwloc/1.11.4/gnu-6.2.0/include -I/zdata/groups/common/nicpa/2016-oct/XeonE5-2665/openmpi/2.0.1/gnu-6.2.0/include -I/zdata/groups/common/nicpa/2016-oct/XeonE5-2665/hdf5/1.8.17/gnu-6.2.0/include -I/zdata/groups/common/nicpa/2016-oct/XeonE5-2665/pnetcdf/1.7.0/gnu-6.2.0/include -I/zdata/groups/common/nicpa/2016-oct/XeonE5-2665/netcdf/4.4.1/gnu-6.2.0/include -I/zdata/groups/common/nicpa/2016-oct/XeonE5-2665/flook/0.7.0/gnu-6.2.0/include -I/zdata/groups/common/nicpa/2016-oct/XeonE5-2665/parmetis/4.0.3/gnu-6.2.0/include -I/zdata/groups/common/nicpa/2016-oct/XeonE5-2665/scalapack/204/gnu-6.2.0/include -I/zdata/groups/common/nicpa/2016-oct/XeonE5-2665/openblas/0.2.19/gnu-6.2.0/include -I/zdata/groups/common/nicpa/2016-oct/XeonE5-2665/mumps/5.0.2/gnu-6.2.0/include -I/zdata/groups/common/nicpa/2016-oct/XeonE5-2665/fftw/3.3.5/gnu-6.2.0/include -DMPI -DFC_HAVE_FLUSH -DFC_HAVE_ABORT -DCDF -DCDF4 -DSIESTA__METIS -DSIESTA__MUMPS -DTS_NOCHECKS -DNCDF -DNCDF_4 -DNCDF_PARALLEL -DSIESTA__FLOOK
Libraries     : -lnetcdff -lnetcdf -lpnetcdf -lhdf5_hl -lhdf5 -lz  -lzmumps -lmumps_common -llpord -lparmetis -lmetis -lscalapack -lopenblas  -lmetis -flto -fuse-linker-plugin  -L/zdata/groups/common/nicpa/2016-oct/XeonE5-2665/flook/0.7.0/gnu-6.2.0/lib -Wl,-rpath=/zdata/groups/common/nicpa/2016-oct/XeonE5-2665/flook/0.7.0/gnu-6.2.0/lib -lflookall -ldl
PARALLEL version
NetCDF support
NetCDF-4 support
NetCDF-4 MPI-IO support
METIS ordering support

* Running in serial mode with MPI
>> Start of run:   2-JUL-2017  11:07:56

initatom: Reading input for the pseudopotentials and atomic orbitals ----------
Species number:   1 Atomic number:    1 Label: H

Ground state valence configuration:   1s01
Reading pseudopotential information in formatted form from H.psf

Valence configuration for pseudopotential generation:
1s( 1.00) rc: 1.25
2p( 0.00) rc: 1.25
3d( 0.00) rc: 1.25
4f( 0.00) rc: 1.25
For H, standard SIESTA heuristics set lmxkb to 1
 (one more than the basis l, including polarization orbitals).
Use PS.lmax or PS.KBprojectors blocks to override.

<basis_specs>
===============================================================================
H                    Z=   1    Mass=  1.0100        Charge= 0.17977+309
Lmxo=0 Lmxkb= 1    BasisType=split      Semic=F
L=0  Nsemic=0  Cnfigmx=1
          n=1  nzeta=2  polorb=0
            splnorm:   0.15000    
               vcte:    0.0000    
               rinn:    0.0000    
               qcoe:    0.0000    
               qyuk:    0.0000    
               qwid:   0.10000E-01
                rcs:    0.0000      0.0000    
            lambdas:    1.0000      1.0000    
-------------------------------------------------------------------------------
L=0  Nkbl=1  erefs: 0.17977+309
L=1  Nkbl=1  erefs: 0.17977+309
===============================================================================
</basis_specs>

atom: Called for H                     (Z =   1)

read_vps: Pseudopotential generation method:
read_vps: ATM3      Troullier-Martins                       
Total valence charge:    1.00000

xc_check: Exchange-correlation functional:
xc_check: Ceperley-Alder
V l=0 = -2*Zval/r beyond r=  1.2343
V l=1 = -2*Zval/r beyond r=  1.2189
All V_l potentials equal beyond r=  1.2343
This should be close to max(r_c) in ps generation
All pots = -2*Zval/r beyond r=  1.2343

VLOCAL1: 99.0% of the norm of Vloc inside     28.493 Ry
VLOCAL1: 99.9% of the norm of Vloc inside     64.935 Ry
atom: Maximum radius for 4*pi*r*r*local-pseudopot. charge    1.45251
atom: Maximum radius for r*vlocal+2*Zval:    1.21892
GHOST: No ghost state for L =  0
GHOST: No ghost state for L =  1

KBgen: Kleinman-Bylander projectors: 
   l= 0   rc=  1.364359   el= -0.467325   Ekb= -2.005361   kbcos= -0.336422
   l= 1   rc=  1.434438   el=  0.001430   Ekb= -0.501708   kbcos= -0.021697

KBgen: Total number of  Kleinman-Bylander projectors:    4
atom: -------------------------------------------------------------------------

atom: SANKEY-TYPE ORBITALS:
atom: Selected multiple-zeta basis: split     

SPLIT: Orbitals with angular momentum L= 0

SPLIT: Basis orbitals for state 1s

SPLIT: PAO cut-off radius determined from an
SPLIT: energy shift=  0.020000 Ry

   izeta = 1
                 lambda =    1.000000
                     rc =    4.828263
                 energy =   -0.449375
                kinetic =    0.929372
    potential(screened) =   -1.378747
       potential(ionic) =   -1.915047

   izeta = 2
                 rmatch =    3.854947
              splitnorm =    0.150000
                 energy =   -0.336153
                kinetic =    1.505294
    potential(screened) =   -1.841447
       potential(ionic) =   -2.413582
atom: Total number of Sankey-type orbitals:  2

atm_pop: Valence configuration (for local Pseudopot. screening):
 1s( 1.00)                                                            
Vna: chval, zval:    1.00000   1.00000

Vna:  Cut-off radius for the neutral-atom potential:   4.828263

atom: _________________________________________________________________________

prinput: Basis input ----------------------------------------------------------

PAO.BasisType split     

%block ChemicalSpeciesLabel
    1    1 H                       # Species index, atomic number, species label
%endblock ChemicalSpeciesLabel

%block PAO.Basis                 # Define Basis set
H                     1                    # Species label, number of l-shells
 n=1   0   2                         # n, l, Nzeta 
   4.828      3.855   
   1.000      1.000   
%endblock PAO.Basis

prinput: ----------------------------------------------------------------------

Dumping basis to NetCDF file H.ion.nc
coor:   Atomic-coordinates input format  =     Cartesian coordinates
coor:                                          (in Angstroms)

siesta: Atomic coordinates (Bohr) and species
siesta:      3.77945   3.77945   1.88973  1        1

siesta: System type = chain     

initatomlists: Number of atoms, orbitals, and projectors:      1     2     4

siesta: ******************** Simulation parameters ****************************
siesta:
siesta: The following are some of the parameters of the simulation.
siesta: A complete list of the parameters used, including default values,
siesta: can be found in file out.fdf
siesta:
redata: Spin configuration                          = none
redata: Number of spin components                   = 1
redata: Time-Reversal Symmetry                      = T
redata: Spin-spiral                                 = F
redata: Long output                                 =   F
redata: Number of Atomic Species                    =        1
redata: Charge density info will appear in .RHO file
redata: Write Mulliken Pop.                         = NO
redata: Mesh Cutoff                                 =    50.0000 Ry
redata: Net charge of the system                    =     0.0000 |e|
redata: Min. number of SCF Iter                     =        0
redata: Max. number of SCF Iter                     =       50
redata: SCF mix quantity                            = Hamiltonian
redata: Mix DM or H after convergence               =   F
redata: Recompute H after scf cycle                 =   F
redata: Mix DM in first SCF step                    =   T
redata: Write Pulay info on disk                    =   F
redata: New DM Mixing Weight                        =     0.2500
redata: New DM Occupancy tolerance                  = 0.000000000001
redata: No kicks to SCF
redata: DM Mixing Weight for Kicks                  =     0.5000
redata: Require Harris convergence for SCF          =   F
redata: Harris energy tolerance for SCF             =     0.000100 eV
redata: Require DM convergence for SCF              =   T
redata: DM tolerance for SCF                        =     0.0001
redata: Require EDM convergence for SCF             =   F
redata: EDM tolerance for SCF                       =     0.001000 eV
redata: Require H convergence for SCF               =   T
redata: Hamiltonian tolerance for SCF               =     0.001000 eV
redata: Require (free) Energy convergence for SCF   =   F
redata: (free) Energy tolerance for SCF             =     0.000100 eV
redata: Using Saved Data (generic)                  =   F
redata: Use continuation files for DM               =   F
redata: Neglect nonoverlap interactions             =   F
redata: Method of Calculation                       = Diagonalization
redata: Divide and Conquer                          =   T
redata: Electronic Temperature                      =   299.9869 K
redata: Fix the spin of the system                  =   F
redata: Dynamics option                             = Single-point calculation
mix.SCF: Pulay mixing                            = Pulay
mix.SCF:    Variant                              = stable
mix.SCF:    History steps                        = 2
mix.SCF:    Linear mixing weight                 =     0.250000
mix.SCF:    Mixing weight                        =     0.250000
mix.SCF:    SVD condition                        = 0.1000E-07
redata: Save all siesta data in one NC              =   F
redata: ***********************************************************************

%block SCF.Mixers
  Pulay
%endblock SCF.Mixers

%block SCF.Mixer.Pulay
  # Mixing method
  method pulay
  variant stable

  # Mixing options
  weight 0.2500
  weight.linear 0.2500
  history 2
%endblock SCF.Mixer.Pulay

DM_history_depth set to one: no extrapolation allowed by default for geometry relaxation
Size of DM history Fstack: 1
Total number of electrons:     1.000000
Total ionic charge:     1.000000

* ProcessorY, Blocksize:    1   3


* Orbital distribution balance (max,min):     2     2

k-point displ. along   3 input, could be:     0.00    0.50
 Kpoints in:           21 . Kpoints trimmed:           21

siesta: k-grid: Number of k-points =    21
siesta: k-grid: Cutoff (effective) =     4.000 Ang
siesta: k-grid: Supercell and displacements
siesta: k-grid:    1   0   0      0.000
siesta: k-grid:    0   1   0      0.000
siesta: k-grid:    0   0  40      0.000

superc: Internal auxiliary supercell:     1 x     1 x     5  =       5
superc: Number of atoms, orbitals, and projectors:      5     10     20


                     ====================================
                        Single-point calculation
                     ====================================

superc: Internal auxiliary supercell:     1 x     1 x     5  =       5
superc: Number of atoms, orbitals, and projectors:      5     10     20

outcell: Unit cell vectors (Ang):
        8.000000    0.000000    0.000000
        0.000000    8.000000    0.000000
        0.000000    0.000000    2.000000

outcell: Cell vector modules (Ang)   :    8.000000    8.000000    2.000000
outcell: Cell angles (23,13,12) (deg):     90.0000     90.0000     90.0000
outcell: Cell volume (Ang**3)        :    128.0000
<dSpData1D:S at geom step 0
  <sparsity:sparsity for geom step 0
    nrows_g=2 nrows=2 sparsity=5.0000 nnzs=20, refcount: 7>
  <dData1D:(new from dSpData1D) n=20, refcount: 1>
refcount: 1>
new_DM -- step:     1
Initializing Density Matrix...
DM filled with atomic data:
<dSpData2D:DM initialized from atoms
  <sparsity:sparsity for geom step 0
    nrows_g=2 nrows=2 sparsity=5.0000 nnzs=20, refcount: 8>
  <dData2D:DM n=20 m=1, refcount: 1>
refcount: 1>

No. of atoms with KB's overlaping orbs in proc 0. Max # of overlaps:       3       6
New grid distribution:   1
           1       1:   18    1:   18    1:    5

InitMesh: MESH =    36 x    36 x    10 =       12960
InitMesh: (bp) =    18 x    18 x     5 =        1620
InitMesh: Mesh cutoff (required, used) =    50.000    55.966 Ry
ExtMesh (bp) on 0 =    42 x    42 x    33 =       58212
PhiOnMesh: Number of (b)points on node 0 =                 1620
PhiOnMesh: nlist on node 0 =                 1623

stepf: Fermi-Dirac step function

siesta: Program's energy decomposition (eV):
siesta: Ebs     =        -7.525931
siesta: Eions   =        19.707322
siesta: Ena     =         5.235715
siesta: Ekin    =        10.192046
siesta: Enl     =        -2.928835
siesta: Eso     =         0.000000
siesta: Eldau   =         0.000000
siesta: DEna    =         0.533531
siesta: DUscf   =         0.018482
siesta: DUext   =         0.000000
siesta: Exc     =        -6.726434
siesta: eta*DQ  =         0.000000
siesta: Emadel  =         0.000000
siesta: Emeta   =         0.000000
siesta: Emolmec =         0.000000
siesta: Ekinion =         0.000000
siesta: Eharris =       -14.597431
siesta: Etot    =       -13.382817
siesta: FreeEng =       -13.384609

        iscf     Eharris(eV)        E_KS(eV)     FreeEng(eV)     dDmax    Ef(eV) dHmax(eV)
   scf:    1      -14.597431      -13.382817      -13.384609  0.489818 -5.931745  0.274056
timer: Routine,Calls,Time,% = IterSCF        1       0.012  12.50
   scf:    2      -13.383027      -13.382923      -13.384715  0.004726 -5.990862  0.198299
   scf:    3      -13.383151      -13.383041      -13.384833  0.012356 -6.145560  0.000384
   scf:    4      -13.383041      -13.383041      -13.384833  0.000049 -6.145417  0.000312

SCF Convergence by DM+H criterion
max |DM_out - DM_in|         :     0.0000485989
max |H_out - H_in|      (eV) :     0.0003119660
SCF cycle converged after 4 iterations

Using DM_out to compute the final energy and forces
No. of atoms with KB's overlaping orbs in proc 0. Max # of overlaps:       3       6

siesta: E_KS(eV) =              -13.3830

siesta: E_KS - E_eggbox =       -13.3830

siesta: Atomic forces (eV/Ang):
----------------------------------------
   Tot    0.000000   -0.000000    0.000000
----------------------------------------
   Max    0.000000
   Res    0.000000    sqrt( Sum f_i^2 / 3N )
----------------------------------------
   Max    0.000000    constrained

Stress-tensor-Voigt (kbar):       -0.01       -0.01       39.95       -0.00        0.00       -0.00
(Free)E + p*V (eV/cell)      -14.4485
Target enthalpy (eV/cell)      -13.3848
Writing WFSX for COOP/COHP in h_chain.fullBZ.WFSX

siesta: Program's energy decomposition (eV):
siesta: Ebs     =        -7.503067
siesta: Eions   =        19.707322
siesta: Ena     =         5.235715
siesta: Ekin    =        10.265730
siesta: Enl     =        -2.951820
siesta: Eso     =         0.000000
siesta: Eldau   =         0.000000
siesta: DEna    =         0.502380
siesta: DUscf   =         0.016751
siesta: DUext   =         0.000000
siesta: Exc     =        -6.744476
siesta: eta*DQ  =         0.000000
siesta: Emadel  =         0.000000
siesta: Emeta   =         0.000000
siesta: Emolmec =         0.000000
siesta: Ekinion =         0.000000
siesta: Eharris =       -13.383041
siesta: Etot    =       -13.383041
siesta: FreeEng =       -13.384833

siesta: Final energy (eV):
siesta:  Band Struct. =      -7.503067
siesta:       Kinetic =      10.265730
siesta:       Hartree =       7.829759
siesta:       Eldau   =       0.000000
siesta:       Eso     =       0.000000
siesta:    Ext. field =       0.000000
siesta:   Exch.-corr. =      -6.744476
siesta:  Ion-electron =     -24.639588
siesta:       Ion-ion =      -0.094466
siesta:       Ekinion =       0.000000
siesta:         Total =     -13.383041
siesta:         Fermi =      -6.145417

siesta: Stress tensor (static) (eV/Ang**3):
siesta:    -0.000004   -0.000000   -0.000000
siesta:    -0.000000   -0.000004    0.000000
siesta:    -0.000000    0.000000    0.024936

siesta: Cell volume =        128.000000 Ang**3

siesta: Pressure (static):
siesta:                Solid            Molecule  Units
siesta:          -0.00009050         -0.00009050  Ry/Bohr**3
siesta:          -0.00830958         -0.00830958  eV/Ang**3
siesta:         -13.31355577        -13.31355577  kBar
(Free)E+ p_basis*V_orbitals  =         -13.253233
(Free)Eharris+ p_basis*V_orbitals  =         -13.253233

siesta: Electric dipole (a.u.)  =    0.000000    0.000000    0.000000
siesta: Electric dipole (Debye) =    0.000000    0.000000    0.000000

timer: Elapsed wall time (sec) =       0.219
timer: CPU execution times (sec):

Routine            Calls   Time/call    Tot.time        %
siesta                 1       0.123       0.123   100.00
Setup                  1       0.073       0.073    59.35
bands                  1       0.000       0.000     0.00
KSV_init               1       0.000       0.000     0.00
IterGeom               1       0.045       0.045    36.59
state_init             1       0.001       0.001     0.81
hsparse                1       0.000       0.000     0.00
overlap                1       0.000       0.000     0.00
Setup_H0               1       0.010       0.010     8.13
naefs                  2       0.001       0.001     0.81
MolMec                 2       0.000       0.000     0.00
kinefsm                2       0.000       0.000     0.00
nlefsm                 2       0.001       0.002     1.63
DHSCF_Init             1       0.007       0.007     5.69
DHSCF1                 1       0.002       0.002     1.63
INITMESH               1       0.000       0.000     0.00
DHSCF2                 1       0.005       0.005     4.07
REMESH                 1       0.000       0.000     0.00
REORD                 20       0.000       0.000     0.00
PHION                  1       0.002       0.002     1.63
COMM_BSC              15       0.000       0.000     0.00
POISON                 7       0.002       0.011     8.94
fft                   14       0.001       0.009     7.32
IterSCF                4       0.006       0.026    21.14
setup_H                5       0.004       0.020    16.26
DHSCF                  6       0.004       0.023    18.70
DHSCF3                 6       0.003       0.020    16.26
rhoofd                 6       0.000       0.000     0.00
CellXC                 6       0.001       0.008     6.50
cellXC                 6       0.001       0.008     6.50
vmat                   6       0.000       0.002     1.63
writeHSX               5       0.001       0.004     3.25
compute_dm             4       0.001       0.005     4.07
diagon                 4       0.001       0.005     4.07
c-eigval              84       0.000       0.001     0.81
c-buildHS             84       0.000       0.000     0.00
cdiag                189       0.000       0.002     1.63
cdiag1               189       0.000       0.000     0.00
cdiag2               189       0.000       0.000     0.00
cdiag3               189       0.000       0.002     1.63
cdiag4               189       0.000       0.000     0.00
c-eigvec             105       0.000       0.001     0.81
c-buildD              84       0.000       0.000     0.00
MIXER                  3       0.000       0.000     0.00
PostSCF                1       0.007       0.007     5.69
DHSCF4                 1       0.003       0.003     2.44
dfscf                  1       0.002       0.002     1.63
overfsm                1       0.000       0.000     0.00
state_analysis         1       0.001       0.001     0.81
siesta_move            1       0.000       0.000     0.00
Analysis               1       0.005       0.005     4.07
writewave              1       0.002       0.002     1.63
optical                1       0.000       0.000     0.00
  
>> End of run:   2-JUL-2017  11:07:56
Job completed
