Siesta Version: siesta-2.0.2
Architecture  : intel9-mkl8
Compiler flags: ifort -w -O2 -mp
SERIAL version

* Running in serial mode
>> Start of run:  18-MAY-2007  15:54:14

                           ***********************       
                           *  WELCOME TO SIESTA  *       
                           ***********************       

reinit: Reading from standard input
************************** Dump of input data file ****************************
# -----------------------------------------------------------------------------
# Primitive c-Si supercell, using STRUCT file
# Annealing, HarrisFunctional
# Alberto Garcia, August-December 2005, January 2006
# -----------------------------------------------------------------------------
SystemName          Primitive silicon, Annealing, Harris, Struct File
SystemLabel         md_anneal
NumberOfAtoms       2
NumberOfSpecies     1
MD.Use-Struct-File  T   # Structural information is read from md_anneal.STRUCT_IN
%block ChemicalSpeciesLabel
 1  14  Si
%endblock ChemicalSpeciesLabel
PAO.BasisSize       SZ
MeshCutoff          100.0 Ry
%block kgrid-monkhorst-pack
  2 0 0  0.5
  0 2 0  0.5
  0 0 2  0.5
%endblock kgrid-monkhorst-pack
SolutionMethod       diagon
ElectronicTemperature  100 K
HarrisFunctional T
WriteMDHistory T
MD.TypeOfRun         anneal
MD.AnnealOptions  TemperatureAndPressure
MD.InitialTemperature 100 K
MD.TargetTemperature 600 K
MD.TargetPressure 40 GPa
MD.LengthTimeStep  1 fs
MD.TauRelax       25 fs
MD.FinalTimeStep  100
************************** End of input data file *****************************

reinit: -----------------------------------------------------------------------
reinit: System Name: Primitive silicon, Annealing, Harris, Struct File          
reinit: -----------------------------------------------------------------------
reinit: System Label: md_anneal                                                   
reinit: -----------------------------------------------------------------------

initatom: Reading input for the pseudopotentials and atomic orbitals ----------
 Species number:            1  Label: Si Atomic number:          14
Ground state valence configuration:   3s02  3p02
Reading pseudopotential information in formatted form from Si.psf
For Si, standard SIESTA heuristics set lmxkb to 2
 (one more than the basis l, including polarization orbitals).
Use PS.lmax or PS.KBprojectors blocks to override.

<basis_specs>
===============================================================================
Si                   Z=  14    Mass=  28.090        Charge=  0.0000    
Lmxo=1 Lmxkb=2     BasisType=split      Semic=F
L=0  Nsemic=0  Cnfigmx=3
          n=1  nzeta=1  polorb=0
               vcte:    0.0000    
               rinn:    0.0000    
                rcs:    0.0000    
            lambdas:    1.0000    
L=1  Nsemic=0  Cnfigmx=3
          n=1  nzeta=1  polorb=0
               vcte:    0.0000    
               rinn:    0.0000    
                rcs:    0.0000    
            lambdas:    1.0000    
-------------------------------------------------------------------------------
L=0  Nkbl=1  erefs: 0.17977+309
L=1  Nkbl=1  erefs: 0.17977+309
L=2  Nkbl=1  erefs: 0.17977+309
===============================================================================
</basis_specs>

atom: Called for Si  (Z =  14)

read_vps: Pseudopotential generation method:
read_vps: ATM3      Troullier-Martins                       

read_vps: Valence configuration (pseudopotential and basis set generation):
3s( 2.00) rc: 1.89
3p( 2.00) rc: 1.89
3d( 0.00) rc: 1.89
Total valence charge:    4.00000

xc_check: Exchange-correlation functional:
xc_check: Ceperley-Alder
V l=0 = -2*Zval/r beyond r=  2.5494
V l=1 = -2*Zval/r beyond r=  2.5494
V l=2 = -2*Zval/r beyond r=  2.5494
All V_l potentials equal beyond r=  1.8652
This should be close to max(r_c) in ps generation
All pots = -2*Zval/r beyond r=  2.5494
Using large-core scheme for Vlocal

atom: Estimated core radius    2.54944

atom: Including non-local core corrections could be a good idea
atom: Maximum radius for 4*pi*r*r*local-pseudopot. charge    2.85303
atom: Maximum radius for r*vlocal+2*Zval:    2.58151
GHOST: No ghost state for L =  0
GHOST: No ghost state for L =  1
GHOST: No ghost state for L =  2

KBgen: Kleinman-Bylander projectors: 
   l= 0   rc=  1.936440   el= -0.796617   Ekb=  4.661340   kbcos=  0.299756
   l= 1   rc=  1.936440   el= -0.307040   Ekb=  1.494238   kbcos=  0.301471
   l= 2   rc=  1.936440   el=  0.002313   Ekb= -2.808672   kbcos= -0.054903

KBgen: Total number of  Kleinman-Bylander projectors:    9
atom: -------------------------------------------------------------------------

atom: SANKEY-TYPE ORBITALS:

SPLIT: Orbitals with angular momentum L= 0

SPLIT: Basis orbitals for state 3s

SPLIT: PAO cut-off radius determined from an
SPLIT: energy shift=  0.020000 Ry

   izeta = 1
                 lambda =    1.000000
                     rc =    5.007352
                 energy =   -0.777669
                kinetic =    0.573829
    potential(screened) =   -1.351499
       potential(ionic) =   -3.827441

SPLIT: Orbitals with angular momentum L= 1

SPLIT: Basis orbitals for state 3p

SPLIT: PAO cut-off radius determined from an
SPLIT: energy shift=  0.020000 Ry

   izeta = 1
                 lambda =    1.000000
                     rc =    6.270866
                 energy =   -0.288955
                kinetic =    0.877930
    potential(screened) =   -1.166885
       potential(ionic) =   -3.426998
atom: Total number of Sankey-type orbitals:  4

atm_pop: Valence configuration(local Pseudopot. screening):
 3s( 2.00)                                                            
 3p( 2.00)                                                            
Vna: chval, zval:    4.00000   4.00000

Vna:  Cut-off radius for the neutral-atom potential:   6.270866

atom: _________________________________________________________________________

prinput: Basis input ----------------------------------------------------------

PAO.BasisType split     

%block ChemicalSpeciesLabel
    1   14 Si                      # Species index, atomic number, species label
%endblock ChemicalSpeciesLabel

%block PAO.Basis                 # Define Basis set
Si          2                    # Species label, number of l-shells
 n=3   0   1                         # n, l, Nzeta 
   5.007   
   1.000   
 n=3   1   1                         # n, l, Nzeta 
   6.271   
   1.000   
%endblock PAO.Basis

prinput: ----------------------------------------------------------------------


siesta: ******************** Simulation parameters ****************************
siesta:
siesta: The following are some of the parameters of the simulation.
siesta: A complete list of the parameters used, including default values,
siesta: can be found in file out.fdf
siesta:
  -- Read structural information from md_anneal.STRUCT_IN
redata: Number of spin components        =     1
redata: Long output                      =     F
redata: Number of Atomic Species         =     1
redata: Charge density info will appear in .RHO file
redata: Write Mulliken Pop.              =     NO
redata: Mesh Cutoff                      =   100.0000  Ry
redata: Net charge of the system         =     0.0000 |e|
redata: Max. number of SCF Iter          =    50
redata: Mixing is linear
redata: Mix DM in first SCF step ?       =     F
redata: Write Pulay info on disk?        =     F
redata: New DM Mixing Weight             =     0.2500
redata: New DM Occupancy tolerance       = 0.000000000001
redata: No kicks to SCF
redata: DM Mixing Weight for Kicks       =     0.5000
redata: DM Tolerance for SCF             =     0.000100
redata: Require Energy convergence for SCF =     F
redata: DM Energy tolerance for SCF      =     0.000100 eV
redata: Using Saved Data (generic)   =     F
redata: Use continuation files for DM    =     F
redata: Neglect nonoverlap interactions  =     F
redata: Method of Calculation            =     Diagonalization
redata: Divide and Conquer               =     T
redata: Electronic Temperature           =     0.0006  Ry
redata: Fix the spin of the system       =     F
redata: Dynamics option                  =     Annealing MD run
redata: Initial MD time step             =     1
redata:   Final MD time step             =   100
redata: Length of MD time step           =     1.0000  fs
redata: Initial Temperature of MD run    =   100.0000  K
redata: Annealing Option                 = Temperature and Pressure
redata: Target Temperature               =   600.0000  Kelvin
redata: Target Pressure                  =     0.0027  Ry/Bohr**3
redata: Annealing Relaxation Time        =    25.0000  fs
redata: Approx. Bulk Modulus             =     0.0068  Ry/Bohr**3
redata: ***********************************************************************

siesta: Atomic coordinates (Bohr) and species
siesta:      0.00000   0.00000   0.00000  1        1
siesta:      2.56530   2.56530   2.56530  1        2

initatomlists: Number of atoms, orbitals, and projectors:      2     8    18

siesta: System type = bulk      

siesta: k-grid: Number of k-points =     4
siesta: k-grid: Cutoff (effective) =     3.840 Ang
siesta: k-grid: Supercell and displacements
siesta: k-grid:    2   0   0      0.500
siesta: k-grid:    0   2   0      0.500
siesta: k-grid:    0   0   2      0.500
Naive supercell factors:     5    5    5

superc: Internal auxiliary supercell:     5 x     5 x     5  =     125
superc: Number of atoms, orbitals, and projectors:    250  1000  2250

* Maximum dynamic memory allocated =     1 MB

siesta:                 ==============================
                            Begin MD step =      1
                        ==============================

superc: Internal auxiliary supercell:     5 x     5 x     5  =     125
superc: Number of atoms, orbitals, and projectors:    250  1000  2250

outcell: Unit cell vectors (Ang):
        2.715000    2.715000    0.000000
        0.000000    2.715000    2.715000
        2.715000    0.000000    2.715000

outcell: Cell vector modules (Ang)   :    3.839590    3.839590    3.839590
outcell: Cell angles (23,13,12) (deg):     60.0000     60.0000     60.0000
outcell: Cell volume (Ang**3)        :     40.0258

InitMesh: MESH =    20 x    20 x    20 =        8000
InitMesh: Mesh cutoff (required, used) =   100.000   112.482 Ry

* Maximum dynamic memory allocated =     4 MB

stepf: Fermi-Dirac step function

siesta: Program's energy decomposition (eV):
siesta: Eions   =       380.802124
siesta: Ena     =       115.502328
siesta: Ekin    =        78.997046
siesta: Enl     =        35.834927
siesta: DEna    =         0.000000
siesta: DUscf   =         0.000000
siesta: DUext   =         0.000000
siesta: Exc     =       -64.548619
siesta: eta*DQ  =         0.000000
siesta: Emadel  =         0.000000
siesta: Ekinion =         0.000000
siesta: Eharris =      -213.847468
siesta: Etot    =      -215.016441
siesta: FreeEng =      -215.016441

siesta: Eharris(eV) =    -213.847468


siesta: Eharris(eV) =    -213.847468

timer: Routine,Calls,Time,% = IterSCF        1       0.768  72.66
elaps: Routine,Calls,Wall,% = IterSCF        1       0.771  70.55

siesta: E_KS - E_eggbox =      -213.7687

siesta: Atomic forces (eV/Ang):
----------------------------------------
   Tot    0.000001    0.000000    0.000001
----------------------------------------
   Max    0.193665
   Res    0.193665    sqrt( Sum f_i^2 / 3N )
----------------------------------------
   Max    0.193665    constrained

Stress-tensor-Voigt (kbar):      -58.55      -58.79      -58.44       81.49       81.34       81.22
Target enthalpy (eV/cell)     -203.7759

siesta: Stress tensor (static) (eV/Ang**3):
        -0.036465    0.050723    0.050723
         0.050723   -0.036465    0.050723
         0.050723    0.050723   -0.036465

siesta: Pressure (static):         58.42370544  kBar

siesta: Stress tensor (total) (eV/Ang**3):
        -0.036546    0.050860    0.050695
         0.050860   -0.036695    0.050769
         0.050695    0.050769   -0.036474

siesta: Pressure (total):         58.59492697  kBar
 Anneal: Kinetic Energy=   9.499992404769574E-004
 Anneal: Velocity scale factor =    1.09544511784032     
 Anneal: Cell scale factor =   0.986243753623883     

siesta: Temp_ion =     120.000 K

* Maximum dynamic memory allocated =     5 MB

siesta:                 ==============================
                            Begin MD step =      2
                        ==============================

superc: Internal auxiliary supercell:     5 x     5 x     5  =     125
superc: Number of atoms, orbitals, and projectors:    250  1000  2250

outcell: Unit cell vectors (Ang):
        2.677683    2.706102    0.000000
        0.000000    2.677746    2.706141
        2.706171    0.000000    2.677652

outcell: Cell vector modules (Ang)   :    3.806964    3.807036    3.806991
outcell: Cell angles (23,13,12) (deg):     60.0026     60.0012     60.0017
outcell: Cell volume (Ang**3)        :     39.0167

InitMesh: MESH =    20 x    20 x    20 =        8000
InitMesh: Mesh cutoff (required, used) =   100.000   114.407 Ry

siesta: Eharris(eV) =    -213.708560


siesta: Eharris(eV) =    -213.708560


siesta: Atomic forces (eV/Ang):
----------------------------------------
   Tot    0.000000    0.000000    0.000001
----------------------------------------
   Max    0.257007
   Res    0.194522    sqrt( Sum f_i^2 / 3N )
----------------------------------------
   Max    0.257007    constrained

Stress-tensor-Voigt (kbar):      -83.54      -83.52      -83.46       84.94       83.02       88.17
Target enthalpy (eV/cell)     -203.8965

siesta: Stress tensor (static) (eV/Ang**3):
        -0.052042    0.052846    0.055061
         0.052846   -0.051852    0.051766
         0.055061    0.051766   -0.052083

siesta: Pressure (static):         83.30206616  kBar

siesta: Stress tensor (total) (eV/Ang**3):
        -0.052143    0.053013    0.055029
         0.053013   -0.052129    0.051819
         0.055029    0.051819   -0.052093

siesta: Pressure (total):         83.50929801  kBar
 Anneal: Kinetic Energy=   1.299374903991410E-003
 Anneal: Velocity scale factor =    1.06558380837927     
 Anneal: Cell scale factor =   0.987259081384758     

siesta: Temp_ion =     155.305 K

* Maximum dynamic memory allocated =     5 MB

siesta:                 ==============================
                            Begin MD step =      3
                        ==============================

superc: Internal auxiliary supercell:     5 x     5 x     5  =     125
superc: Number of atoms, orbitals, and projectors:    250  1000  2250

outcell: Unit cell vectors (Ang):
        2.643605    2.696843    0.000000
        0.000000    2.643703    2.697120
        2.696623    0.000000    2.643536

outcell: Cell vector modules (Ang)   :    3.776454    3.776721    3.776250
outcell: Cell angles (23,13,12) (deg):     60.0046     60.0075     60.0077
outcell: Cell volume (Ang**3)        :     38.0899

InitMesh: MESH =    20 x    20 x    20 =        8000
InitMesh: Mesh cutoff (required, used) =   100.000   116.241 Ry

siesta: Eharris(eV) =    -213.562731


siesta: Eharris(eV) =    -213.562731


siesta: Atomic forces (eV/Ang):
----------------------------------------
   Tot    0.000000    0.000001    0.000000
----------------------------------------
   Max    0.343717
   Res    0.213704    sqrt( Sum f_i^2 / 3N )
----------------------------------------
   Max    0.343717    constrained

Stress-tensor-Voigt (kbar):     -122.23     -122.14     -122.72       88.68       85.77       96.72
Target enthalpy (eV/cell)     -203.9891

siesta: Stress tensor (static) (eV/Ang**3):
        -0.076138    0.055123    0.060417
         0.055123   -0.075888    0.053456
         0.060417    0.053456   -0.076581

siesta: Pressure (static):        122.09079912  kBar

siesta: Stress tensor (total) (eV/Ang**3):
        -0.076289    0.055352    0.060367
         0.055352   -0.076235    0.053533
         0.060367    0.053533   -0.076598

siesta: Pressure (total):        122.36578087  kBar
 Anneal: Kinetic Energy=   1.570750328060674E-003
 Anneal: Velocity scale factor =    1.05126278657315     
 Anneal: Cell scale factor =   0.988849042180281     

siesta: Temp_ion =     182.729 K

* Maximum dynamic memory allocated =     5 MB

siesta:                 ==============================
                            Begin MD step =      4
                        ==============================

superc: Internal auxiliary supercell:     5 x     5 x     5  =     125
superc: Number of atoms, orbitals, and projectors:    250  1000  2250

outcell: Unit cell vectors (Ang):
        2.614109    2.687201    0.000000
        0.000000    2.614232    2.687829
        2.686187    0.000000    2.614058

outcell: Cell vector modules (Ang)   :    3.748949    3.749484    3.748186
outcell: Cell angles (23,13,12) (deg):     60.0035     60.0183     60.0157
outcell: Cell volume (Ang**3)        :     37.2658

InitMesh: MESH =    20 x    20 x    20 =        8000
InitMesh: Mesh cutoff (required, used) =   100.000   117.928 Ry

siesta: Eharris(eV) =    -213.409669


siesta: Eharris(eV) =    -213.409669


siesta: Atomic forces (eV/Ang):
----------------------------------------
   Tot    0.000000    0.000000    0.000000
----------------------------------------
   Max    0.428026
   Res    0.254106    sqrt( Sum f_i^2 / 3N )
----------------------------------------
   Max    0.428026    constrained

Stress-tensor-Voigt (kbar):     -156.19     -155.17     -156.23       89.15       85.91      106.64
Target enthalpy (eV/cell)     -204.0478

siesta: Stress tensor (static) (eV/Ang**3):
        -0.097285    0.055361    0.066627
         0.055361   -0.096451    0.053524
         0.066627    0.053524   -0.097484

siesta: Pressure (static):        155.53051903  kBar

siesta: Stress tensor (total) (eV/Ang**3):
        -0.097485    0.055643    0.066557
         0.055643   -0.096846    0.053623
         0.066557    0.053623   -0.097509

siesta: Pressure (total):        155.86164857  kBar
 Anneal: Kinetic Energy=   1.760988221841247E-003
 Anneal: Velocity scale factor =    1.04377806872911     
 Anneal: Cell scale factor =   0.990203873135128     

siesta: Temp_ion =     201.953 K

* Maximum dynamic memory allocated =     5 MB

siesta:                 ==============================
                            Begin MD step =      5
                        ==============================

superc: Internal auxiliary supercell:     5 x     5 x     5  =     125
superc: Number of atoms, orbitals, and projectors:    250  1000  2250

outcell: Unit cell vectors (Ang):
        2.588537    2.677540    0.000000
        0.000000    2.588580    2.678552
        2.674723    0.000000    2.588450

outcell: Cell vector modules (Ang)   :    3.724210    3.724968    3.722126
outcell: Cell angles (23,13,12) (deg):     59.9957     60.0352     60.0251
outcell: Cell volume (Ang**3)        :     36.5272

InitMesh: MESH =    20 x    20 x    20 =        8000
InitMesh: Mesh cutoff (required, used) =   100.000   119.448 Ry

siesta: Eharris(eV) =    -213.254491


siesta: Eharris(eV) =    -213.254491


siesta: Atomic forces (eV/Ang):
----------------------------------------
   Tot    0.000000    0.000001   -0.000001
----------------------------------------
   Max    0.485879
   Res    0.291385    sqrt( Sum f_i^2 / 3N )
----------------------------------------
   Max    0.485879    constrained

Stress-tensor-Voigt (kbar):     -180.61     -180.32     -180.69       93.31       86.47      113.23
Target enthalpy (eV/cell)     -204.0824

siesta: Stress tensor (static) (eV/Ang**3):
        -0.112481    0.057915    0.070762
         0.057915   -0.112123    0.053852
         0.070762    0.053852   -0.112742

siesta: Pressure (static):        180.16422827  kBar

siesta: Stress tensor (total) (eV/Ang**3):
        -0.112724    0.058237    0.070673
         0.058237   -0.112547    0.053969
         0.070673    0.053969   -0.112774

siesta: Pressure (total):        180.53795453  kBar
 Anneal: Kinetic Energy=   1.883958894043978E-003
 Anneal: Velocity scale factor =    1.03972191241545     
 Anneal: Cell scale factor =   0.991191877474558     

siesta: Temp_ion =     214.379 K

* Maximum dynamic memory allocated =     5 MB

siesta:                 ==============================
                            Begin MD step =      6
                        ==============================

superc: Internal auxiliary supercell:     5 x     5 x     5  =     125
superc: Number of atoms, orbitals, and projectors:    250  1000  2250

outcell: Unit cell vectors (Ang):
        2.565773    2.667462    0.000000
        0.000000    2.565809    2.669245
        2.662603    0.000000    2.565651

outcell: Cell vector modules (Ang)   :    3.701155    3.702465    3.697569
outcell: Cell angles (23,13,12) (deg):     59.9841     60.0532     60.0362
outcell: Cell volume (Ang**3)        :     35.8484

InitMesh: MESH =    20 x    20 x    20 =        8000
InitMesh: Mesh cutoff (required, used) =   100.000   120.881 Ry

siesta: Eharris(eV) =    -213.099405


siesta: Eharris(eV) =    -213.099405


siesta: Atomic forces (eV/Ang):
----------------------------------------
   Tot    0.000001    0.000001   -0.000002
----------------------------------------
   Max    0.570170
   Res    0.352907    sqrt( Sum f_i^2 / 3N )
----------------------------------------
   Max    0.570170    constrained

Stress-tensor-Voigt (kbar):     -202.86     -202.12     -203.46       94.82       84.21      121.52
Target enthalpy (eV/cell)     -204.1016

siesta: Stress tensor (static) (eV/Ang**3):
        -0.126332    0.058832    0.075953
         0.058832   -0.125714    0.052430
         0.075953    0.052430   -0.126948

siesta: Pressure (static):        202.40735803  kBar

siesta: Stress tensor (total) (eV/Ang**3):
        -0.126612    0.059182    0.075847
         0.059182   -0.126151    0.052562
         0.075847    0.052562   -0.126988

siesta: Pressure (total):        202.81186267  kBar
 Anneal: Kinetic Energy=   1.946962674188820E-003
 Anneal: Velocity scale factor =    1.03783688032784     
 Anneal: Cell scale factor =   0.992111002077470     

siesta: Temp_ion =     220.746 K

* Maximum dynamic memory allocated =     5 MB

siesta:                 ==============================
                            Begin MD step =      7
                        ==============================

superc: Internal auxiliary supercell:     5 x     5 x     5  =     125
superc: Number of atoms, orbitals, and projectors:    250  1000  2250

outcell: Unit cell vectors (Ang):
        2.545515    2.657260    0.000000
        0.000000    2.545492    2.660211
        2.649653    0.000000    2.545411

outcell: Cell vector modules (Ang)   :    3.679766    3.681881    3.674204
outcell: Cell angles (23,13,12) (deg):     59.9641     60.0752     60.0498
outcell: Cell volume (Ang**3)        :     35.2233

InitMesh: MESH =    20 x    20 x    20 =        8000
InitMesh: Mesh cutoff (required, used) =   100.000   122.212 Ry

siesta: Eharris(eV) =    -212.942842


siesta: Eharris(eV) =    -212.942842


siesta: Atomic forces (eV/Ang):
----------------------------------------
   Tot   -0.000001    0.000000    0.000000
----------------------------------------
   Max    0.698651
   Res    0.447438    sqrt( Sum f_i^2 / 3N )
----------------------------------------
   Max    0.698651    constrained

Stress-tensor-Voigt (kbar):     -233.36     -232.46     -235.03       96.38       83.73      131.35
Target enthalpy (eV/cell)     -204.1054

siesta: Stress tensor (static) (eV/Ang**3):
        -0.145339    0.059785    0.082104
         0.059785   -0.144651    0.052115
         0.082104    0.052115   -0.146646

siesta: Pressure (static):        233.19256963  kBar

siesta: Stress tensor (total) (eV/Ang**3):
        -0.145649    0.060152    0.081982
         0.060152   -0.145088    0.052260
         0.081982    0.052260   -0.146694

siesta: Pressure (total):        233.61666834  kBar
 Anneal: Kinetic Energy=   1.937044892450288E-003
 Anneal: Velocity scale factor =    1.03812570362680     
 Anneal: Cell scale factor =   0.993383711464126     

siesta: Temp_ion =     219.744 K

* Maximum dynamic memory allocated =     5 MB

siesta:                 ==============================
                            Begin MD step =      8
                        ==============================

superc: Internal auxiliary supercell:     5 x     5 x     5  =     125
superc: Number of atoms, orbitals, and projectors:    250  1000  2250

outcell: Unit cell vectors (Ang):
        2.528548    2.646932    0.000000
        0.000000    2.528442    2.651258
        2.635720    0.000000    2.528569

outcell: Cell vector modules (Ang)   :    3.660574    3.663630    3.652490
outcell: Cell angles (23,13,12) (deg):     59.9347     60.1017     60.0635
outcell: Cell volume (Ang**3)        :     34.6626

InitMesh: MESH =    20 x    18 x    18 =        6480
InitMesh: Mesh cutoff (required, used) =   100.000   100.127 Ry

siesta: Eharris(eV) =    -212.784908


siesta: Eharris(eV) =    -212.784908


siesta: Atomic forces (eV/Ang):
----------------------------------------
   Tot    0.001295    0.007409   -0.036895
----------------------------------------
   Max    0.762607
   Res    0.496259    sqrt( Sum f_i^2 / 3N )
----------------------------------------
   Max    0.762607    constrained

Stress-tensor-Voigt (kbar):     -265.79     -265.23     -268.03       97.91       82.83      142.27
Target enthalpy (eV/cell)     -204.0911

siesta: Stress tensor (static) (eV/Ang**3):
        -0.165563    0.060737    0.088936
         0.060737   -0.165124    0.051542
         0.088936    0.051542   -0.167233

siesta: Pressure (static):        265.92151679  kBar

siesta: Stress tensor (total) (eV/Ang**3):
        -0.165891    0.061108    0.088800
         0.061108   -0.165543    0.051696
         0.088800    0.051696   -0.167290

siesta: Pressure (total):        266.35080994  kBar
 Anneal: Kinetic Energy=   1.875581393209586E-003
 Anneal: Velocity scale factor =    1.03998183270282     
 Anneal: Cell scale factor =   0.994712107192357     

siesta: Temp_ion =     213.533 K

* Maximum dynamic memory allocated =     5 MB

siesta:                 ==============================
                            Begin MD step =      9
                        ==============================

superc: Internal auxiliary supercell:     5 x     5 x     5  =     125
superc: Number of atoms, orbitals, and projectors:    250  1000  2250

outcell: Unit cell vectors (Ang):
        2.514994    2.636485    0.000000
        0.000000    2.514834    2.642431
        2.620705    0.000000    2.515199

outcell: Cell vector modules (Ang)   :    3.643658    3.647853    3.632399
outcell: Cell angles (23,13,12) (deg):     59.8950     60.1326     60.0768
outcell: Cell volume (Ang**3)        :     34.1658

InitMesh: MESH =    18 x    18 x    18 =        5832
InitMesh: Mesh cutoff (required, used) =   100.000   100.801 Ry

siesta: Eharris(eV) =    -212.633476


siesta: Eharris(eV) =    -212.633476


siesta: Atomic forces (eV/Ang):
----------------------------------------
   Tot   -0.004995    0.024325    0.015617
----------------------------------------
   Max    0.831711
   Res    0.554845    sqrt( Sum f_i^2 / 3N )
----------------------------------------
   Max    0.831711    constrained

Stress-tensor-Voigt (kbar):     -293.39     -292.10     -294.45      101.47       80.24      151.64
Target enthalpy (eV/cell)     -204.0667

siesta: Stress tensor (static) (eV/Ang**3):
        -0.182778    0.062967    0.094794
         0.062967   -0.181922    0.049920
         0.094794    0.049920   -0.183716

siesta: Pressure (static):        292.88944909  kBar

siesta: Stress tensor (total) (eV/Ang**3):
        -0.183115    0.063330    0.094645
         0.063330   -0.182313    0.050081
         0.094645    0.050081   -0.183782

siesta: Pressure (total):        293.31331955  kBar
 Anneal: Kinetic Energy=   1.789432857788992E-003
 Anneal: Velocity scale factor =    1.04279172084628     
 Anneal: Cell scale factor =   0.995774934617013     

siesta: Temp_ion =     204.827 K

* Maximum dynamic memory allocated =     5 MB

siesta:                 ==============================
                            Begin MD step =     10
                        ==============================

superc: Internal auxiliary supercell:     5 x     5 x     5  =     125
superc: Number of atoms, orbitals, and projectors:    250  1000  2250

outcell: Unit cell vectors (Ang):
        2.504301    2.625705    0.000000
        0.000000    2.504009    2.633907
        2.604790    0.000000    2.504572

outcell: Cell vector modules (Ang)   :    3.628478    3.634216    3.613559
outcell: Cell angles (23,13,12) (deg):     59.8458     60.1648     60.0930
outcell: Cell volume (Ang**3)        :     33.7200

InitMesh: MESH =    18 x    18 x    18 =        5832
InitMesh: Mesh cutoff (required, used) =   100.000   101.548 Ry

siesta: Eharris(eV) =    -212.487135


siesta: Eharris(eV) =    -212.487135


siesta: Atomic forces (eV/Ang):
----------------------------------------
   Tot   -0.001517   -0.007023   -0.001996
----------------------------------------
   Max    0.905725
   Res    0.631926    sqrt( Sum f_i^2 / 3N )
----------------------------------------
   Max    0.905725    constrained

Stress-tensor-Voigt (kbar):     -318.45     -316.37     -318.94      105.67       78.61      156.27
Target enthalpy (eV/cell)     -204.0343

siesta: Stress tensor (static) (eV/Ang**3):
        -0.198422    0.065603    0.097699
         0.065603   -0.197101    0.048900
         0.097699    0.048900   -0.198988

siesta: Pressure (static):        317.50689864  kBar

siesta: Stress tensor (total) (eV/Ang**3):
        -0.198760    0.065950    0.097536
         0.065950   -0.197458    0.049067
         0.097536    0.049067   -0.199066

siesta: Pressure (total):        317.91984237  kBar
 Anneal: Kinetic Energy=   1.673992902827931E-003
 Anneal: Velocity scale factor =    1.04699626977249     
 Anneal: Cell scale factor =   0.996759118796689     

siesta: Temp_ion =     193.162 K

* Maximum dynamic memory allocated =     5 MB

siesta:                 ==============================
                            Begin MD step =     11
                        ==============================

superc: Internal auxiliary supercell:     5 x     5 x     5  =     125
superc: Number of atoms, orbitals, and projectors:    250  1000  2250

outcell: Unit cell vectors (Ang):
        2.496172    2.614533    0.000000
        0.000000    2.495663    2.625582
        2.588488    0.000000    2.496455

outcell: Cell vector modules (Ang)   :    3.614783    3.622432    3.596186
outcell: Cell angles (23,13,12) (deg):     59.7907     60.1953     60.1119
outcell: Cell volume (Ang**3)        :     33.3210

InitMesh: MESH =    18 x    18 x    18 =        5832
InitMesh: Mesh cutoff (required, used) =   100.000   102.215 Ry

siesta: Eharris(eV) =    -212.347050


siesta: Eharris(eV) =    -212.347050


siesta: Atomic forces (eV/Ang):
----------------------------------------
   Tot   -0.015786    0.015364   -0.009966
----------------------------------------
   Max    1.000537
   Res    0.704493    sqrt( Sum f_i^2 / 3N )
----------------------------------------
   Max    1.000537    constrained

Stress-tensor-Voigt (kbar):     -341.54     -341.71     -341.93      105.71       78.05      163.45
Target enthalpy (eV/cell)     -203.9960

siesta: Stress tensor (static) (eV/Ang**3):
        -0.212843    0.065657    0.102190
         0.065657   -0.212959    0.048544
         0.102190    0.048544   -0.213323

siesta: Pressure (static):        341.33428318  kBar

siesta: Stress tensor (total) (eV/Ang**3):
        -0.213173    0.065980    0.102016
         0.065980   -0.213276    0.048715
         0.102016    0.048715   -0.213415

siesta: Pressure (total):        341.72901077  kBar
 Anneal: Kinetic Energy=   1.535633070416075E-003
 Anneal: Velocity scale factor =    1.05284037408897     
 Anneal: Cell scale factor =   0.997682517621673     

siesta: Temp_ion =     179.180 K

* Maximum dynamic memory allocated =     5 MB

siesta:                 ==============================
                            Begin MD step =     12
                        ==============================

superc: Internal auxiliary supercell:     5 x     5 x     5  =     125
superc: Number of atoms, orbitals, and projectors:    250  1000  2250

outcell: Unit cell vectors (Ang):
        2.490377    2.603410    0.000000
        0.000000    2.489873    2.617343
        2.571542    0.000000    2.490669

outcell: Cell vector modules (Ang)   :    3.602738    3.612472    3.579980
outcell: Cell angles (23,13,12) (deg):     59.7303     60.2293     60.1282
outcell: Cell volume (Ang**3)        :     32.9665

InitMesh: MESH =    18 x    18 x    18 =        5832
InitMesh: Mesh cutoff (required, used) =   100.000   102.792 Ry

siesta: Eharris(eV) =    -212.214420


siesta: Eharris(eV) =    -212.214420


siesta: Atomic forces (eV/Ang):
----------------------------------------
   Tot   -0.031998    0.002261   -0.003901
----------------------------------------
   Max    1.043469
   Res    0.752176    sqrt( Sum f_i^2 / 3N )
----------------------------------------
   Max    1.043469    constrained

Stress-tensor-Voigt (kbar):     -368.87     -366.08     -366.71      104.73       75.48      169.20
Target enthalpy (eV/cell)     -203.9537

siesta: Stress tensor (static) (eV/Ang**3):
        -0.229911    0.065076    0.105790
         0.065076   -0.228213    0.046941
         0.105790    0.046941   -0.228772

siesta: Pressure (static):        366.84732064  kBar

siesta: Stress tensor (total) (eV/Ang**3):
        -0.230226    0.065368    0.105605
         0.065368   -0.228484    0.047113
         0.105605    0.047113   -0.228881

siesta: Pressure (total):        367.21832229  kBar
 Anneal: Kinetic Energy=   1.398658362462000E-003
 Anneal: Velocity scale factor =    1.05972318766985     
 Anneal: Cell scale factor =   0.998677202713109     

siesta: Temp_ion =     165.338 K

* Maximum dynamic memory allocated =     5 MB

siesta:                 ==============================
                            Begin MD step =     13
                        ==============================

superc: Internal auxiliary supercell:     5 x     5 x     5  =     125
superc: Number of atoms, orbitals, and projectors:    250  1000  2250

outcell: Unit cell vectors (Ang):
        2.487319    2.592444    0.000000
        0.000000    2.486519    2.609401
        2.554113    0.000000    2.487375

outcell: Cell vector modules (Ang)   :    3.592704    3.604407    3.565182
outcell: Cell angles (23,13,12) (deg):     59.6629     60.2653     60.1461
outcell: Cell volume (Ang**3)        :     32.6617

InitMesh: MESH =    18 x    18 x    18 =        5832
InitMesh: Mesh cutoff (required, used) =   100.000   103.250 Ry

siesta: Eharris(eV) =    -212.093659


siesta: Eharris(eV) =    -212.093659


siesta: Atomic forces (eV/Ang):
----------------------------------------
   Tot   -0.023744    0.004248   -0.008353
----------------------------------------
   Max    1.070220
   Res    0.785784    sqrt( Sum f_i^2 / 3N )
----------------------------------------
   Max    1.070220    constrained

Stress-tensor-Voigt (kbar):     -392.14     -387.77     -387.31      106.27       72.66      176.77
Target enthalpy (eV/cell)     -203.9104

siesta: Stress tensor (static) (eV/Ang**3):
        -0.244455    0.066068    0.110526
         0.066068   -0.241805    0.045178
         0.110526    0.045178   -0.241606

siesta: Pressure (static):        388.72723484  kBar

siesta: Stress tensor (total) (eV/Ang**3):
        -0.244751    0.066325    0.110329
         0.066325   -0.242027    0.045349
         0.110329    0.045349   -0.241737

siesta: Pressure (total):        389.07442089  kBar
 Anneal: Kinetic Energy=   1.281915678556935E-003
 Anneal: Velocity scale factor =    1.06670458640276     
 Anneal: Cell scale factor =   0.999504209375882     

siesta: Temp_ion =     153.541 K

* Maximum dynamic memory allocated =     5 MB

siesta:                 ==============================
                            Begin MD step =     14
                        ==============================

superc: Internal auxiliary supercell:     5 x     5 x     5  =     125
superc: Number of atoms, orbitals, and projectors:    250  1000  2250

outcell: Unit cell vectors (Ang):
        2.486577    2.581371    0.000000
        0.000000    2.485322    2.601779
        2.536026    0.000000    2.486141

outcell: Cell vector modules (Ang)   :    3.584207    3.598066    3.551384
outcell: Cell angles (23,13,12) (deg):     59.5884     60.3032     60.1669
outcell: Cell volume (Ang**3)        :     32.3966

InitMesh: MESH =    18 x    18 x    18 =        5832
InitMesh: Mesh cutoff (required, used) =   100.000   103.612 Ry

siesta: Eharris(eV) =    -211.983935


siesta: Eharris(eV) =    -211.983935


siesta: Atomic forces (eV/Ang):
----------------------------------------
   Tot   -0.010875   -0.002149   -0.006880
----------------------------------------
   Max    1.066371
   Res    0.802541    sqrt( Sum f_i^2 / 3N )
----------------------------------------
   Max    1.066371    constrained

Stress-tensor-Voigt (kbar):     -408.21     -408.03     -404.38      106.60       71.13      182.41
Target enthalpy (eV/cell)     -203.8681

siesta: Stress tensor (static) (eV/Ang**3):
        -0.254507    0.066315    0.114058
         0.066315   -0.254494    0.044224
         0.114058    0.044224   -0.252229

siesta: Pressure (static):        406.54618809  kBar

siesta: Stress tensor (total) (eV/Ang**3):
        -0.254782    0.066534    0.113847
         0.066534   -0.254669    0.044392
         0.113847    0.044392   -0.252391

siesta: Pressure (total):        406.87298282  kBar
 Anneal: Kinetic Energy=   1.195723291128754E-003
 Anneal: Velocity scale factor =    1.07269726389897     
 Anneal: Cell scale factor =    1.00019026778850     

siesta: Temp_ion =     144.831 K

* Maximum dynamic memory allocated =     5 MB

siesta:                 ==============================
                            Begin MD step =     15
                        ==============================

superc: Internal auxiliary supercell:     5 x     5 x     5  =     125
superc: Number of atoms, orbitals, and projectors:    250  1000  2250

outcell: Unit cell vectors (Ang):
        2.487430    2.570317    0.000000
        0.000000    2.486133    2.594341
        2.517493    0.000000    2.486614

outcell: Cell vector modules (Ang)   :    3.576847    3.593253    3.538506
outcell: Cell angles (23,13,12) (deg):     59.5110     60.3458     60.1857
outcell: Cell volume (Ang**3)        :     32.1648

InitMesh: MESH =    18 x    18 x    18 =        5832
InitMesh: Mesh cutoff (required, used) =   100.000   103.906 Ry

siesta: Eharris(eV) =    -211.884714


siesta: Eharris(eV) =    -211.884714


siesta: Atomic forces (eV/Ang):
----------------------------------------
   Tot   -0.003820   -0.008150    0.004204
----------------------------------------
   Max    1.081245
   Res    0.828558    sqrt( Sum f_i^2 / 3N )
----------------------------------------
   Max    1.081245    constrained

Stress-tensor-Voigt (kbar):     -430.17     -427.70     -421.22      106.76       68.55      188.16
Target enthalpy (eV/cell)     -203.8277

siesta: Stress tensor (static) (eV/Ang**3):
        -0.268238    0.066451    0.117665
         0.066451   -0.266819    0.042621
         0.117665    0.042621   -0.262697

siesta: Pressure (static):        426.05231264  kBar

siesta: Stress tensor (total) (eV/Ang**3):
        -0.268490    0.066632    0.117439
         0.066632   -0.266949    0.042784
         0.117439    0.042784   -0.262900

siesta: Pressure (total):        426.36445882  kBar
 Anneal: Kinetic Energy=   1.142142562770882E-003
 Anneal: Velocity scale factor =    1.07685870126332     
 Anneal: Cell scale factor =    1.00086750098896     

siesta: Temp_ion =     139.417 K

* Maximum dynamic memory allocated =     5 MB

siesta:                 ==============================
                            Begin MD step =     16
                        ==============================

superc: Internal auxiliary supercell:     5 x     5 x     5  =     125
superc: Number of atoms, orbitals, and projectors:    250  1000  2250

outcell: Unit cell vectors (Ang):
        2.490461    2.559302    0.000000
        0.000000    2.488893    2.587196
        2.498514    0.000000    2.488772

outcell: Cell vector modules (Ang)   :    3.571053    3.590010    3.526550
outcell: Cell angles (23,13,12) (deg):     59.4300     60.3896     60.2074
outcell: Cell volume (Ang**3)        :     31.9703

InitMesh: MESH =    18 x    18 x    18 =        5832
InitMesh: Mesh cutoff (required, used) =   100.000   104.102 Ry

siesta: Eharris(eV) =    -211.799194


siesta: Eharris(eV) =    -211.799194


siesta: Atomic forces (eV/Ang):
----------------------------------------
   Tot   -0.009476    0.005450    0.009681
----------------------------------------
   Max    1.056581
   Res    0.838056    sqrt( Sum f_i^2 / 3N )
----------------------------------------
   Max    1.056581    constrained

Stress-tensor-Voigt (kbar):     -447.17     -443.25     -433.50      107.88       66.27      189.60
Target enthalpy (eV/cell)     -203.7915

siesta: Stress tensor (static) (eV/Ang**3):
        -0.278876    0.067194    0.118580
         0.067194   -0.276564    0.041214
         0.118580    0.041214   -0.270313

siesta: Pressure (static):        441.00563790  kBar

siesta: Stress tensor (total) (eV/Ang**3):
        -0.279100    0.067334    0.118340
         0.067334   -0.276652    0.041364
         0.118340    0.041364   -0.270569

siesta: Pressure (total):        441.30920127  kBar
 Anneal: Kinetic Energy=   1.122013350071983E-003
 Anneal: Velocity scale factor =    1.07852027384579     
 Anneal: Cell scale factor =    1.00136352385967     

siesta: Temp_ion =     137.382 K

* Maximum dynamic memory allocated =     5 MB

siesta:                 ==============================
                            Begin MD step =     17
                        ==============================

superc: Internal auxiliary supercell:     5 x     5 x     5  =     125
superc: Number of atoms, orbitals, and projectors:    250  1000  2250

outcell: Unit cell vectors (Ang):
        2.495181    2.548225    0.000000
        0.000000    2.493197    2.580312
        2.479533    0.000000    2.492165

outcell: Cell vector modules (Ang)   :    3.566424    3.588041    3.515532
outcell: Cell angles (23,13,12) (deg):     59.3494     60.4321     60.2324
outcell: Cell volume (Ang**3)        :     31.8072

InitMesh: MESH =    18 x    18 x    18 =        5832
InitMesh: Mesh cutoff (required, used) =   100.000   104.228 Ry

siesta: Eharris(eV) =    -211.726500


siesta: Eharris(eV) =    -211.726500


siesta: Atomic forces (eV/Ang):
----------------------------------------
   Tot   -0.018016    0.007404   -0.002447
----------------------------------------
   Max    1.027269
   Res    0.839336    sqrt( Sum f_i^2 / 3N )
----------------------------------------
   Max    1.027269    constrained

Stress-tensor-Voigt (kbar):     -461.04     -457.21     -443.72      107.51       65.10      189.81
Target enthalpy (eV/cell)     -203.7602

siesta: Stress tensor (static) (eV/Ang**3):
        -0.287566    0.067006    0.118715
         0.067006   -0.285313    0.040505
         0.118715    0.040505   -0.276624

siesta: Pressure (static):        453.68987628  kBar

siesta: Stress tensor (total) (eV/Ang**3):
        -0.287757    0.067104    0.118467
         0.067104   -0.285363    0.040632
         0.118467    0.040632   -0.276948

siesta: Pressure (total):        453.99161879  kBar
 Anneal: Kinetic Energy=   1.141617153317094E-003
 Anneal: Velocity scale factor =    1.07690135865269     
 Anneal: Cell scale factor =    1.00177748925946     

siesta: Temp_ion =     139.364 K

* Maximum dynamic memory allocated =     5 MB

siesta:                 ==============================
                            Begin MD step =     18
                        ==============================

superc: Internal auxiliary supercell:     5 x     5 x     5  =     125
superc: Number of atoms, orbitals, and projectors:    250  1000  2250

outcell: Unit cell vectors (Ang):
        2.501283    2.537241    0.000000
        0.000000    2.498894    2.573576
        2.460674    0.000000    2.496595

outcell: Cell vector modules (Ang)   :    3.562866    3.587167    3.505410
outcell: Cell angles (23,13,12) (deg):     59.2716     60.4746     60.2585
outcell: Cell volume (Ang**3)        :     31.6725

InitMesh: MESH =    18 x    18 x    18 =        5832
InitMesh: Mesh cutoff (required, used) =   100.000   104.293 Ry

siesta: Eharris(eV) =    -211.666656


siesta: Eharris(eV) =    -211.666656


siesta: Atomic forces (eV/Ang):
----------------------------------------
   Tot   -0.015396    0.008307    0.003705
----------------------------------------
   Max    1.035451
   Res    0.834060    sqrt( Sum f_i^2 / 3N )
----------------------------------------
   Max    1.035451    constrained

Stress-tensor-Voigt (kbar):     -474.28     -471.43     -451.98      105.61       62.66      188.53
Target enthalpy (eV/cell)     -203.7345

siesta: Stress tensor (static) (eV/Ang**3):
        -0.295868    0.065861    0.117917
         0.065861   -0.294217    0.039017
         0.117917    0.039017   -0.281697

siesta: Pressure (static):        465.58814457  kBar

siesta: Stress tensor (total) (eV/Ang**3):
        -0.296022    0.065917    0.117668
         0.065917   -0.294238    0.039108
         0.117668    0.039108   -0.282101

siesta: Pressure (total):        465.89671516  kBar
 Anneal: Kinetic Energy=   1.201147395183652E-003
 Anneal: Velocity scale factor =    1.07229583407808     
 Anneal: Cell scale factor =    1.00211298808045     

siesta: Temp_ion =     145.379 K

* Maximum dynamic memory allocated =     5 MB

siesta:                 ==============================
                            Begin MD step =     19
                        ==============================

superc: Internal auxiliary supercell:     5 x     5 x     5  =     125
superc: Number of atoms, orbitals, and projectors:    250  1000  2250

outcell: Unit cell vectors (Ang):
        2.508715    2.526504    0.000000
        0.000000    2.506021    2.567122
        2.442080    0.000000    2.501870

outcell: Cell vector modules (Ang)   :    3.560459    3.587514    3.496156
outcell: Cell angles (23,13,12) (deg):     59.1984     60.5168     60.2851
outcell: Cell volume (Ang**3)        :     31.5679

InitMesh: MESH =    18 x    18 x    18 =        5832
InitMesh: Mesh cutoff (required, used) =   100.000   104.293 Ry

siesta: Eharris(eV) =    -211.621381


siesta: Eharris(eV) =    -211.621381


siesta: Atomic forces (eV/Ang):
----------------------------------------
   Tot   -0.010117    0.010483    0.001567
----------------------------------------
   Max    1.028190
   Res    0.815672    sqrt( Sum f_i^2 / 3N )
----------------------------------------
   Max    1.028190    constrained

Stress-tensor-Voigt (kbar):     -482.83     -480.16     -454.88      103.66       61.54      185.85
Target enthalpy (eV/cell)     -203.7159

siesta: Stress tensor (static) (eV/Ang**3):
        -0.301244    0.064679    0.116231
         0.064679   -0.299684    0.038371
         0.116231    0.038371   -0.283423

siesta: Pressure (static):        472.30072529  kBar

siesta: Stress tensor (total) (eV/Ang**3):
        -0.301357    0.064697    0.115996
         0.064697   -0.299687    0.038408
         0.115996    0.038408   -0.283914

siesta: Pressure (total):        472.62448320  kBar
 Anneal: Kinetic Energy=   1.298459542102189E-003
 Anneal: Velocity scale factor =    1.06564184939511     
 Anneal: Cell scale factor =    1.00223411092434     

siesta: Temp_ion =     155.213 K

* Maximum dynamic memory allocated =     5 MB

siesta:                 ==============================
                            Begin MD step =     20
                        ==============================

superc: Internal auxiliary supercell:     5 x     5 x     5  =     125
superc: Number of atoms, orbitals, and projectors:    250  1000  2250

outcell: Unit cell vectors (Ang):
        2.517016    2.516014    0.000000
        0.000000    2.514043    2.560814
        2.423882    0.000000    2.507460

outcell: Cell vector modules (Ang)   :    3.558889    3.588618    3.487486
outcell: Cell angles (23,13,12) (deg):     59.1318     60.5573     60.3123
outcell: Cell volume (Ang**3)        :     31.4841

InitMesh: MESH =    18 x    18 x    18 =        5832
InitMesh: Mesh cutoff (required, used) =   100.000   104.249 Ry

siesta: Eharris(eV) =    -211.587276


siesta: Eharris(eV) =    -211.587276


siesta: Atomic forces (eV/Ang):
----------------------------------------
   Tot   -0.005551    0.006136   -0.001276
----------------------------------------
   Max    1.007027
   Res    0.792157    sqrt( Sum f_i^2 / 3N )
----------------------------------------
   Max    1.007027    constrained

Stress-tensor-Voigt (kbar):     -488.92     -486.16     -455.74       98.60       60.46      181.44
Target enthalpy (eV/cell)     -203.7032

siesta: Stress tensor (static) (eV/Ang**3):
        -0.305083    0.061554    0.113445
         0.061554   -0.303430    0.037772
         0.113445    0.037772   -0.283870

siesta: Pressure (static):        476.59032489  kBar

siesta: Stress tensor (total) (eV/Ang**3):
        -0.305154    0.061543    0.113244
         0.061543   -0.303432    0.037739
         0.113244    0.037739   -0.284446

siesta: Pressure (total):        476.93665723  kBar
 Anneal: Kinetic Energy=   1.426924565114934E-003
 Anneal: Velocity scale factor =    1.05819850515515     
 Anneal: Cell scale factor =    1.00227172532946     

siesta: Temp_ion =     168.195 K

* Maximum dynamic memory allocated =     5 MB

siesta:                 ==============================
                            Begin MD step =     21
                        ==============================

superc: Internal auxiliary supercell:     5 x     5 x     5  =     125
superc: Number of atoms, orbitals, and projectors:    250  1000  2250

outcell: Unit cell vectors (Ang):
        2.525951    2.506077    0.000000
        0.000000    2.522699    2.554647
        2.406238    0.000000    2.513156

outcell: Cell vector modules (Ang)   :    3.558208    3.590297    3.479358
outcell: Cell angles (23,13,12) (deg):     59.0727     60.5973     60.3383
outcell: Cell volume (Ang**3)        :     31.4194

InitMesh: MESH =    18 x    18 x    18 =        5832
InitMesh: Mesh cutoff (required, used) =   100.000   104.160 Ry

siesta: Eharris(eV) =    -211.563566


siesta: Eharris(eV) =    -211.563566


siesta: Atomic forces (eV/Ang):
----------------------------------------
   Tot    0.011783    0.010584    0.006103
----------------------------------------
   Max    0.975557
   Res    0.766903    sqrt( Sum f_i^2 / 3N )
----------------------------------------
   Max    0.975557    constrained

Stress-tensor-Voigt (kbar):     -494.89     -492.90     -456.03       93.68       61.29      176.03
Target enthalpy (eV/cell)     -203.6961

siesta: Stress tensor (static) (eV/Ang**3):
        -0.308850    0.058499    0.110016
         0.058499   -0.307622    0.038372
         0.110016    0.038372   -0.283981

siesta: Pressure (static):        480.90005592  kBar

siesta: Stress tensor (total) (eV/Ang**3):
        -0.308884    0.058473    0.109868
         0.058473   -0.307642    0.038257
         0.109868    0.038257   -0.284629

siesta: Pressure (total):        481.27492887  kBar
 Anneal: Kinetic Energy=   1.572849557940076E-003
 Anneal: Velocity scale factor =    1.05117064027055     
 Anneal: Cell scale factor =    1.00228460006520     

siesta: Temp_ion =     182.941 K

* Maximum dynamic memory allocated =     5 MB

siesta:                 ==============================
                            Begin MD step =     22
                        ==============================

superc: Internal auxiliary supercell:     5 x     5 x     5  =     125
superc: Number of atoms, orbitals, and projectors:    250  1000  2250

outcell: Unit cell vectors (Ang):
        2.535517    2.496670    0.000000
        0.000000    2.532074    2.548425
        2.389232    0.000000    2.518897

outcell: Cell vector modules (Ang)   :    3.558399    3.592474    3.471783
outcell: Cell angles (23,13,12) (deg):     59.0240     60.6356     60.3615
outcell: Cell volume (Ang**3)        :     31.3733

InitMesh: MESH =    18 x    18 x    18 =        5832
InitMesh: Mesh cutoff (required, used) =   100.000   104.032 Ry

siesta: Eharris(eV) =    -211.549874


siesta: Eharris(eV) =    -211.549874


siesta: Atomic forces (eV/Ang):
----------------------------------------
   Tot   -0.004034    0.013485   -0.007235
----------------------------------------
   Max    0.924816
   Res    0.745471    sqrt( Sum f_i^2 / 3N )
----------------------------------------
   Max    0.924816    constrained

Stress-tensor-Voigt (kbar):     -500.18     -498.42     -455.63       88.24       61.79      168.52
Target enthalpy (eV/cell)     -203.6945

siesta: Stress tensor (static) (eV/Ang**3):
        -0.312178    0.055098    0.105262
         0.055098   -0.311026    0.038765
         0.105262    0.038765   -0.283687

siesta: Pressure (static):        484.33833948  kBar

siesta: Stress tensor (total) (eV/Ang**3):
        -0.312186    0.055075    0.105184
         0.055075   -0.311085    0.038564
         0.105184    0.038564   -0.284380

siesta: Pressure (total):        484.74436524  kBar
 Anneal: Kinetic Energy=   1.720909220246586E-003
 Anneal: Velocity scale factor =    1.04522150841149     
 Anneal: Cell scale factor =    1.00226737626618     

siesta: Temp_ion =     197.903 K

* Maximum dynamic memory allocated =     5 MB

siesta:                 ==============================
                            Begin MD step =     23
                        ==============================

superc: Internal auxiliary supercell:     5 x     5 x     5  =     125
superc: Number of atoms, orbitals, and projectors:    250  1000  2250

outcell: Unit cell vectors (Ang):
        2.545656    2.487836    0.000000
        0.000000    2.542051    2.542180
        2.373055    0.000000    2.524609

outcell: Cell vector modules (Ang)   :    3.559451    3.595095    3.464829
outcell: Cell angles (23,13,12) (deg):     58.9866     60.6708     60.3822
outcell: Cell volume (Ang**3)        :     31.3457

InitMesh: MESH =    18 x    18 x    18 =        5832
InitMesh: Mesh cutoff (required, used) =   100.000   103.869 Ry

siesta: Eharris(eV) =    -211.545896


siesta: Eharris(eV) =    -211.545896


siesta: Atomic forces (eV/Ang):
----------------------------------------
   Tot   -0.007816    0.036143   -0.018676
----------------------------------------
   Max    0.859595
   Res    0.726512    sqrt( Sum f_i^2 / 3N )
----------------------------------------
   Max    0.859595    constrained

Stress-tensor-Voigt (kbar):     -503.26     -500.59     -453.63       83.49       63.63      159.36
Target enthalpy (eV/cell)     -203.6979

siesta: Stress tensor (static) (eV/Ang**3):
        -0.314104    0.052108    0.099462
         0.052108   -0.312328    0.039997
         0.099462    0.039997   -0.282423

siesta: Pressure (static):        485.38730015  kBar

siesta: Stress tensor (total) (eV/Ang**3):
        -0.314104    0.052109    0.099464
         0.052109   -0.312439    0.039716
         0.099464    0.039716   -0.283129

siesta: Pressure (total):        485.82397903  kBar
 Anneal: Kinetic Energy=   1.858657939183998E-003
 Anneal: Velocity scale factor =    1.04051384456084     
 Anneal: Cell scale factor =    1.00218375693785     

siesta: Temp_ion =     211.822 K

* Maximum dynamic memory allocated =     5 MB

siesta:                 ==============================
                            Begin MD step =     24
                        ==============================

superc: Internal auxiliary supercell:     5 x     5 x     5  =     125
superc: Number of atoms, orbitals, and projectors:    250  1000  2250

outcell: Unit cell vectors (Ang):
        2.556153    2.479498    0.000000
        0.000000    2.552301    2.535771
        2.357850    0.000000    2.530122

outcell: Cell vector modules (Ang)   :    3.561155    3.597829    3.458464
outcell: Cell angles (23,13,12) (deg):     58.9613     60.7014     60.4009
outcell: Cell volume (Ang**3)        :     31.3315

InitMesh: MESH =    18 x    18 x    18 =        5832
InitMesh: Mesh cutoff (required, used) =   100.000   103.683 Ry

siesta: Eharris(eV) =    -211.548880


siesta: Eharris(eV) =    -211.548880


siesta: Atomic forces (eV/Ang):
----------------------------------------
   Tot   -0.021928    0.047013   -0.014685
----------------------------------------
   Max    0.944366
   Res    0.717055    sqrt( Sum f_i^2 / 3N )
----------------------------------------
   Max    0.944366    constrained

Stress-tensor-Voigt (kbar):     -507.07     -503.84     -450.52       78.31       66.32      149.23
Target enthalpy (eV/cell)     -203.7049

siesta: Stress tensor (static) (eV/Ang**3):
        -0.316472    0.048837    0.093061
         0.048837   -0.314297    0.041736
         0.093061    0.041736   -0.280506

siesta: Pressure (static):        486.67929889  kBar

siesta: Stress tensor (total) (eV/Ang**3):
        -0.316482    0.048879    0.093144
         0.048879   -0.314470    0.041391
         0.093144    0.041391   -0.281191

siesta: Pressure (total):        487.14351582  kBar
 Anneal: Kinetic Energy=   1.972874252509326E-003
 Anneal: Velocity scale factor =    1.03709562577574     
 Anneal: Cell scale factor =    1.00205424578641     

siesta: Temp_ion =     223.364 K

* Maximum dynamic memory allocated =     5 MB

siesta:                 ==============================
                            Begin MD step =     25
                        ==============================

superc: Internal auxiliary supercell:     5 x     5 x     5  =     125
superc: Number of atoms, orbitals, and projectors:    250  1000  2250

outcell: Unit cell vectors (Ang):
        2.567091    2.471690    0.000000
        0.000000    2.562935    2.529108
        2.343693    0.000000    2.535319

outcell: Cell vector modules (Ang)   :    3.563595    3.600698    3.452643
outcell: Cell angles (23,13,12) (deg):     58.9506     60.7256     60.4164
outcell: Cell volume (Ang**3)        :     31.3314

InitMesh: MESH =    18 x    18 x    18 =        5832
InitMesh: Mesh cutoff (required, used) =   100.000   103.477 Ry

siesta: Eharris(eV) =    -211.558956


siesta: Eharris(eV) =    -211.558956


siesta: Atomic forces (eV/Ang):
----------------------------------------
   Tot   -0.016946    0.048518    0.001274
----------------------------------------
   Max    1.052823
   Res    0.731570    sqrt( Sum f_i^2 / 3N )
----------------------------------------
   Max    1.052823    constrained

Stress-tensor-Voigt (kbar):     -509.54     -503.43     -445.54       71.55       70.19      138.33
Target enthalpy (eV/cell)     -203.7154

siesta: Stress tensor (static) (eV/Ang**3):
        -0.317986    0.044561    0.086183
         0.044561   -0.313974    0.044195
         0.086183    0.044195   -0.277446

siesta: Pressure (static):        485.68134377  kBar

siesta: Stress tensor (total) (eV/Ang**3):
        -0.318024    0.044656    0.086340
         0.044656   -0.314210    0.043808
         0.086340    0.043808   -0.278080

siesta: Pressure (total):        486.16631916  kBar
 Anneal: Kinetic Energy=   2.052302267709173E-003
 Anneal: Velocity scale factor =    1.03493703212608     
 Anneal: Cell scale factor =    1.00184827800032     

siesta: Temp_ion =     231.391 K

* Maximum dynamic memory allocated =     5 MB

siesta:                 ==============================
                            Begin MD step =     26
                        ==============================

superc: Internal auxiliary supercell:     5 x     5 x     5  =     125
superc: Number of atoms, orbitals, and projectors:    250  1000  2250

outcell: Unit cell vectors (Ang):
        2.578341    2.464565    0.000000
        0.000000    2.573581    2.522069
        2.330643    0.000000    2.540005

outcell: Cell vector modules (Ang)   :    3.566780    3.603352    3.447248
outcell: Cell angles (23,13,12) (deg):     58.9545     60.7430     60.4285
outcell: Cell volume (Ang**3)        :     31.3412

InitMesh: MESH =    18 x    18 x    18 =        5832
InitMesh: Mesh cutoff (required, used) =   100.000   103.250 Ry

siesta: Eharris(eV) =    -211.573858


siesta: Eharris(eV) =    -211.573858


siesta: Atomic forces (eV/Ang):
----------------------------------------
   Tot   -0.025406    0.041502   -0.013194
----------------------------------------
   Max    1.146487
   Res    0.749637    sqrt( Sum f_i^2 / 3N )
----------------------------------------
   Max    1.146487    constrained

Stress-tensor-Voigt (kbar):     -509.99     -502.45     -441.54       66.93       73.67      127.29
Target enthalpy (eV/cell)     -203.7283

siesta: Stress tensor (static) (eV/Ang**3):
        -0.318221    0.041619    0.079233
         0.041619   -0.313308    0.046384
         0.079233    0.046384   -0.275031

siesta: Pressure (static):        484.16173764  kBar

siesta: Stress tensor (total) (eV/Ang**3):
        -0.318305    0.041776    0.079448
         0.041776   -0.313600    0.045982
         0.079448    0.045982   -0.275584

siesta: Pressure (total):        484.65770175  kBar
 Anneal: Kinetic Energy=   2.097550048034437E-003
 Anneal: Velocity scale factor =    1.03377858200069     
 Anneal: Cell scale factor =    1.00168114316522     

siesta: Temp_ion =     235.963 K

* Maximum dynamic memory allocated =     5 MB

siesta:                 ==============================
                            Begin MD step =     27
                        ==============================

superc: Internal auxiliary supercell:     5 x     5 x     5  =     125
superc: Number of atoms, orbitals, and projectors:    250  1000  2250

outcell: Unit cell vectors (Ang):
        2.589700    2.457904    0.000000
        0.000000    2.584177    2.514690
        2.318696    0.000000    2.544275

outcell: Cell vector modules (Ang)   :    3.570412    3.605779    3.442338
outcell: Cell angles (23,13,12) (deg):     58.9717     60.7537     60.4379
outcell: Cell volume (Ang**3)        :     31.3585

InitMesh: MESH =    18 x    18 x    18 =        5832
InitMesh: Mesh cutoff (required, used) =   100.000   103.019 Ry

siesta: Eharris(eV) =    -211.592253


siesta: Eharris(eV) =    -211.592253


siesta: Atomic forces (eV/Ang):
----------------------------------------
   Tot   -0.021061    0.044289   -0.015221
----------------------------------------
   Max    1.211385
   Res    0.772402    sqrt( Sum f_i^2 / 3N )
----------------------------------------
   Max    1.211385    constrained

Stress-tensor-Voigt (kbar):     -511.32     -502.53     -439.10       63.82       77.36      113.52
Target enthalpy (eV/cell)     -203.7427

siesta: Stress tensor (static) (eV/Ang**3):
        -0.318995    0.039613    0.070598
         0.039613   -0.313317    0.048674
         0.070598    0.048674   -0.273604

siesta: Pressure (static):        483.81762138  kBar

siesta: Stress tensor (total) (eV/Ang**3):
        -0.319138    0.039832    0.070854
         0.039832   -0.313651    0.048284
         0.070854    0.048284   -0.274060

siesta: Pressure (total):        484.31584925  kBar
 Anneal: Kinetic Energy=   2.116063282995303E-003
 Anneal: Velocity scale factor =    1.03331852148486     
 Anneal: Cell scale factor =    1.00157640263102     

siesta: Temp_ion =     237.834 K

* Maximum dynamic memory allocated =     5 MB

siesta:                 ==============================
                            Begin MD step =     28
                        ==============================

superc: Internal auxiliary supercell:     5 x     5 x     5  =     125
superc: Number of atoms, orbitals, and projectors:    250  1000  2250

outcell: Unit cell vectors (Ang):
        2.601265    2.451557    0.000000
        0.000000    2.594830    2.506951
        2.308096    0.000000    2.548286

outcell: Cell vector modules (Ang)   :    3.574452    3.608039    3.438178
outcell: Cell angles (23,13,12) (deg):     59.0036     60.7553     60.4454
outcell: Cell volume (Ang**3)        :     31.3859

InitMesh: MESH =    18 x    18 x    18 =        5832
InitMesh: Mesh cutoff (required, used) =   100.000   102.787 Ry

siesta: Eharris(eV) =    -211.615299


siesta: Eharris(eV) =    -211.615299


siesta: Atomic forces (eV/Ang):
----------------------------------------
   Tot   -0.015103    0.037643   -0.011683
----------------------------------------
   Max    1.266131
   Res    0.805409    sqrt( Sum f_i^2 / 3N )
----------------------------------------
   Max    1.266131    constrained

Stress-tensor-Voigt (kbar):     -510.86     -500.00     -436.06       59.79       81.43      103.13
Target enthalpy (eV/cell)     -203.7592

siesta: Stress tensor (static) (eV/Ang**3):
        -0.318634    0.037042    0.064094
         0.037042   -0.311711    0.051177
         0.064094    0.051177   -0.271816

siesta: Pressure (static):        481.81250172  kBar

siesta: Stress tensor (total) (eV/Ang**3):
        -0.318850    0.037320    0.064369
         0.037320   -0.312070    0.050822
         0.064369    0.050822   -0.272167

siesta: Pressure (total):        482.30636917  kBar
 Anneal: Kinetic Energy=   2.116845224878352E-003
 Anneal: Velocity scale factor =    1.03329926260307     
 Anneal: Cell scale factor =    1.00144874438169     

siesta: Temp_ion =     237.913 K

* Maximum dynamic memory allocated =     5 MB

siesta:                 ==============================
                            Begin MD step =     29
                        ==============================

superc: Internal auxiliary supercell:     5 x     5 x     5  =     125
superc: Number of atoms, orbitals, and projectors:    250  1000  2250

outcell: Unit cell vectors (Ang):
        2.612851    2.445613    0.000000
        0.000000    2.605264    2.498814
        2.298513    0.000000    2.551978

outcell: Cell vector modules (Ang)   :    3.578828    3.609913    3.434495
outcell: Cell angles (23,13,12) (deg):     59.0466     60.7511     60.4505
outcell: Cell volume (Ang**3)        :     31.4183

InitMesh: MESH =    18 x    18 x    18 =        5832
InitMesh: Mesh cutoff (required, used) =   100.000   102.555 Ry

siesta: Eharris(eV) =    -211.640638


siesta: Eharris(eV) =    -211.640638


siesta: Atomic forces (eV/Ang):
----------------------------------------
   Tot   -0.026536    0.032934   -0.010171
----------------------------------------
   Max    1.297222
   Res    0.836466    sqrt( Sum f_i^2 / 3N )
----------------------------------------
   Max    1.297222    constrained

Stress-tensor-Voigt (kbar):     -510.37     -497.50     -433.69       58.04       86.70       92.69
Target enthalpy (eV/cell)     -203.7767

siesta: Stress tensor (static) (eV/Ang**3):
        -0.318251    0.035895    0.057583
         0.035895   -0.310146    0.054412
         0.057583    0.054412   -0.270437

siesta: Pressure (static):        480.03511119  kBar

siesta: Stress tensor (total) (eV/Ang**3):
        -0.318547    0.036224    0.057853
         0.036224   -0.310511    0.054112
         0.057853    0.054112   -0.270683

siesta: Pressure (total):        480.51993151  kBar
 Anneal: Kinetic Energy=   2.110830968899192E-003
 Anneal: Velocity scale factor =    1.03344774895542     
 Anneal: Cell scale factor =    1.00134856924070     

siesta: Temp_ion =     237.305 K

* Maximum dynamic memory allocated =     5 MB

siesta:                 ==============================
                            Begin MD step =     30
                        ==============================

superc: Internal auxiliary supercell:     5 x     5 x     5  =     125
superc: Number of atoms, orbitals, and projectors:    250  1000  2250

outcell: Unit cell vectors (Ang):
        2.624457    2.439849    0.000000
        0.000000    2.615478    2.490160
        2.289943    0.000000    2.555420

outcell: Cell vector modules (Ang)   :    3.583384    3.611318    3.431327
outcell: Cell angles (23,13,12) (deg):     59.1011     60.7399     60.4540
outcell: Cell volume (Ang**3)        :     31.4537

InitMesh: MESH =    18 x    18 x    18 =        5832
InitMesh: Mesh cutoff (required, used) =   100.000   102.331 Ry

siesta: Eharris(eV) =    -211.667571


siesta: Eharris(eV) =    -211.667571


siesta: Atomic forces (eV/Ang):
----------------------------------------
   Tot   -0.016186    0.031583    0.006698
----------------------------------------
   Max    1.305816
   Res    0.866413    sqrt( Sum f_i^2 / 3N )
----------------------------------------
   Max    1.305816    constrained

Stress-tensor-Voigt (kbar):     -510.11     -495.44     -432.63       56.70       92.88       81.82
Target enthalpy (eV/cell)     -203.7949

siesta: Stress tensor (static) (eV/Ang**3):
        -0.317996    0.035021    0.050827
         0.035021   -0.308875    0.058202
         0.050827    0.058202   -0.269871

siesta: Pressure (static):        478.91828479  kBar

siesta: Stress tensor (total) (eV/Ang**3):
        -0.318379    0.035388    0.051069
         0.035388   -0.309226    0.057971
         0.051069    0.057971   -0.270023

siesta: Pressure (total):        479.39191691  kBar
 Anneal: Kinetic Energy=   2.109910572766451E-003
 Anneal: Velocity scale factor =    1.03347054547156     
 Anneal: Cell scale factor =    1.00130290957992     

siesta: Temp_ion =     237.212 K

* Maximum dynamic memory allocated =     5 MB

siesta:                 ==============================
                            Begin MD step =     31
                        ==============================

superc: Internal auxiliary supercell:     5 x     5 x     5  =     125
superc: Number of atoms, orbitals, and projectors:    250  1000  2250

outcell: Unit cell vectors (Ang):
        2.636106    2.434226    0.000000
        0.000000    2.625509    2.480903
        2.282417    0.000000    2.558749

outcell: Cell vector modules (Ang)   :    3.588107    3.612227    3.428793
outcell: Cell angles (23,13,12) (deg):     59.1673     60.7220     60.4555
outcell: Cell volume (Ang**3)        :     31.4931

InitMesh: MESH =    18 x    18 x    18 =        5832
InitMesh: Mesh cutoff (required, used) =   100.000   102.117 Ry

siesta: Eharris(eV) =    -211.696578


siesta: Eharris(eV) =    -211.696578


siesta: Atomic forces (eV/Ang):
----------------------------------------
   Tot   -0.019742    0.022300    0.009959
----------------------------------------
   Max    1.297833
   Res    0.892570    sqrt( Sum f_i^2 / 3N )
----------------------------------------
   Max    1.297833    constrained

Stress-tensor-Voigt (kbar):     -506.03     -491.25     -430.55       54.61       98.57       72.55
Target enthalpy (eV/cell)     -203.8142

siesta: Stress tensor (static) (eV/Ang**3):
        -0.315363    0.033696    0.045091
         0.033696   -0.306291    0.061674
         0.045091    0.061674   -0.268651

siesta: Pressure (static):        475.48093773  kBar

siesta: Stress tensor (total) (eV/Ang**3):
        -0.315836    0.034085    0.045279
         0.034085   -0.306611    0.061520
         0.045279    0.061520   -0.268726

siesta: Pressure (total):        475.94396827  kBar
 Anneal: Kinetic Energy=   2.126442866171153E-003
 Anneal: Velocity scale factor =    1.03306400182492     
 Anneal: Cell scale factor =    1.00121867114025     

siesta: Temp_ion =     238.883 K

* Maximum dynamic memory allocated =     5 MB

siesta:                 ==============================
                            Begin MD step =     32
                        ==============================

superc: Internal auxiliary supercell:     5 x     5 x     5  =     125
superc: Number of atoms, orbitals, and projectors:    250  1000  2250

outcell: Unit cell vectors (Ang):
        2.647398    2.428821    0.000000
        0.000000    2.635131    2.471101
        2.275782    0.000000    2.561867

outcell: Cell vector modules (Ang)   :    3.592755    3.612514    3.426711
outcell: Cell angles (23,13,12) (deg):     59.2429     60.7003     60.4535
outcell: Cell volume (Ang**3)        :     31.5311

InitMesh: MESH =    18 x    18 x    18 =        5832
InitMesh: Mesh cutoff (required, used) =   100.000   101.924 Ry

siesta: Eharris(eV) =    -211.725164


siesta: Eharris(eV) =    -211.725164


siesta: Atomic forces (eV/Ang):
----------------------------------------
   Tot   -0.019317    0.014709    0.001435
----------------------------------------
   Max    1.267800
   Res    0.917782    sqrt( Sum f_i^2 / 3N )
----------------------------------------
   Max    1.267800    constrained

Stress-tensor-Voigt (kbar):     -502.46     -485.80     -431.03       53.65      105.77       63.73
Target enthalpy (eV/cell)     -203.8333

siesta: Stress tensor (static) (eV/Ang**3):
        -0.313046    0.033094    0.039665
         0.033094   -0.302940    0.066093
         0.039665    0.066093   -0.269001

siesta: Pressure (static):        472.64020761  kBar

siesta: Stress tensor (total) (eV/Ang**3):
        -0.313607    0.033484    0.039777
         0.033484   -0.303211    0.066016
         0.039777    0.066016   -0.269023

siesta: Pressure (total):        473.09660660  kBar
 Anneal: Kinetic Energy=   2.166646115343333E-003
 Anneal: Velocity scale factor =    1.03210061813946     
 Anneal: Cell scale factor =    1.00123902135274     

siesta: Temp_ion =     242.945 K

* Maximum dynamic memory allocated =     5 MB

siesta:                 ==============================
                            Begin MD step =     33
                        ==============================

superc: Internal auxiliary supercell:     5 x     5 x     5  =     125
superc: Number of atoms, orbitals, and projectors:    250  1000  2250

outcell: Unit cell vectors (Ang):
        2.658377    2.423527    0.000000
        0.000000    2.644204    2.460610
        2.269992    0.000000    2.565042

outcell: Cell vector modules (Ang)   :    3.597284    3.611982    3.425244
outcell: Cell angles (23,13,12) (deg):     59.3260     60.6758     60.4489
outcell: Cell volume (Ang**3)        :     31.5672

InitMesh: MESH =    18 x    18 x    18 =        5832
InitMesh: Mesh cutoff (required, used) =   100.000   101.749 Ry

siesta: Eharris(eV) =    -211.753261


siesta: Eharris(eV) =    -211.753261


siesta: Atomic forces (eV/Ang):
----------------------------------------
   Tot   -0.021211   -0.007043   -0.002278
----------------------------------------
   Max    1.223582
   Res    0.934889    sqrt( Sum f_i^2 / 3N )
----------------------------------------
   Max    1.223582    constrained

Stress-tensor-Voigt (kbar):     -497.38     -481.42     -430.96       54.93      112.92       55.85
Target enthalpy (eV/cell)     -203.8523

siesta: Stress tensor (static) (eV/Ang**3):
        -0.309796    0.033915    0.034845
         0.033915   -0.300265    0.070484
         0.034845    0.070484   -0.268982

siesta: Pressure (static):        469.46573163  kBar

siesta: Stress tensor (total) (eV/Ang**3):
        -0.310437    0.034283    0.034860
         0.034283   -0.300476    0.070476
         0.034860    0.070476   -0.268983

siesta: Pressure (total):        469.92142593  kBar
 Anneal: Kinetic Energy=   2.237242267397879E-003
 Anneal: Velocity scale factor =    1.03049070903908     
 Anneal: Cell scale factor =    1.00124047116441     

siesta: Temp_ion =     250.079 K

* Maximum dynamic memory allocated =     5 MB

siesta:                 ==============================
                            Begin MD step =     34
                        ==============================

superc: Internal auxiliary supercell:     5 x     5 x     5  =     125
superc: Number of atoms, orbitals, and projectors:    250  1000  2250

outcell: Unit cell vectors (Ang):
        2.668876    2.418130    0.000000
        0.000000    2.652832    2.449449
        2.264955    0.000000    2.568223

outcell: Cell vector modules (Ang)   :    3.601424    3.610723    3.424294
outcell: Cell angles (23,13,12) (deg):     59.4169     60.6485     60.4415
outcell: Cell volume (Ang**3)        :     31.5988

InitMesh: MESH =    18 x    18 x    18 =        5832
InitMesh: Mesh cutoff (required, used) =   100.000   101.610 Ry

siesta: Eharris(eV) =    -211.779922


siesta: Eharris(eV) =    -211.779922


siesta: Atomic forces (eV/Ang):
----------------------------------------
   Tot   -0.012235   -0.015347   -0.004181
----------------------------------------
   Max    1.156502
   Res    0.946062    sqrt( Sum f_i^2 / 3N )
----------------------------------------
   Max    1.156502    constrained

Stress-tensor-Voigt (kbar):     -491.46     -474.59     -430.13       56.50      120.39       49.20
Target enthalpy (eV/cell)     -203.8710

siesta: Stress tensor (static) (eV/Ang**3):
        -0.306038    0.034939    0.030805
         0.034939   -0.296064    0.075094
         0.030805    0.075094   -0.268451

siesta: Pressure (static):        464.93189477  kBar

siesta: Stress tensor (total) (eV/Ang**3):
        -0.306744    0.035261    0.030707
         0.035261   -0.296211    0.075139
         0.030707    0.075139   -0.268465

siesta: Pressure (total):        465.39489719  kBar
 Anneal: Kinetic Energy=   2.343558831699733E-003
 Anneal: Velocity scale factor =    1.02824503890660     
 Anneal: Cell scale factor =    1.00121407704835     

siesta: Temp_ion =     260.823 K

* Maximum dynamic memory allocated =     5 MB

siesta:                 ==============================
                            Begin MD step =     35
                        ==============================

superc: Internal auxiliary supercell:     5 x     5 x     5  =     125
superc: Number of atoms, orbitals, and projectors:    250  1000  2250

outcell: Unit cell vectors (Ang):
        2.678795    2.412608    0.000000
        0.000000    2.660754    2.437600
        2.260555    0.000000    2.571341

outcell: Cell vector modules (Ang)   :    3.605082    3.608532    3.423727
outcell: Cell angles (23,13,12) (deg):     59.5137     60.6190     60.4322
outcell: Cell volume (Ang**3)        :     31.6218

InitMesh: MESH =    18 x    18 x    18 =        5832
InitMesh: Mesh cutoff (required, used) =   100.000   101.507 Ry

siesta: Eharris(eV) =    -211.803498


siesta: Eharris(eV) =    -211.803498


siesta: Atomic forces (eV/Ang):
----------------------------------------
   Tot   -0.006112   -0.000433   -0.005386
----------------------------------------
   Max    1.187627
   Res    0.955201    sqrt( Sum f_i^2 / 3N )
----------------------------------------
   Max    1.187627    constrained

Stress-tensor-Voigt (kbar):     -486.66     -469.11     -431.76       58.20      127.80       44.64
Target enthalpy (eV/cell)     -203.8887

siesta: Stress tensor (static) (eV/Ang**3):
        -0.302997    0.036071    0.028082
         0.036071   -0.292708    0.079694
         0.028082    0.079694   -0.269418

siesta: Pressure (static):        462.03107278  kBar

siesta: Stress tensor (total) (eV/Ang**3):
        -0.303746    0.036323    0.027863
         0.036323   -0.292793    0.079768
         0.027863    0.079768   -0.269481

siesta: Pressure (total):        462.51107559  kBar
 Anneal: Kinetic Energy=   2.487374614716403E-003
 Anneal: Velocity scale factor =    1.02550613889677     
 Anneal: Cell scale factor =    1.00128827393879     

siesta: Temp_ion =     275.356 K

[...]
         0.012844    0.036319   -0.255104

siesta: Pressure (static):        398.24201919  kBar

siesta: Stress tensor (total) (eV/Ang**3):
        -0.257785    0.003284    0.012723
         0.003284   -0.234001    0.035983
         0.012723    0.035983   -0.255209

siesta: Pressure (total):        398.94356792  kBar
 Anneal: Kinetic Energy=   5.676996938095918E-003
 Anneal: Velocity scale factor =    1.00008102072495     
 Anneal: Cell scale factor =    1.00048890113055     

siesta: Temp_ion =     597.676 K

* Maximum dynamic memory allocated =     5 MB

siesta:                 ==============================
                            Begin MD step =     94
                        ==============================

superc: Internal auxiliary supercell:     5 x     5 x     5  =     125
superc: Number of atoms, orbitals, and projectors:    250  1000  2250

outcell: Unit cell vectors (Ang):
        2.955111    2.062686    0.000000
        0.000000    2.860913    2.093104
        2.033305    0.000000    2.726319

outcell: Cell vector modules (Ang)   :    3.603797    3.544843    3.401051
outcell: Cell angles (23,13,12) (deg):     61.7498     60.6441     62.4880
outcell: Cell volume (Ang**3)        :     31.8278

InitMesh: MESH =    20 x    18 x    18 =        6480
InitMesh: Mesh cutoff (required, used) =   100.000   100.880 Ry

siesta: Eharris(eV) =    -212.519445


siesta: Eharris(eV) =    -212.519445


siesta: Atomic forces (eV/Ang):
----------------------------------------
   Tot    0.008848   -0.019571    0.010437
----------------------------------------
   Max    0.654475
   Res    0.502181    sqrt( Sum f_i^2 / 3N )
----------------------------------------
   Max    0.654475    constrained

Stress-tensor-Voigt (kbar):     -411.83     -375.99     -410.76       14.54       61.18       25.06
Target enthalpy (eV/cell)     -204.5517

siesta: Stress tensor (static) (eV/Ang**3):
        -0.256942    0.009418    0.015766
         0.009418   -0.233511    0.038609
         0.015766    0.038609   -0.256218

siesta: Pressure (static):        398.77067653  kBar

siesta: Stress tensor (total) (eV/Ang**3):
        -0.257044    0.009074    0.015639
         0.009074   -0.234671    0.038183
         0.015639    0.038183   -0.256375

siesta: Pressure (total):        399.52820277  kBar
 Anneal: Kinetic Energy=   5.808497652000133E-003
 Anneal: Velocity scale factor =   0.999626332507919     
 Anneal: Cell scale factor =    1.00057443073482     

siesta: Temp_ion =     610.964 K

* Maximum dynamic memory allocated =     5 MB

siesta:                 ==============================
                            Begin MD step =     95
                        ==============================

superc: Internal auxiliary supercell:     5 x     5 x     5  =     125
superc: Number of atoms, orbitals, and projectors:    250  1000  2250

outcell: Unit cell vectors (Ang):
        2.956738    2.061493    0.000000
        0.000000    2.858181    2.088007
        2.031480    0.000000    2.727885

outcell: Cell vector modules (Ang)   :    3.604449    3.539628    3.401216
outcell: Cell angles (23,13,12) (deg):     61.7634     60.6627     62.4952
outcell: Cell volume (Ang**3)        :     31.7974

InitMesh: MESH =    20 x    18 x    18 =        6480
InitMesh: Mesh cutoff (required, used) =   100.000   101.157 Ry

siesta: Eharris(eV) =    -212.511854


siesta: Eharris(eV) =    -212.511854


siesta: Atomic forces (eV/Ang):
----------------------------------------
   Tot    0.006434   -0.009555   -0.000440
----------------------------------------
   Max    0.701593
   Res    0.469224    sqrt( Sum f_i^2 / 3N )
----------------------------------------
   Max    0.701593    constrained

Stress-tensor-Voigt (kbar):     -410.35     -375.96     -411.38       22.91       64.03       30.22
Target enthalpy (eV/cell)     -204.5515

siesta: Stress tensor (static) (eV/Ang**3):
        -0.256055    0.014580    0.018975
         0.014580   -0.233424    0.040466
         0.018975    0.040466   -0.256554

siesta: Pressure (static):        398.42972247  kBar

siesta: Stress tensor (total) (eV/Ang**3):
        -0.256121    0.014296    0.018859
         0.014296   -0.234654    0.039964
         0.018859    0.039964   -0.256760

siesta: Pressure (total):        399.23149057  kBar
 Anneal: Kinetic Energy=   5.859912615406627E-003
 Anneal: Velocity scale factor =   0.999454050935624     
 Anneal: Cell scale factor =    1.00060740551747     

siesta: Temp_ion =     616.160 K

* Maximum dynamic memory allocated =     5 MB

siesta:                 ==============================
                            Begin MD step =     96
                        ==============================

superc: Internal auxiliary supercell:     5 x     5 x     5  =     125
superc: Number of atoms, orbitals, and projectors:    250  1000  2250

outcell: Unit cell vectors (Ang):
        2.958162    2.059611    0.000000
        0.000000    2.855445    2.082686
        2.029228    0.000000    2.729542

outcell: Cell vector modules (Ang)   :    3.604542    3.534282    3.401201
outcell: Cell angles (23,13,12) (deg):     61.7765     60.6835     62.5067
outcell: Cell volume (Ang**3)        :     31.7605

InitMesh: MESH =    20 x    18 x    18 =        6480
InitMesh: Mesh cutoff (required, used) =   100.000   101.437 Ry

siesta: Eharris(eV) =    -212.500756


siesta: Eharris(eV) =    -212.500756


siesta: Atomic forces (eV/Ang):
----------------------------------------
   Tot    0.007941   -0.000564    0.014774
----------------------------------------
   Max    0.741419
   Res    0.449283    sqrt( Sum f_i^2 / 3N )
----------------------------------------
   Max    0.741419    constrained

Stress-tensor-Voigt (kbar):     -409.96     -378.29     -413.90       32.69       67.88       34.24
Target enthalpy (eV/cell)     -204.5495

siesta: Stress tensor (static) (eV/Ang**3):
        -0.255841    0.020617    0.021463
         0.020617   -0.234831    0.042932
         0.021463    0.042932   -0.258087

siesta: Pressure (static):        399.88542241  kBar

siesta: Stress tensor (total) (eV/Ang**3):
        -0.255876    0.020405    0.021370
         0.020405   -0.236108    0.042370
         0.021370    0.042370   -0.258334

siesta: Pressure (total):        400.71850658  kBar
 Anneal: Kinetic Energy=   5.829743765200311E-003
 Anneal: Velocity scale factor =   0.999554776092270     
 Anneal: Cell scale factor =    1.00071374331162     

siesta: Temp_ion =     613.111 K

* Maximum dynamic memory allocated =     5 MB

siesta:                 ==============================
                            Begin MD step =     97
                        ==============================

superc: Internal auxiliary supercell:     5 x     5 x     5  =     125
superc: Number of atoms, orbitals, and projectors:    250  1000  2250

outcell: Unit cell vectors (Ang):
        2.959513    2.056923    0.000000
        0.000000    2.852974    2.077058
        2.026639    0.000000    2.731490

outcell: Cell vector modules (Ang)   :    3.604116    3.528971    3.401221
outcell: Cell angles (23,13,12) (deg):     61.7917     60.7063     62.5231
outcell: Cell volume (Ang**3)        :     31.7216

InitMesh: MESH =    20 x    18 x    18 =        6480
InitMesh: Mesh cutoff (required, used) =   100.000   101.709 Ry

siesta: Eharris(eV) =    -212.487982


siesta: Eharris(eV) =    -212.487982


siesta: Atomic forces (eV/Ang):
----------------------------------------
   Tot    0.015093    0.006028    0.019490
----------------------------------------
   Max    0.762489
   Res    0.439647    sqrt( Sum f_i^2 / 3N )
----------------------------------------
   Max    0.762489    constrained

Stress-tensor-Voigt (kbar):     -409.91     -382.11     -415.77       41.95       69.48       39.41
Target enthalpy (eV/cell)     -204.5463

siesta: Stress tensor (static) (eV/Ang**3):
        -0.255829    0.026311    0.024656
         0.026311   -0.237188    0.043968
         0.024656    0.043968   -0.259224

siesta: Pressure (static):        401.74520242  kBar

siesta: Stress tensor (total) (eV/Ang**3):
        -0.255842    0.026182    0.024596
         0.026182   -0.238491    0.043367
         0.024596    0.043367   -0.259502

siesta: Pressure (total):        402.59631328  kBar
 Anneal: Kinetic Energy=   5.721074441369882E-003
 Anneal: Velocity scale factor =   0.999926308849287     
 Anneal: Cell scale factor =    1.00079107442565     

siesta: Temp_ion =     602.130 K

* Maximum dynamic memory allocated =     5 MB

siesta:                 ==============================
                            Begin MD step =     98
                        ==============================

superc: Internal auxiliary supercell:     5 x     5 x     5  =     125
superc: Number of atoms, orbitals, and projectors:    250  1000  2250

outcell: Unit cell vectors (Ang):
        2.960833    2.053474    0.000000
        0.000000    2.850938    2.071311
        2.023619    0.000000    2.733651

outcell: Cell vector modules (Ang)   :    3.603233    3.523943    3.401159
outcell: Cell angles (23,13,12) (deg):     61.8082     60.7314     62.5446
outcell: Cell volume (Ang**3)        :     31.6824

InitMesh: MESH =    20 x    18 x    18 =        6480
InitMesh: Mesh cutoff (required, used) =   100.000   101.957 Ry

siesta: Eharris(eV) =    -212.474215


siesta: Eharris(eV) =    -212.474215


siesta: Atomic forces (eV/Ang):
----------------------------------------
   Tot    0.018632    0.001078    0.010275
----------------------------------------
   Max    0.764634
   Res    0.442795    sqrt( Sum f_i^2 / 3N )
----------------------------------------
   Max    0.764634    constrained

Stress-tensor-Voigt (kbar):     -410.43     -386.29     -417.65       51.29       70.94       43.50
Target enthalpy (eV/cell)     -204.5423

siesta: Stress tensor (static) (eV/Ang**3):
        -0.256166    0.032054    0.027171
         0.032054   -0.239793    0.044895
         0.027171    0.044895   -0.260379

siesta: Pressure (static):        403.93357051  kBar

siesta: Stress tensor (total) (eV/Ang**3):
        -0.256168    0.032011    0.027150
         0.032011   -0.241100    0.044274
         0.027150    0.044274   -0.260674

siesta: Pressure (total):        404.78975403  kBar
 Anneal: Kinetic Energy=   5.545764427704343E-003
 Anneal: Velocity scale factor =    1.00055605785502     
 Anneal: Cell scale factor =    1.00086606790119     

siesta: Temp_ion =     584.415 K

* Maximum dynamic memory allocated =     5 MB

siesta:                 ==============================
                            Begin MD step =     99
                        ==============================

superc: Internal auxiliary supercell:     5 x     5 x     5  =     125
superc: Number of atoms, orbitals, and projectors:    250  1000  2250

outcell: Unit cell vectors (Ang):
        2.962192    2.049259    0.000000
        0.000000    2.849376    2.065454
        2.020255    0.000000    2.736019

outcell: Cell vector modules (Ang)   :    3.601950    3.519239    3.401063
outcell: Cell angles (23,13,12) (deg):     61.8267     60.7578     62.5717
outcell: Cell volume (Ang**3)        :     31.6441

InitMesh: MESH =    20 x    18 x    18 =        6480
InitMesh: Mesh cutoff (required, used) =   100.000   102.178 Ry

siesta: Eharris(eV) =    -212.460074


siesta: Eharris(eV) =    -212.460074


siesta: Atomic forces (eV/Ang):
----------------------------------------
   Tot    0.018484    0.018008    0.007434
----------------------------------------
   Max    0.756959
   Res    0.462036    sqrt( Sum f_i^2 / 3N )
----------------------------------------
   Max    0.756959    constrained

Stress-tensor-Voigt (kbar):     -410.11     -392.15     -420.37       60.54       71.25       46.72
Target enthalpy (eV/cell)     -204.5376

siesta: Stress tensor (static) (eV/Ang**3):
        -0.255967    0.037741    0.029140
         0.037741   -0.243467    0.045087
         0.029140    0.045087   -0.262072

siesta: Pressure (static):        406.69381101  kBar

siesta: Stress tensor (total) (eV/Ang**3):
        -0.255969    0.037785    0.029161
         0.037785   -0.244758    0.044469
         0.029161    0.044469   -0.262369

siesta: Pressure (total):        407.54227189  kBar
 Anneal: Kinetic Energy=   5.316659684856003E-003
 Anneal: Velocity scale factor =    1.00144097962706     
 Anneal: Cell scale factor =    1.00097223724223     

siesta: Temp_ion =     561.263 K

* Maximum dynamic memory allocated =     5 MB

siesta:                 ==============================
                            Begin MD step =    100
                        ==============================

superc: Internal auxiliary supercell:     5 x     5 x     5  =     125
superc: Number of atoms, orbitals, and projectors:    250  1000  2250

outcell: Unit cell vectors (Ang):
        2.963492    2.044290    0.000000
        0.000000    2.848479    2.059581
        2.016619    0.000000    2.738679

outcell: Cell vector modules (Ang)   :    3.600196    3.515068    3.401046
outcell: Cell angles (23,13,12) (deg):     61.8477     60.7857     62.6035
outcell: Cell volume (Ang**3)        :     31.6091

InitMesh: MESH =    20 x    18 x    18 =        6480
InitMesh: Mesh cutoff (required, used) =   100.000   102.360 Ry

siesta: Eharris(eV) =    -212.446520


siesta: Eharris(eV) =    -212.446520


siesta: Atomic forces (eV/Ang):
----------------------------------------
   Tot    0.026011   -0.014297    0.022475
----------------------------------------
   Max    0.736878
   Res    0.490415    sqrt( Sum f_i^2 / 3N )
----------------------------------------
   Max    0.736878    constrained

Stress-tensor-Voigt (kbar):     -411.55     -397.50     -423.53       70.27       71.39       48.62
Target enthalpy (eV/cell)     -204.5326

siesta: Stress tensor (static) (eV/Ang**3):
        -0.256851    0.043727    0.030281
         0.043727   -0.246840    0.045158
         0.030281    0.045158   -0.264059

siesta: Pressure (static):        410.02794968  kBar

siesta: Stress tensor (total) (eV/Ang**3):
        -0.256864    0.043858    0.030343
         0.043858   -0.248097    0.044561
         0.030343    0.044561   -0.264342

siesta: Pressure (total):        410.85769309  kBar
 Anneal: Kinetic Energy=   5.041195815787988E-003
 Anneal: Velocity scale factor =    1.00261025796419     
 Anneal: Cell scale factor =    1.00109402340666     

siesta: Temp_ion =     533.426 K

* Maximum dynamic memory allocated =     5 MB

siesta: Program's energy decomposition (eV):
siesta: Eions   =       380.802124
siesta: Ena     =       111.787884
siesta: Ekin    =        86.941493
siesta: Enl     =        32.642883
siesta: DEna    =         4.321409
siesta: DUscf   =         0.096094
siesta: DUext   =         0.000000
siesta: Exc     =       -67.411728
siesta: eta*DQ  =         0.000000
siesta: Emadel  =         0.000000
siesta: Ekinion =         0.068948
siesta: Eharris =      -212.377572
siesta: Etot    =      -212.355141
siesta: FreeEng =      -212.355141

siesta: Final energy (eV):
siesta:       Kinetic =      86.941493
siesta:       Hartree =       8.956339
siesta:    Ext. field =       0.000000
siesta:   Exch.-corr. =     -67.411728
siesta:  Ion-electron =     -98.887137
siesta:       Ion-ion =    -142.023056
siesta:       Ekinion =       0.068948
siesta:         Total =    -212.355141

siesta: Atomic forces (eV/Ang):
siesta:      1    0.736878    0.305965    0.326108
siesta:      2   -0.710867   -0.320262   -0.303632
siesta: ----------------------------------------
siesta:    Tot    0.026011   -0.014297    0.022475

siesta: Stress tensor (static) (eV/Ang**3):
siesta:    -0.256851    0.043727    0.030281
siesta:     0.043727   -0.246840    0.045158
siesta:     0.030281    0.045158   -0.264059

siesta: Cell volume =         31.609137 Ang**3

siesta: Pressure (static):
siesta:                Solid            Molecule  Units
siesta:           0.00278726          0.00298607  Ry/Bohr**3
siesta:           0.25591655          0.27417097  eV/Ang**3
siesta:         410.02794968        439.27507730  kBar

* Maximum dynamic memory allocated : Node    0 =     5 MB

* Maximum memory occured during ranger                        

timer: CPU execution times:
timer:  Routine       Calls   Time/call    Tot.time        %
timer:  siesta            1     166.968     166.968   100.00
timer:  Setup             1       0.212       0.212     0.13
timer:  bands             1       0.000       0.000     0.00
timer:  writewave         1       0.000       0.000     0.00
timer:  KSV_init          1       0.001       0.001     0.00
timer:  IterMD          100       1.668     166.751    99.87
timer:  hsparse         104       0.020       2.095     1.25
timer:  overfsm         200       0.003       0.641     0.38
timer:  IterSCF         200       0.808     161.587    96.78
timer:  kinefsm         200       0.003       0.587     0.35
timer:  nlefsm          200       0.418      83.634    50.09
timer:  DHSCF           200       0.380      75.923    45.47
timer:  DHSCF1          100       0.159      15.924     9.54
timer:  DHSCF2          100       0.201      20.068    12.02
timer:  REORD          1800       0.000       0.041     0.02
timer:  POISON          300       0.002       0.644     0.39
timer:  DHSCF3          200       0.095      19.011    11.39
timer:  rhoofd          200       0.042       8.335     4.99
timer:  cellXC          300       0.005       1.500     0.90
timer:  vmat            200       0.046       9.141     5.47
timer:  diagon          100       0.007       0.668     0.40
timer:  cdiag           800       0.000       0.124     0.07
timer:  cdiag1          800       0.000       0.006     0.00
timer:  cdiag2          800       0.000       0.019     0.01
timer:  cdiag3          800       0.000       0.069     0.04
timer:  cdiag4          800       0.000       0.002     0.00
timer:  DHSCF4          100       0.209      20.895    12.51
timer:  dfscf           100       0.165      16.453     9.85
timer:  optical           1       0.000       0.000     0.00
  

elaps: ELAPSED times:
elaps:  Routine       Calls   Time/call    Tot.time        %
elaps:  siesta            1     168.073     168.073   100.00
elaps:  Setup             1       0.245       0.245     0.15
elaps:  bands             1       0.000       0.000     0.00
elaps:  writewave         1       0.000       0.000     0.00
elaps:  KSV_init          1       0.000       0.000     0.00
elaps:  IterMD          100       1.678     167.821    99.85
elaps:  hsparse         104       0.020       2.095     1.25
elaps:  overfsm         200       0.003       0.650     0.39
elaps:  IterSCF         200       0.810     161.921    96.34
elaps:  kinefsm         200       0.003       0.586     0.35
elaps:  nlefsm          200       0.418      83.652    49.77
elaps:  DHSCF           200       0.380      75.934    45.18
elaps:  DHSCF1          100       0.159      15.924     9.47
elaps:  DHSCF2          100       0.201      20.072    11.94
elaps:  REORD          1800       0.000       0.049     0.03
elaps:  POISON          300       0.002       0.648     0.39
elaps:  DHSCF3          200       0.095      19.018    11.32
elaps:  rhoofd          200       0.042       8.340     4.96
elaps:  cellXC          300       0.005       1.483     0.88
elaps:  vmat            200       0.046       9.141     5.44
elaps:  diagon          100       0.007       0.670     0.40
elaps:  cdiag           800       0.000       0.117     0.07
elaps:  cdiag1          800       0.000       0.011     0.01
elaps:  cdiag2          800       0.000       0.016     0.01
elaps:  cdiag3          800       0.000       0.066     0.04
elaps:  cdiag4          800       0.000       0.004     0.00
elaps:  DHSCF4          100       0.209      20.897    12.43
elaps:  dfscf           100       0.164      16.450     9.79
elaps:  optical           1       0.000       0.000     0.00
  
>> End of run:  18-MAY-2007  15:57:02
