Siesta Version  : siesta-4.1-1033
Architecture    : x86_64-linux-n-62-18-18
Compiler version: GNU Fortran (GCC) 7.3.0
Compiler flags  : mpifort -m64 -fPIC -O3 -march=native -ftree-vectorize -fexpensive-optimizatioons -funroll-loops -fprefetch-loop-arrays -fno-second-underscore  -flto
PP flags        : -I/zdata/groups/common/nicpa/2018-feb/generic/build-tools/1.0/include -I/zdatta/groups/common/nicpa/2018-feb/generic/gcc/7.3.0/include -I/zdata/groups/common/nicpa/2018-feb/generic/gcc/7.3.0/include -I/zdata/groups/common/nicpa/2018-feb/XeonE5-2665/zlib/1.2.11/gnu-7.3.0/include -I/zdata/groups/common/nicpa/2018-feb/generic/numactl/2.0.11/include -I/zdata/groups/common/nicpa/2018-feb/XeonE5-2665/libxml2/2.9.7/gnu-7.3.0/include -I/zdata/groups/common/nicpa/2018-feb/XeonE5-2665/hwloc/1.11.9/gnu-7.3.0/include -I/zdata/groups/common/nicpa/2018-feb/XeonE5-2665/openmpi/3.0.0/gnu-7.3.0/include -I/zdata/groups/common/nicpa/2018-feb/XeonE5-2665/szip/2.1.1/gnu-7.3.0/include -I/zdata/groups/common/nicpa/2018-feb/XeonE5-2665/hdf5/1.8.18/gnu-7.3.0/include -I/zdata/groups/common/nicpa/2018-feb/XeonE5-2665/pnetcdf/1.8.1/gnu-7.3.0/include -I/zdata/groups/common/nicpa/2018-feb/XeonE5-2665/netcdf/4.6.0/gnu-7.3.0/include -I/zdata/groups/common/nicpa/2018-feb/XeonE5-2665/flook/0.7.0/gnu-7.3.0/include -I/zdata/groups/common/nicpa/2018-feb/XeonE5-2665/parmetis/4.0.3/gnu-7.3.0/include -I/zdata/groups/common/nicpa/2018-feb/XeonE5-2665/scalapack/204/gnu-7.3.0/include -I/zdata/groups/common/nicpa/2018-feb/XeonE5-2665/openblas/0.2.20/gnu-7.3.0/include -I/zdata/groups/common/nicpa/2018-feb/XeonE5-2665/scotch/6.0.4/gnu-7.3.0/include -I/zdata/groups/common/nicpa/2018-feb/XeonE5-2665/mumps/5.1.2/gnu-7.3.0/include -I/zdata/groups/common/nicpa/2018-feb/XeonE5-2665/fftw/3.3.7/gnu-7.3.0/include -I/zdata/groups/common/nicpa/2018-feb/XeonE5-2665/elpa/2017.05.003/gnu-7.3.0/include/elpa -DSIESTA__ELPA -DMPI -D1 -DFC_HAVE_ABORT -DCDF -DCDF4 -DSIESTA__FLOOK  -DNCDF -DNCDF_4 -DNCDF_PARALLEL -DSIESTA__METIS -DSIESTA__MUMPS -DTS_NOCHECKS -DSIESTA__MRRR
Libraries       : libncdf.a libfdict.a -lnetcdff -lnetcdf -lpnetcdf -lhdf5_hl -lhdf5 -lz  -lzmuumps -lmumps_common -lesmumps -lscotch -lscotcherr -lpord -lparmetis -lmetis -lelpa -lscalapack -lopenblas  -L/zdata/groups/common/nicpa/2018-feb/XeonE5-2665/flook/0.7.0/gnu-7.3.0/lib -Wl,-rpath=/zdata/groups/common/nicpa/2018-feb/XeonE5-2665/flook/0.7.0/gnu-7.3.0/lib -lflookall -ldl  -flto -fuse-linker-plugin  -lmetis
PARALLEL version
NetCDF support
NetCDF-4 support
NetCDF-4 MPI-IO support
METIS ordering support

* Running on 2 nodes in parallel
>> Start of run:   5-NOV-2018   9:19:31

                           ***********************       
                           *  WELCOME TO SIESTA  *       
                           ***********************       

reinit: Reading from ../md_anneal.fdf

reinit: -----------------------------------------------------------------------
reinit: System Name: Primitive silicon, Annealing, Struct File
reinit: -----------------------------------------------------------------------
reinit: System Label: md_anneal
reinit: -----------------------------------------------------------------------

initatom: Reading input for the pseudopotentials and atomic orbitals ----------
Species number:   1 Atomic number:   14 Label: Si

Ground state valence configuration:   3s02  3p02
Reading pseudopotential information in formatted form from Si.psf

Valence configuration for pseudopotential generation:
3s( 2.00) rc: 1.89
3p( 2.00) rc: 1.89
3d( 0.00) rc: 1.89
4f( 0.00) rc: 1.89
For Si, standard SIESTA heuristics set lmxkb to 2
 (one more than the basis l, including polarization orbitals).
Use PS.lmax or PS.KBprojectors blocks to override.

<basis_specs>
===============================================================================
Si                   Z=  14    Mass=  28.090        Charge= 0.17977+309
Lmxo=1 Lmxkb= 2    BasisType=split      Semic=F
L=0  Nsemic=0  Cnfigmx=3
          n=1  nzeta=1  polorb=0
            splnorm:   0.15000    
               vcte:    0.0000    
               rinn:    0.0000    
               qcoe:    0.0000    
               qyuk:    0.0000    
               qwid:   0.10000E-01
                rcs:    0.0000    
            lambdas:    1.0000    
L=1  Nsemic=0  Cnfigmx=3
          n=1  nzeta=1  polorb=0
            splnorm:   0.15000    
               vcte:    0.0000    
               rinn:    0.0000    
               qcoe:    0.0000    
               qyuk:    0.0000    
               qwid:   0.10000E-01
                rcs:    0.0000    
            lambdas:    1.0000    
-------------------------------------------------------------------------------
L=0  Nkbl=1  erefs: 0.17977+309
L=1  Nkbl=1  erefs: 0.17977+309
L=2  Nkbl=1  erefs: 0.17977+309
===============================================================================
</basis_specs>

atom: Called for Si                    (Z =  14)

read_vps: Pseudopotential generation method:
read_vps: ATM3      Troullier-Martins                       
Total valence charge:    4.00000

xc_check: Exchange-correlation functional:
xc_check: Ceperley-Alder
V l=0 = -2*Zval/r beyond r=  2.5494
V l=1 = -2*Zval/r beyond r=  2.5494
V l=2 = -2*Zval/r beyond r=  2.5494
All V_l potentials equal beyond r=  1.8652
This should be close to max(r_c) in ps generation
All pots = -2*Zval/r beyond r=  2.5494
Using large-core scheme for Vlocal

atom: Estimated core radius    2.54944

atom: Including non-local core corrections could be a good idea
atom: Maximum radius for 4*pi*r*r*local-pseudopot. charge    2.85303
atom: Maximum radius for r*vlocal+2*Zval:    2.58151
GHOST: No ghost state for L =  0
GHOST: No ghost state for L =  1
GHOST: No ghost state for L =  2

KBgen: Kleinman-Bylander projectors: 
   l= 0   rc=  1.936440   el= -0.796617   Ekb=  4.661340   kbcos=  0.299756
   l= 1   rc=  1.936440   el= -0.307040   Ekb=  1.494238   kbcos=  0.301471
   l= 2   rc=  1.936440   el=  0.002313   Ekb= -2.808672   kbcos= -0.054903

KBgen: Total number of  Kleinman-Bylander projectors:    9
atom: -------------------------------------------------------------------------

atom: SANKEY-TYPE ORBITALS:

SPLIT: Orbitals with angular momentum L= 0

SPLIT: Basis orbitals for state 3s

SPLIT: PAO cut-off radius determined from an
SPLIT: energy shift=  0.020000 Ry

   izeta = 1
                 lambda =    1.000000
                     rc =    5.007352
                 energy =   -0.777669
                kinetic =    0.573829
    potential(screened) =   -1.351499
       potential(ionic) =   -3.827441

SPLIT: Orbitals with angular momentum L= 1

SPLIT: Basis orbitals for state 3p

SPLIT: PAO cut-off radius determined from an
SPLIT: energy shift=  0.020000 Ry

   izeta = 1
                 lambda =    1.000000
                     rc =    6.270866
                 energy =   -0.288955
                kinetic =    0.877930
    potential(screened) =   -1.166885
       potential(ionic) =   -3.426998
atom: Total number of Sankey-type orbitals:  4

atm_pop: Valence configuration (for local Pseudopot. screening):
 3s( 2.00)                                                            
 3p( 2.00)                                                            
Vna: chval, zval:    4.00000   4.00000

Vna:  Cut-off radius for the neutral-atom potential:   6.270866

atom: _________________________________________________________________________

prinput: Basis input ----------------------------------------------------------

PAO.BasisType split     

%block ChemicalSpeciesLabel
    1   14 Si                      # Species index, atomic number, species label
%endblock ChemicalSpeciesLabel

%block PAO.Basis                 # Define Basis set
Si                    2                    # Species label, number of l-shells
 n=3   0   1                         # n, l, Nzeta 
   5.007   
   1.000   
 n=3   1   1                         # n, l, Nzeta 
   6.271   
   1.000   
%endblock PAO.Basis

prinput: ----------------------------------------------------------------------

Dumping basis to NetCDF file Si.ion.nc
  -- Read structural information from md_anneal.STRUCT_IN

siesta: Atomic coordinates (Bohr) and species
siesta:      0.00000   0.00000   0.00000  1        1
siesta:      2.56530   2.56530   2.56530  1        2

siesta: System type = bulk      

initatomlists: Number of atoms, orbitals, and projectors:      2     8    18

siesta: ******************** Simulation parameters ****************************
siesta:
siesta: The following are some of the parameters of the simulation.
siesta: A complete list of the parameters used, including default values,
siesta: can be found in file out.fdf
siesta:
redata: Spin configuration                          = none
redata: Number of spin components                   = 1
redata: Time-Reversal Symmetry                      = T
redata: Spin-spiral                                 = F
redata: Long output                                 =   F
redata: Number of Atomic Species                    =        1
redata: Charge density info will appear in .RHO file
redata: Write Mulliken Pop.                         = NO
redata: Matel table size (NRTAB)                    =     1024
redata: Mesh Cutoff                                 =   100.0000 Ry
redata: Net charge of the system                    =     0.0000 |e|
redata: Min. number of SCF Iter                     =        0
redata: Max. number of SCF Iter                     =     1000
redata: SCF convergence failure will abort job
redata: SCF mix quantity                            = Hamiltonian
redata: Mix DM or H after convergence               =   F
redata: Recompute H after scf cycle                 =   F
redata: Mix DM in first SCF step                    =   T
redata: Write Pulay info on disk                    =   F
redata: New DM Mixing Weight                        =     0.2500
redata: New DM Occupancy tolerance                  = 0.000000000001
redata: No kicks to SCF
redata: DM Mixing Weight for Kicks                  =     0.5000
redata: Require Harris convergence for SCF          =   F
redata: Harris energy tolerance for SCF             =     0.000100 eV
redata: Require DM convergence for SCF              =   T
redata: DM tolerance for SCF                        =     0.000100
redata: Require EDM convergence for SCF             =   F
redata: EDM tolerance for SCF                       =     0.001000 eV
redata: Require H convergence for SCF               =   T
redata: Hamiltonian tolerance for SCF               =     0.001000 eV
redata: Require (free) Energy convergence for SCF   =   F
redata: (free) Energy tolerance for SCF             =     0.000100 eV
redata: Using Saved Data (generic)                  =   F
redata: Use continuation files for DM               =   F
redata: Neglect nonoverlap interactions             =   F
redata: Method of Calculation                       = Diagonalization
redata: Electronic Temperature                      =    99.9993 K
redata: Fix the spin of the system                  =   F
redata: Dynamics option                             = Annealing MD run
redata: Initial MD time step                        =        1
redata:   Final MD time step                        =      100
redata: Length of MD time step                      =     1.0000 fs
redata: Initial Temperature of MD run               =   100.0000 K
redata: Annealing Option                            = Temperature and Pressure
redata: Target Temperature                          =   600.0000 Kelvin
redata: Target Pressure                             =     0.2497 eV/Ang**3
redata: Annealing Relaxation Time                   =    25.0000 fs
redata: Approx. Bulk Modulus                        =     0.6241 eV/Ang**3
mix.SCF: Pulay mixing                            = Pulay
mix.SCF:    Variant                              = stable
mix.SCF:    History steps                        = 2
mix.SCF:    Linear mixing weight                 =     0.250000
mix.SCF:    Mixing weight                        =     0.250000
mix.SCF:    SVD condition                        = 0.1000E-07
redata: Save all siesta data in one NC              =   F
redata: ***********************************************************************

%block SCF.Mixers
  Pulay
%endblock SCF.Mixers

%block SCF.Mixer.Pulay
  # Mixing method
  method pulay
  variant stable

  # Mixing options
  weight 0.2500
  weight.linear 0.2500
  history 2
%endblock SCF.Mixer.Pulay

Size of DM history Fstack: 1
Total number of electrons:     8.000000
Total ionic charge:     8.000000

* ProcessorY, Blocksize:    1   5


* Orbital distribution balance (max,min):     5     3

 Kpoints in:            4 . Kpoints trimmed:            4

siesta: k-grid: Number of k-points =     4
siesta: k-grid: Cutoff (effective) =     3.840 Ang
siesta: k-grid: Supercell and displacements
siesta: k-grid:    2   0   0      0.500
siesta: k-grid:    0   2   0      0.500
siesta: k-grid:    0   0   2      0.500

diag: Algorithm                                     = D&C
diag: Parallel over k                               =   F
diag: Use parallel 2D distribution                  =   F
diag: Parallel block-size                           = 5
diag: Parallel distribution                         =     1 x     2
diag: Used triangular part                          = Lower
diag: Absolute tolerance                            =  0.100E-15
diag: Orthogonalization factor                      =  0.100E-05
diag: Memory factor                                 =  1.0000

superc: Internal auxiliary supercell:     5 x     5 x     5  =     125
superc: Number of atoms, orbitals, and projectors:    250   1000   2250


ts: **************************************************************
ts: Save H and S matrices                           =    F
ts: Save DM and EDM matrices                        =    F
ts: Fix Hartree potential                           =    F
ts: Only save the overlap matrix S                  =    F
ts: **************************************************************

************************ Begin: TS CHECKS AND WARNINGS ************************
************************ End: TS CHECKS AND WARNINGS **************************


                     ====================================
                        Begin MD step =      1
                     ====================================

superc: Internal auxiliary supercell:     5 x     5 x     5  =     125
superc: Number of atoms, orbitals, and projectors:    250   1000   2250

outcell: Unit cell vectors (Ang):
        2.715000    2.715000    0.000000
        0.000000    2.715000    2.715000
        2.715000    0.000000    2.715000

outcell: Cell vector modules (Ang)   :    3.839590    3.839590    3.839590
outcell: Cell angles (23,13,12) (deg):     60.0000     60.0000     60.0000
outcell: Cell volume (Ang**3)        :     40.0258
<dSpData1D:S at geom step 1
  <sparsity:sparsity for geom step 1
    nrows_g=8 nrows=5 sparsity=19.1875 nnzs=1228, refcount: 7>
  <dData1D:(new from dSpData1D) n=1228, refcount: 1>
refcount: 1>
new_DM -- step:     1
Initializing Density Matrix...
DM filled with atomic data:
<dSpData2D:DM initialized from atoms
  <sparsity:sparsity for geom step 1
    nrows_g=8 nrows=5 sparsity=19.1875 nnzs=1228, refcount: 8>
  <dData2D:DM n=1228 m=1, refcount: 1>
refcount: 1>
No. of atoms with KB's overlaping orbs in proc 0. Max # of overlaps:      17      56
New grid distribution:   1
           1       1:   10    1:   10    1:    5
           2       1:   10    1:   10    6:   10

InitMesh: MESH =    20 x    20 x    20 =        8000
InitMesh: (bp) =    10 x    10 x    10 =        1000
InitMesh: Mesh cutoff (required, used) =   100.000   112.482 Ry
ExtMesh (bp) on 0 =    54 x    54 x    49 =      142884
New grid distribution:   2
           1       1:   10    1:   10    1:    5
           2       1:   10    1:   10    6:   10
New grid distribution:   3
           1       1:   10    1:   10    1:    5
           2       1:   10    1:   10    6:   10
Setting up quadratic distribution...
ExtMesh (bp) on 0 =    54 x    54 x    49 =      142884
PhiOnMesh: Number of (b)points on node 0 =                  500
PhiOnMesh: nlist on node 0 =                14659

stepf: Fermi-Dirac step function

siesta: Program's energy decomposition (eV):
siesta: Ebs     =       -75.991505
siesta: Eions   =       380.802124
siesta: Ena     =       115.502488
siesta: Ekin    =        79.017231
siesta: Enl     =        29.606628
siesta: Eso     =         0.000000
siesta: Eldau   =         0.000000
siesta: DEna    =         6.750187
siesta: DUscf   =         0.241480
siesta: DUext   =         0.000000
siesta: Enegf   =         0.000000
siesta: Exc     =       -64.084216
siesta: eta*DQ  =         0.000000
siesta: Emadel  =         0.000000
siesta: Emeta   =         0.000000
siesta: Emolmec =         0.000000
siesta: Ekinion =         0.000000
siesta: Eharris =      -212.444796
siesta: Etot    =      -213.768326
siesta: FreeEng =      -213.768326

        iscf     Eharris(eV)        E_KS(eV)     FreeEng(eV)     dDmax    Ef(eV) dHmax(eV)
   scf:    1     -212.444796     -213.768326     -213.768326  1.010731 -2.302489  0.210789
timer: Routine,Calls,Time,% = IterSCF        1       0.045  16.73
   scf:    2     -213.774209     -213.771298     -213.771298  0.003308 -2.359005  0.154831
   scf:    3     -213.777151     -213.774420     -213.774420  0.008488 -2.507544  0.007859
   scf:    4     -213.774428     -213.774424     -213.774424  0.000232 -2.509527  0.005616
   scf:    5     -213.774432     -213.774428     -213.774428  0.000605 -2.514631  0.000156
   scf:    6     -213.774428     -213.774428     -213.774428  0.000004 -2.514593  0.000114

SCF Convergence by DM+H criterion
max |DM_out - DM_in|         :     0.0000036702
max |H_out - H_in|      (eV) :     0.0001144072
SCF cycle converged after 6 iterations

Using DM_out to compute the final energy and forces
No. of atoms with KB's overlaping orbs in proc 0. Max # of overlaps:      17      56

siesta: E_KS(eV) =             -213.7744

siesta: E_KS - E_eggbox =      -213.7744

siesta: Atomic forces (eV/Ang):
----------------------------------------
   Tot   -0.000000   -0.000000    0.000000
----------------------------------------
   Max    0.257365
   Res    0.257365    sqrt( Sum f_i^2 / 3N )
----------------------------------------
   Max    0.257365    constrained

Stress-tensor-Voigt (kbar):      -60.10      -60.58      -59.87       80.22       79.93       79.70
(Free)E + p*V (eV/cell)     -212.2709
Target enthalpy (eV/cell)     -203.7817

siesta: Stress tensor (static) (eV/Ang**3):
        -0.037349    0.049797    0.049797
         0.049797   -0.037349    0.049797
         0.049797    0.049797   -0.037349

siesta: Pressure (static):         59.84073147  kBar

siesta: Stress tensor (total) (eV/Ang**3):
        -0.037512    0.050071    0.049743
         0.050071   -0.037809    0.049889
         0.049743    0.049889   -0.037368

siesta: Pressure (total):         60.18317454  kBar
 Anneal: Kinetic Energy=    9.4999924047691202E-004
 Anneal: Velocity scale factor =    1.0954451178403211     
 Anneal: Cell scale factor =   0.98630122303963075     

siesta: Temp_ion =     120.000 K

                     ====================================
                        Begin MD step =      2
                     ====================================

superc: Internal auxiliary supercell:     5 x     5 x     5  =     125
superc: Number of atoms, orbitals, and projectors:    250   1000   2250

outcell: Unit cell vectors (Ang):
        2.677839    2.706264    0.000000
        0.000000    2.677902    2.706302
        2.706333    0.000000    2.677808

outcell: Cell vector modules (Ang)   :    3.807188    3.807260    3.807216
outcell: Cell angles (23,13,12) (deg):     60.0026     60.0012     60.0017
outcell: Cell volume (Ang**3)        :     39.0236
<dSpData1D:S at geom step 2
  <sparsity:sparsity for geom step 2
    nrows_g=8 nrows=5 sparsity=19.1875 nnzs=1228, refcount: 7>
  <dData1D:(new from dSpData1D) n=1228, refcount: 1>
refcount: 1>
new_DM -- step:     2
Re-using DM from previous geometries...
Number of DMs in history: 1
 DM extrapolation coefficients: 
1   1.00000
New DM after history re-use:
<dSpData2D:SpM extrapolated using coords
  <sparsity:sparsity for geom step 2
    nrows_g=8 nrows=5 sparsity=19.1875 nnzs=1228, refcount: 9>
  <dData2D:(temp array for extrapolation) n=1228 m=1, refcount: 1>
refcount: 1>
No. of atoms with KB's overlaping orbs in proc 0. Max # of overlaps:      17      56
New grid distribution:   1
           1       1:   10    1:   10    1:    5
           2       1:   10    1:   10    6:   10

InitMesh: MESH =    20 x    20 x    20 =        8000
InitMesh: (bp) =    10 x    10 x    10 =        1000
InitMesh: Mesh cutoff (required, used) =   100.000   114.394 Ry
ExtMesh (bp) on 0 =    54 x    54 x    49 =      142884
New grid distribution:   2
           1       1:   10    1:   10    1:    5
           2       1:   10    1:   10    6:   10
New grid distribution:   3
           1       1:   10    1:   10    1:    5
           2       1:   10    1:   10    6:   10
Setting up quadratic distribution...
ExtMesh (bp) on 0 =    54 x    54 x    49 =      142884
PhiOnMesh: Number of (b)points on node 0 =                  500
PhiOnMesh: nlist on node 0 =                15030

        iscf     Eharris(eV)        E_KS(eV)     FreeEng(eV)     dDmax    Ef(eV) dHmax(eV)
   scf:    1     -213.302121     -213.643624     -213.643624  0.015933 -2.417396  0.006036
   scf:    2     -213.643630     -213.643628     -213.643628  0.000418 -2.412420  0.000550
   scf:    3     -213.643628     -213.643628     -213.643628  0.000031 -2.412745  0.000133

SCF Convergence by DM+H criterion
max |DM_out - DM_in|         :     0.0000314387
max |H_out - H_in|      (eV) :     0.0001325680
SCF cycle converged after 3 iterations

Using DM_out to compute the final energy and forces
No. of atoms with KB's overlaping orbs in proc 0. Max # of overlaps:      17      56

siesta: E_KS(eV) =             -213.6436

siesta: Atomic forces (eV/Ang):
----------------------------------------
   Tot    0.000000   -0.000000    0.000000
----------------------------------------
   Max    0.321725
   Res    0.254258    sqrt( Sum f_i^2 / 3N )
----------------------------------------
   Max    0.321725    constrained

Stress-tensor-Voigt (kbar):      -84.01      -84.32      -83.76       83.48       81.59       86.50
(Free)E + p*V (eV/cell)     -211.5969
Target enthalpy (eV/cell)     -203.9011

siesta: Stress tensor (static) (eV/Ang**3):
        -0.052231    0.051772    0.054054
         0.051772   -0.052076    0.050819
         0.054054    0.050819   -0.052260

siesta: Pressure (static):         83.61733763  kBar

siesta: Stress tensor (total) (eV/Ang**3):
        -0.052433    0.052106    0.053990
         0.052106   -0.052630    0.050925
         0.053990    0.050925   -0.052281

siesta: Pressure (total):         84.03177686  kBar
 Anneal: Kinetic Energy=    1.2968152021826539E-003
 Anneal: Velocity scale factor =    1.0657463110849574     
 Anneal: Cell scale factor =   0.98727080186518523     

siesta: Temp_ion =     155.047 K

                     ====================================
                        Begin MD step =      3
                     ====================================

superc: Internal auxiliary supercell:     5 x     5 x     5  =     125
superc: Number of atoms, orbitals, and projectors:    250   1000   2250

outcell: Unit cell vectors (Ang):
        2.643793    2.697190    0.000000
        0.000000    2.643894    2.697445
        2.696961    0.000000    2.643721

outcell: Cell vector modules (Ang)   :    3.776834    3.777087    3.776620
outcell: Cell angles (23,13,12) (deg):     60.0047     60.0076     60.0076
outcell: Cell volume (Ang**3)        :     38.1012
<dSpData1D:S at geom step 3
  <sparsity:sparsity for geom step 3
    nrows_g=8 nrows=5 sparsity=19.1875 nnzs=1228, refcount: 7>
  <dData1D:(new from dSpData1D) n=1228, refcount: 1>
refcount: 1>
new_DM -- step:     3
Re-using DM from previous geometries...
Number of DMs in history: 1
 DM extrapolation coefficients: 
1   1.00000
New DM after history re-use:
<dSpData2D:SpM extrapolated using coords
  <sparsity:sparsity for geom step 3
    nrows_g=8 nrows=5 sparsity=19.1875 nnzs=1228, refcount: 9>
  <dData2D:(temp array for extrapolation) n=1228 m=1, refcount: 1>
refcount: 1>
No. of atoms with KB's overlaping orbs in proc 0. Max # of overlaps:      17      56
New grid distribution:   1
           1       1:   10    1:   10    1:    5
           2       1:   10    1:   10    6:   10

InitMesh: MESH =    20 x    20 x    20 =        8000
InitMesh: (bp) =    10 x    10 x    10 =        1000
InitMesh: Mesh cutoff (required, used) =   100.000   116.218 Ry
ExtMesh (bp) on 0 =    54 x    54 x    49 =      142884
New grid distribution:   2
           1       1:   10    1:   10    1:    5
           2       1:   10    1:   10    6:   10
New grid distribution:   3
           1       1:   10    1:   10    1:    5
           2       1:   10    1:   10    6:   10
Setting up quadratic distribution...
ExtMesh (bp) on 0 =    54 x    54 x    49 =      142884
PhiOnMesh: Number of (b)points on node 0 =                  500
PhiOnMesh: nlist on node 0 =                15548

        iscf     Eharris(eV)        E_KS(eV)     FreeEng(eV)     dDmax    Ef(eV) dHmax(eV)
   scf:    1     -213.170219     -213.505457     -213.505457  0.014591 -2.314485  0.006093
   scf:    2     -213.505464     -213.505461     -213.505461  0.000460 -2.309432  0.000608
   scf:    3     -213.505461     -213.505461     -213.505461  0.000036 -2.309778  0.000137

SCF Convergence by DM+H criterion
max |DM_out - DM_in|         :     0.0000359877
max |H_out - H_in|      (eV) :     0.0001367384
SCF cycle converged after 3 iterations

Using DM_out to compute the final energy and forces
No. of atoms with KB's overlaping orbs in proc 0. Max # of overlaps:      17      56

siesta: E_KS(eV) =             -213.5055

siesta: Atomic forces (eV/Ang):
----------------------------------------
   Tot    0.000000   -0.000000   -0.000000
----------------------------------------
   Max    0.414026
   Res    0.268254    sqrt( Sum f_i^2 / 3N )
----------------------------------------
   Max    0.414026    constrained

Stress-tensor-Voigt (kbar):     -121.54     -122.36     -121.93       87.66       84.10       95.16
(Free)E + p*V (eV/cell)     -210.6056
Target enthalpy (eV/cell)     -203.9932

siesta: Stress tensor (static) (eV/Ang**3):
        -0.075547    0.054251    0.059500
         0.054251   -0.075694    0.052329
         0.059500    0.052329   -0.076063

siesta: Pressure (static):        121.39475847  kBar

siesta: Stress tensor (total) (eV/Ang**3):
        -0.075858    0.054711    0.059392
         0.054711   -0.076372    0.052488
         0.059392    0.052488   -0.076100

siesta: Pressure (total):        121.94368744  kBar
 Anneal: Kinetic Energy=    1.5672467380067872E-003
 Anneal: Velocity scale factor =    1.0514171093750297     
 Anneal: Cell scale factor =   0.98881604013927049     

siesta: Temp_ion =     182.375 K

                     ====================================
                        Begin MD step =      4
                     ====================================

superc: Internal auxiliary supercell:     5 x     5 x     5  =     125
superc: Number of atoms, orbitals, and projectors:    250   1000   2250

outcell: Unit cell vectors (Ang):
        2.614198    2.687698    0.000000
        0.000000    2.614381    2.688346
        2.686684    0.000000    2.614154

outcell: Cell vector modules (Ang)   :    3.749367    3.749959    3.748610
outcell: Cell angles (23,13,12) (deg):     60.0038     60.0185     60.0156
outcell: Cell volume (Ang**3)        :     37.2790
<dSpData1D:S at geom step 4
  <sparsity:sparsity for geom step 4
    nrows_g=8 nrows=5 sparsity=19.1875 nnzs=1228, refcount: 7>
  <dData1D:(new from dSpData1D) n=1228, refcount: 1>
refcount: 1>
new_DM -- step:     4
Re-using DM from previous geometries...
Number of DMs in history: 1
 DM extrapolation coefficients: 
1   1.00000
New DM after history re-use:
<dSpData2D:SpM extrapolated using coords
  <sparsity:sparsity for geom step 4
    nrows_g=8 nrows=5 sparsity=19.1875 nnzs=1228, refcount: 9>
  <dData2D:(temp array for extrapolation) n=1228 m=1, refcount: 1>
refcount: 1>
No. of atoms with KB's overlaping orbs in proc 0. Max # of overlaps:      17      56
New grid distribution:   1
           1       1:   10    1:   10    1:    5
           2       1:   10    1:   10    6:   10

InitMesh: MESH =    20 x    20 x    20 =        8000
InitMesh: (bp) =    10 x    10 x    10 =        1000
InitMesh: Mesh cutoff (required, used) =   100.000   117.900 Ry
ExtMesh (bp) on 0 =    54 x    54 x    49 =      142884
New grid distribution:   2
           1       1:   10    1:   10    1:    5
           2       1:   10    1:   10    6:   10
New grid distribution:   3
           1       1:   10    1:   10    1:    5
           2       1:   10    1:   10    6:   10
Setting up quadratic distribution...
ExtMesh (bp) on 0 =    54 x    54 x    49 =      142884
PhiOnMesh: Number of (b)points on node 0 =                  500
PhiOnMesh: nlist on node 0 =                15825

        iscf     Eharris(eV)        E_KS(eV)     FreeEng(eV)     dDmax    Ef(eV) dHmax(eV)
   scf:    1     -213.040957     -213.358955     -213.358955  0.013427 -2.219956  0.005671
   scf:    2     -213.358962     -213.358959     -213.358959  0.000464 -2.215283  0.000613
   scf:    3     -213.358959     -213.358959     -213.358959  0.000037 -2.215612  0.000129

SCF Convergence by DM+H criterion
max |DM_out - DM_in|         :     0.0000371771
max |H_out - H_in|      (eV) :     0.0001286066
SCF cycle converged after 3 iterations

Using DM_out to compute the final energy and forces
No. of atoms with KB's overlaping orbs in proc 0. Max # of overlaps:      17      56

siesta: E_KS(eV) =             -213.3590

siesta: Atomic forces (eV/Ang):
----------------------------------------
   Tot    0.000000    0.000000    0.000000
----------------------------------------
   Max    0.496618
   Res    0.298006    sqrt( Sum f_i^2 / 3N )
----------------------------------------
   Max    0.496618    constrained

Stress-tensor-Voigt (kbar):     -155.84     -155.30     -155.60       87.89       83.94      104.64
(Free)E + p*V (eV/cell)     -209.7390
Target enthalpy (eV/cell)     -204.0520

siesta: Stress tensor (static) (eV/Ang**3):
        -0.096844    0.054291    0.065464
         0.054291   -0.096173    0.052184
         0.065464    0.052184   -0.097058

siesta: Pressure (static):        154.91893365  kBar

siesta: Stress tensor (total) (eV/Ang**3):
        -0.097267    0.054857    0.065308
         0.054857   -0.096930    0.052392
         0.065309    0.052392   -0.097116

siesta: Pressure (total):        155.57969695  kBar
 Anneal: Kinetic Energy=    1.7569807638667322E-003
 Anneal: Velocity scale factor =    1.0439195218193831     
 Anneal: Cell scale factor =   0.99017724749099156     

siesta: Temp_ion =     201.548 K

                     ====================================
                        Begin MD step =      5
                     ====================================

superc: Internal auxiliary supercell:     5 x     5 x     5  =     125
superc: Number of atoms, orbitals, and projectors:    250   1000   2250

outcell: Unit cell vectors (Ang):
        2.588557    2.678219    0.000000
        0.000000    2.588672    2.679296
        2.675425    0.000000    2.588476

outcell: Cell vector modules (Ang)   :    3.724713    3.725567    3.722648
outcell: Cell angles (23,13,12) (deg):     59.9961     60.0353     60.0253
outcell: Cell volume (Ang**3)        :     36.5433
<dSpData1D:S at geom step 5
  <sparsity:sparsity for geom step 5
    nrows_g=8 nrows=5 sparsity=19.3750 nnzs=1240, refcount: 7>
  <dData1D:(new from dSpData1D) n=1240, refcount: 1>
refcount: 1>
new_DM -- step:     5
Re-using DM from previous geometries...
Number of DMs in history: 1
 DM extrapolation coefficients: 
1   1.00000
New DM after history re-use:
<dSpData2D:SpM extrapolated using coords
  <sparsity:sparsity for geom step 5
    nrows_g=8 nrows=5 sparsity=19.3750 nnzs=1240, refcount: 9>
  <dData2D:(temp array for extrapolation) n=1240 m=1, refcount: 1>
refcount: 1>
No. of atoms with KB's overlaping orbs in proc 0. Max # of overlaps:      17      56
New grid distribution:   1
           1       1:   10    1:   10    1:    5
           2       1:   10    1:   10    6:   10

InitMesh: MESH =    20 x    20 x    20 =        8000
InitMesh: (bp) =    10 x    10 x    10 =        1000
InitMesh: Mesh cutoff (required, used) =   100.000   119.416 Ry
ExtMesh (bp) on 0 =    54 x    54 x    49 =      142884
New grid distribution:   2
           1       1:   10    1:   10    1:    5
           2       1:   10    1:   10    6:   10
New grid distribution:   3
           1       1:   10    1:   10    1:    5
           2       1:   10    1:   10    6:   10
Setting up quadratic distribution...
ExtMesh (bp) on 0 =    54 x    54 x    49 =      142884
PhiOnMesh: Number of (b)points on node 0 =                  500
PhiOnMesh: nlist on node 0 =                16203

        iscf     Eharris(eV)        E_KS(eV)     FreeEng(eV)     dDmax    Ef(eV) dHmax(eV)
   scf:    1     -212.908142     -213.209943     -213.209943  0.012180 -2.130541  0.005493
   scf:    2     -213.209949     -213.209946     -213.209946  0.000462 -2.126009  0.000605
   scf:    3     -213.209946     -213.209946     -213.209946  0.000037 -2.126331  0.000126

SCF Convergence by DM+H criterion
max |DM_out - DM_in|         :     0.0000371479
max |H_out - H_in|      (eV) :     0.0001264262
SCF cycle converged after 3 iterations

Using DM_out to compute the final energy and forces
No. of atoms with KB's overlaping orbs in proc 0. Max # of overlaps:      17      56

siesta: E_KS(eV) =             -213.2099

siesta: Atomic forces (eV/Ang):
----------------------------------------
   Tot    0.000000   -0.000000   -0.000000
----------------------------------------
   Max    0.552622
   Res    0.329700    sqrt( Sum f_i^2 / 3N )
----------------------------------------
   Max    0.552622    constrained

Stress-tensor-Voigt (kbar):     -180.05     -179.99     -179.70       91.78       83.92      111.01
(Free)E + p*V (eV/cell)     -209.1064
Target enthalpy (eV/cell)     -204.0866

siesta: Stress tensor (static) (eV/Ang**3):
        -0.111850    0.056640    0.069487
         0.056640   -0.111546    0.052129
         0.069488    0.052129   -0.112081

siesta: Pressure (static):        179.16685469  kBar

siesta: Stress tensor (total) (eV/Ang**3):
        -0.112375    0.057285    0.069284
         0.057285   -0.112339    0.052379
         0.069284    0.052379   -0.112160

siesta: Pressure (total):        179.91249391  kBar
 Anneal: Kinetic Energy=    1.8798755801129965E-003
 Anneal: Velocity scale factor =    1.0398483200079696     
 Anneal: Cell scale factor =   0.99115059548608975     

siesta: Temp_ion =     213.967 K

                     ====================================
                        Begin MD step =      6
                     ====================================

superc: Internal auxiliary supercell:     5 x     5 x     5  =     125
superc: Number of atoms, orbitals, and projectors:    250   1000   2250

outcell: Unit cell vectors (Ang):
        2.565696    2.668360    0.000000
        0.000000    2.565790    2.670280
        2.663527    0.000000    2.565570

outcell: Cell vector modules (Ang)   :    3.701748    3.703198    3.698178
outcell: Cell angles (23,13,12) (deg):     59.9843     60.0534     60.0372
outcell: Cell volume (Ang**3)        :     35.8676
<dSpData1D:S at geom step 6
  <sparsity:sparsity for geom step 6
    nrows_g=8 nrows=5 sparsity=22.7500 nnzs=1456, refcount: 7>
  <dData1D:(new from dSpData1D) n=1456, refcount: 1>
refcount: 1>
new_DM -- step:     6
Re-using DM from previous geometries...
Number of DMs in history: 1
 DM extrapolation coefficients: 
1   1.00000
New DM after history re-use:
<dSpData2D:SpM extrapolated using coords
  <sparsity:sparsity for geom step 6
    nrows_g=8 nrows=5 sparsity=22.7500 nnzs=1456, refcount: 9>
  <dData2D:(temp array for extrapolation) n=1456 m=1, refcount: 1>
refcount: 1>
No. of atoms with KB's overlaping orbs in proc 0. Max # of overlaps:      22      71
New grid distribution:   1
           1       1:   10    1:   10    1:    5
           2       1:   10    1:   10    6:   10

InitMesh: MESH =    20 x    20 x    20 =        8000
InitMesh: (bp) =    10 x    10 x    10 =        1000
InitMesh: Mesh cutoff (required, used) =   100.000   120.840 Ry
ExtMesh (bp) on 0 =    54 x    54 x    49 =      142884
New grid distribution:   2
           1       1:   10    1:   10    1:    5
           2       1:   10    1:   10    6:   10
New grid distribution:   3
           1       1:   10    1:   10    1:    5
           2       1:   10    1:   10    6:   10
Setting up quadratic distribution...
ExtMesh (bp) on 0 =    54 x    54 x    49 =      142884
PhiOnMesh: Number of (b)points on node 0 =                  500
PhiOnMesh: nlist on node 0 =                16460

        iscf     Eharris(eV)        E_KS(eV)     FreeEng(eV)     dDmax    Ef(eV) dHmax(eV)
   scf:    1     -212.767714     -213.060690     -213.060690  0.251098 -2.042455  0.005578
   scf:    2     -213.060696     -213.060693     -213.060693  0.000473 -2.037758  0.000591
   scf:    3     -213.060693     -213.060693     -213.060693  0.000038 -2.038092  0.000126

SCF Convergence by DM+H criterion
max |DM_out - DM_in|         :     0.0000380670
max |H_out - H_in|      (eV) :     0.0001260601
SCF cycle converged after 3 iterations

Using DM_out to compute the final energy and forces
No. of atoms with KB's overlaping orbs in proc 0. Max # of overlaps:      22      71

siesta: E_KS(eV) =             -213.0607

siesta: Atomic forces (eV/Ang):
----------------------------------------
   Tot    0.000000   -0.000000   -0.000000
----------------------------------------
   Max    0.632205
   Res    0.383892    sqrt( Sum f_i^2 / 3N )
----------------------------------------
   Max    0.632205    constrained

Stress-tensor-Voigt (kbar):     -201.54     -201.56     -201.99       92.89       81.97      118.63
(Free)E + p*V (eV/cell)     -208.5454
Target enthalpy (eV/cell)     -204.1061

siesta: Stress tensor (static) (eV/Ang**3):
        -0.125175    0.057278    0.074292
         0.057278   -0.125003    0.050875
         0.074293    0.050875   -0.125972

siesta: Pressure (static):        200.88872623  kBar

siesta: Stress tensor (total) (eV/Ang**3):
        -0.125788    0.057977    0.074043
         0.057977   -0.125800    0.051160
         0.074043    0.051160   -0.126074

siesta: Pressure (total):        201.69573686  kBar
 Anneal: Kinetic Energy=    1.9438399917563332E-003
 Anneal: Velocity scale factor =    1.0379275091081723     
 Anneal: Cell scale factor =   0.99204994840720029     

siesta: Temp_ion =     220.430 K

                     ====================================
                        Begin MD step =      7
                     ====================================

superc: Internal auxiliary supercell:     5 x     5 x     5  =     125
superc: Number of atoms, orbitals, and projectors:    250   1000   2250

outcell: Unit cell vectors (Ang):
        2.545258    2.658422    0.000000
        0.000000    2.545339    2.661506
        2.650866    0.000000    2.545173

outcell: Cell vector modules (Ang)   :    3.680427    3.682711    3.674914
outcell: Cell angles (23,13,12) (deg):     59.9650     60.0757     60.0507
outcell: Cell volume (Ang**3)        :     35.2450
<dSpData1D:S at geom step 7
  <sparsity:sparsity for geom step 7
    nrows_g=8 nrows=5 sparsity=29.0781 nnzs=1861, refcount: 7>
  <dData1D:(new from dSpData1D) n=1861, refcount: 1>
refcount: 1>
new_DM -- step:     7
Re-using DM from previous geometries...
Number of DMs in history: 1
 DM extrapolation coefficients: 
1   1.00000
New DM after history re-use:
<dSpData2D:SpM extrapolated using coords
  <sparsity:sparsity for geom step 7
    nrows_g=8 nrows=5 sparsity=29.0781 nnzs=1861, refcount: 9>
  <dData2D:(temp array for extrapolation) n=1861 m=1, refcount: 1>
refcount: 1>
Note: For starting DM, Qtot, Tr[D*S] =          8.00000000          7.99106709
No. of atoms with KB's overlaping orbs in proc 0. Max # of overlaps:      28      89
New grid distribution:   1
           1       1:   10    1:   10    1:    5
           2       1:   10    1:   10    6:   10

InitMesh: MESH =    20 x    20 x    20 =        8000
InitMesh: (bp) =    10 x    10 x    10 =        1000
InitMesh: Mesh cutoff (required, used) =   100.000   122.166 Ry
ExtMesh (bp) on 0 =    58 x    58 x    53 =      178292
New grid distribution:   2
           1       1:   10    1:   10    1:    5
           2       1:   10    1:   10    6:   10
New grid distribution:   3
           1       1:   10    1:   10    1:    5
           2       1:   10    1:   10    6:   10
Setting up quadratic distribution...
ExtMesh (bp) on 0 =    58 x    58 x    53 =      178292
PhiOnMesh: Number of (b)points on node 0 =                  500
PhiOnMesh: nlist on node 0 =                16778

        iscf     Eharris(eV)        E_KS(eV)     FreeEng(eV)     dDmax    Ef(eV) dHmax(eV)
   scf:    1     -212.625137     -212.909586     -212.909586  0.258327 -1.957728  0.005639
   scf:    2     -212.909592     -212.909589     -212.909589  0.000478 -1.952906  0.000558
   scf:    3     -212.909589     -212.909589     -212.909589  0.000038 -1.953242  0.000127

SCF Convergence by DM+H criterion
max |DM_out - DM_in|         :     0.0000378032
max |H_out - H_in|      (eV) :     0.0001266757
SCF cycle converged after 3 iterations

Using DM_out to compute the final energy and forces
No. of atoms with KB's overlaping orbs in proc 0. Max # of overlaps:      28      89

siesta: E_KS(eV) =             -212.9096

siesta: Atomic forces (eV/Ang):
----------------------------------------
   Tot   -0.000000    0.000000   -0.000000
----------------------------------------
   Max    0.761710
   Res    0.478381    sqrt( Sum f_i^2 / 3N )
----------------------------------------
   Max    0.761710    constrained

Stress-tensor-Voigt (kbar):     -231.95     -231.14     -233.06       93.49       80.18      129.38
(Free)E + p*V (eV/cell)     -207.8050
Target enthalpy (eV/cell)     -204.1104

siesta: Stress tensor (static) (eV/Ang**3):
        -0.144084    0.057625    0.081047
         0.057625   -0.143492    0.049733
         0.081048    0.049733   -0.145337

siesta: Pressure (static):        231.20393042  kBar

siesta: Stress tensor (total) (eV/Ang**3):
        -0.144770    0.058353    0.080753
         0.058353   -0.144265    0.050045
         0.080754    0.050045   -0.145463

siesta: Pressure (total):        232.05038166  kBar
 Anneal: Kinetic Energy=    1.9345379607101716E-003
 Anneal: Velocity scale factor =    1.0381991659691991     
 Anneal: Cell scale factor =   0.99330173531390009     

siesta: Temp_ion =     219.490 K

                     ====================================
                        Begin MD step =      8
                     ====================================

superc: Internal auxiliary supercell:     5 x     5 x     5  =     125
superc: Number of atoms, orbitals, and projectors:    250   1000   2250

outcell: Unit cell vectors (Ang):
        2.528099    2.648461    0.000000
        0.000000    2.528080    2.652952
        2.637118    0.000000    2.528125

outcell: Cell vector modules (Ang)   :    3.661370    3.664607    3.653191
outcell: Cell angles (23,13,12) (deg):     59.9345     60.1036     60.0652
outcell: Cell volume (Ang**3)        :     34.6869
<dSpData1D:S at geom step 8
  <sparsity:sparsity for geom step 8
    nrows_g=8 nrows=5 sparsity=40.5625 nnzs=2596, refcount: 7>
  <dData1D:(new from dSpData1D) n=2596, refcount: 1>
refcount: 1>
new_DM -- step:     8
Re-using DM from previous geometries...
Number of DMs in history: 1
 DM extrapolation coefficients: 
1   1.00000
New DM after history re-use:
<dSpData2D:SpM extrapolated using coords
  <sparsity:sparsity for geom step 8
    nrows_g=8 nrows=5 sparsity=40.5625 nnzs=2596, refcount: 9>
  <dData2D:(temp array for extrapolation) n=2596 m=1, refcount: 1>
refcount: 1>
Note: For starting DM, Qtot, Tr[D*S] =          8.00000000          7.99027645
No. of atoms with KB's overlaping orbs in proc 0. Max # of overlaps:      32     104
New grid distribution:   1
           1       1:   10    1:    9    1:    5
           2       1:   10    1:    9    6:    9

InitMesh: MESH =    20 x    18 x    18 =        6480
InitMesh: (bp) =    10 x     9 x     9 =         810
InitMesh: Mesh cutoff (required, used) =   100.000   100.072 Ry
ExtMesh (bp) on 0 =    58 x    49 x    49 =      139258
New grid distribution:   2
           1       6:   10    1:    9    1:    9
           2       1:    5    1:    9    1:    9
New grid distribution:   3
           1       6:   10    1:    9    1:    9
           2       1:    5    1:    9    1:    9
Setting up quadratic distribution...
ExtMesh (bp) on 0 =    53 x    49 x    53 =      137641
PhiOnMesh: Number of (b)points on node 0 =                  405
PhiOnMesh: nlist on node 0 =                14707

        iscf     Eharris(eV)        E_KS(eV)     FreeEng(eV)     dDmax    Ef(eV) dHmax(eV)
   scf:    1     -212.488320     -212.756758     -212.756758  0.900902 -1.880134  0.005469
   scf:    2     -212.756763     -212.756761     -212.756761  0.000460 -1.875435  0.000499
   scf:    3     -212.756761     -212.756761     -212.756761  0.000035 -1.875753  0.000122

SCF Convergence by DM+H criterion
max |DM_out - DM_in|         :     0.0000352603
max |H_out - H_in|      (eV) :     0.0001217449
SCF cycle converged after 3 iterations

Using DM_out to compute the final energy and forces
No. of atoms with KB's overlaping orbs in proc 0. Max # of overlaps:      32     104

siesta: E_KS(eV) =             -212.7568

siesta: Atomic forces (eV/Ang):
----------------------------------------
   Tot    0.000355    0.010703   -0.037578
----------------------------------------
   Max    0.811579
   Res    0.517737    sqrt( Sum f_i^2 / 3N )
----------------------------------------
   Max    0.811579    constrained

Stress-tensor-Voigt (kbar):     -263.88     -263.60     -265.71       94.92       79.90      138.58
(Free)E + p*V (eV/cell)     -207.0327
Target enthalpy (eV/cell)     -204.0969

siesta: Stress tensor (static) (eV/Ang**3):
        -0.163962    0.058516    0.086826
         0.058516   -0.163807    0.049538
         0.086826    0.049538   -0.165691

siesta: Pressure (static):        263.53972458  kBar

siesta: Stress tensor (total) (eV/Ang**3):
        -0.164697    0.059243    0.086493
         0.059243   -0.164526    0.049868
         0.086493    0.049867   -0.165842

siesta: Pressure (total):        264.39660845  kBar
 Anneal: Kinetic Energy=    1.8761918065738122E-003
 Anneal: Velocity scale factor =    1.0399628178216533     
 Anneal: Cell scale factor =   0.99461582172002827     

siesta: Temp_ion =     213.594 K

                     ====================================
                        Begin MD step =      9
                     ====================================

superc: Internal auxiliary supercell:     5 x     5 x     5  =     125
superc: Number of atoms, orbitals, and projectors:    250   1000   2250

outcell: Unit cell vectors (Ang):
        2.514301    2.638391    0.000000
        0.000000    2.514237    2.644458
        2.622466    0.000000    2.514513

outcell: Cell vector modules (Ang)   :    3.644560    3.648910    3.633195
outcell: Cell angles (23,13,12) (deg):     59.8955     60.1350     60.0786
outcell: Cell volume (Ang**3)        :     34.1929
<dSpData1D:S at geom step 9
  <sparsity:sparsity for geom step 9
    nrows_g=8 nrows=5 sparsity=40.5625 nnzs=2596, refcount: 7>
  <dData1D:(new from dSpData1D) n=2596, refcount: 1>
refcount: 1>
new_DM -- step:     9
Re-using DM from previous geometries...
Number of DMs in history: 1
 DM extrapolation coefficients: 
1   1.00000
New DM after history re-use:
<dSpData2D:SpM extrapolated using coords
  <sparsity:sparsity for geom step 9
    nrows_g=8 nrows=5 sparsity=40.5625 nnzs=2596, refcount: 9>
  <dData2D:(temp array for extrapolation) n=2596 m=1, refcount: 1>
refcount: 1>
Note: For starting DM, Qtot, Tr[D*S] =          8.00000000          7.98992110
No. of atoms with KB's overlaping orbs in proc 0. Max # of overlaps:      32     104
New grid distribution:   1
           1       1:    9    1:    9    1:    5
           2       1:    9    1:    9    6:    9

InitMesh: MESH =    18 x    18 x    18 =        5832
InitMesh: (bp) =     9 x     9 x     9 =         729
InitMesh: Mesh cutoff (required, used) =   100.000   100.745 Ry
ExtMesh (bp) on 0 =    53 x    53 x    49 =      137641
New grid distribution:   2
           1       1:    9    1:    9    1:    5
           2       1:    9    1:    9    6:    9
New grid distribution:   3
           1       1:    9    1:    9    1:    5
           2       1:    9    1:    9    6:    9
Setting up quadratic distribution...
ExtMesh (bp) on 0 =    53 x    53 x    49 =      137641
PhiOnMesh: Number of (b)points on node 0 =                  405
PhiOnMesh: nlist on node 0 =                14332

        iscf     Eharris(eV)        E_KS(eV)     FreeEng(eV)     dDmax    Ef(eV) dHmax(eV)
   scf:    1     -212.360370     -212.609975     -212.609975  0.013793 -1.810307  0.005339
   scf:    2     -212.609979     -212.609977     -212.609977  0.000434 -1.805691  0.000460
   scf:    3     -212.609977     -212.609977     -212.609977  0.000032 -1.805994  0.000122

SCF Convergence by DM+H criterion
max |DM_out - DM_in|         :     0.0000323512
max |H_out - H_in|      (eV) :     0.0001224664
SCF cycle converged after 3 iterations

Using DM_out to compute the final energy and forces
No. of atoms with KB's overlaping orbs in proc 0. Max # of overlaps:      32     104

siesta: E_KS(eV) =             -212.6100

siesta: Atomic forces (eV/Ang):
----------------------------------------
   Tot   -0.011139    0.030036    0.017528
----------------------------------------
   Max    0.874172
   Res    0.574302    sqrt( Sum f_i^2 / 3N )
----------------------------------------
   Max    0.874172    constrained

Stress-tensor-Voigt (kbar):     -291.52     -290.99     -293.04       97.66       77.00      148.26
(Free)E + p*V (eV/cell)     -206.3815
Target enthalpy (eV/cell)     -204.0735

siesta: Stress tensor (static) (eV/Ang**3):
        -0.181190    0.060254    0.092902
         0.060254   -0.180974    0.047721
         0.092903    0.047721   -0.182719

siesta: Pressure (static):        291.00267190  kBar

siesta: Stress tensor (total) (eV/Ang**3):
        -0.181953    0.060955    0.092533
         0.060955   -0.181617    0.048060
         0.092534    0.048060   -0.182898

siesta: Pressure (total):        291.84917296  kBar
 Anneal: Kinetic Energy=    1.7974263754296886E-003
 Anneal: Velocity scale factor =    1.0425199924984727     
 Anneal: Cell scale factor =   0.99571451462772076     

siesta: Temp_ion =     205.635 K

                     ====================================
                        Begin MD step =     10
                     ====================================

superc: Internal auxiliary supercell:     5 x     5 x     5  =     125
superc: Number of atoms, orbitals, and projectors:    250   1000   2250

outcell: Unit cell vectors (Ang):
        2.503371    2.628070    0.000000
        0.000000    2.503236    2.636299
        2.606874    0.000000    2.503737

outcell: Cell vector modules (Ang)   :    3.629548    3.635418    3.614484
outcell: Cell angles (23,13,12) (deg):     59.8462     60.1688     60.0941
outcell: Cell volume (Ang**3)        :     33.7512
<dSpData1D:S at geom step 10
  <sparsity:sparsity for geom step 10
    nrows_g=8 nrows=5 sparsity=40.5625 nnzs=2596, refcount: 7>
  <dData1D:(new from dSpData1D) n=2596, refcount: 1>
refcount: 1>
new_DM -- step:    10
Re-using DM from previous geometries...
Number of DMs in history: 1
 DM extrapolation coefficients: 
1   1.00000
New DM after history re-use:
<dSpData2D:SpM extrapolated using coords
  <sparsity:sparsity for geom step 10
    nrows_g=8 nrows=5 sparsity=40.5625 nnzs=2596, refcount: 9>
  <dData2D:(temp array for extrapolation) n=2596 m=1, refcount: 1>
refcount: 1>
Note: For starting DM, Qtot, Tr[D*S] =          8.00000000          7.98972970
No. of atoms with KB's overlaping orbs in proc 0. Max # of overlaps:      32     104
New grid distribution:   1
           1       1:    9    1:    9    1:    5
           2       1:    9    1:    9    6:    9

InitMesh: MESH =    18 x    18 x    18 =        5832
InitMesh: (bp) =     9 x     9 x     9 =         729
InitMesh: Mesh cutoff (required, used) =   100.000   101.480 Ry
ExtMesh (bp) on 0 =    53 x    53 x    49 =      137641
New grid distribution:   2
           1       1:    9    1:    9    1:    5
           2       1:    9    1:    9    6:    9
New grid distribution:   3
           1       1:    9    1:    9    1:    5
           2       1:    9    1:    9    6:    9
Setting up quadratic distribution...
ExtMesh (bp) on 0 =    53 x    53 x    49 =      137641
PhiOnMesh: Number of (b)points on node 0 =                  405
PhiOnMesh: nlist on node 0 =                14548

        iscf     Eharris(eV)        E_KS(eV)     FreeEng(eV)     dDmax    Ef(eV) dHmax(eV)
   scf:    1     -212.234854     -212.468337     -212.468337  0.012518 -1.749276  0.005178
   scf:    2     -212.468341     -212.468339     -212.468339  0.000414 -1.744701  0.000426
   scf:    3     -212.468339     -212.468339     -212.468339  0.000030 -1.744997  0.000121

SCF Convergence by DM+H criterion
max |DM_out - DM_in|         :     0.0000304669
max |H_out - H_in|      (eV) :     0.0001205601
SCF cycle converged after 3 iterations

Using DM_out to compute the final energy and forces
No. of atoms with KB's overlaping orbs in proc 0. Max # of overlaps:      32     104

siesta: E_KS(eV) =             -212.4683

siesta: Atomic forces (eV/Ang):
----------------------------------------
   Tot   -0.009992   -0.007375   -0.003790
----------------------------------------
   Max    0.934921
   Res    0.648353    sqrt( Sum f_i^2 / 3N )
----------------------------------------
   Max    0.934921    constrained

Stress-tensor-Voigt (kbar):     -316.40     -314.50     -316.88      101.23       74.23      151.67
(Free)E + p*V (eV/cell)     -205.8132
Target enthalpy (eV/cell)     -204.0421

siesta: Stress tensor (static) (eV/Ang**3):
        -0.196703    0.062521    0.095070
         0.062522   -0.195731    0.045987
         0.095070    0.045987   -0.197567

siesta: Pressure (static):        315.09885525  kBar

siesta: Stress tensor (total) (eV/Ang**3):
        -0.197478    0.063180    0.094665
         0.063181   -0.196291    0.046331
         0.094666    0.046331   -0.197778

siesta: Pressure (total):        315.92481250  kBar
 Anneal: Kinetic Energy=    1.6905217000646947E-003
 Anneal: Velocity scale factor =    1.0463601216817693     
 Anneal: Cell scale factor =   0.99667215965136469     

siesta: Temp_ion =     194.832 K

                     ====================================
                        Begin MD step =     11
                     ====================================

superc: Internal auxiliary supercell:     5 x     5 x     5  =     125
superc: Number of atoms, orbitals, and projectors:    250   1000   2250

outcell: Unit cell vectors (Ang):
        2.494985    2.617417    0.000000
        0.000000    2.494645    2.628460
        2.591016    0.000000    2.495405

outcell: Cell vector modules (Ang)   :    3.616050    3.623818    3.597278
outcell: Cell angles (23,13,12) (deg):     59.7910     60.2003     60.1132
outcell: Cell volume (Ang**3)        :     33.3573
<dSpData1D:S at geom step 11
  <sparsity:sparsity for geom step 11
    nrows_g=8 nrows=5 sparsity=40.5625 nnzs=2596, refcount: 7>
  <dData1D:(new from dSpData1D) n=2596, refcount: 1>
refcount: 1>
new_DM -- step:    11
Re-using DM from previous geometries...
Number of DMs in history: 1
 DM extrapolation coefficients: 
1   1.00000
New DM after history re-use:
<dSpData2D:SpM extrapolated using coords
  <sparsity:sparsity for geom step 11
    nrows_g=8 nrows=5 sparsity=40.5625 nnzs=2596, refcount: 9>
  <dData2D:(temp array for extrapolation) n=2596 m=1, refcount: 1>
refcount: 1>
Note: For starting DM, Qtot, Tr[D*S] =          8.00000000          7.98977627
No. of atoms with KB's overlaping orbs in proc 0. Max # of overlaps:      32     104
New grid distribution:   1
           1       1:    9    1:    9    1:    5
           2       1:    9    1:    9    6:    9

InitMesh: MESH =    18 x    18 x    18 =        5832
InitMesh: (bp) =     9 x     9 x     9 =         729
InitMesh: Mesh cutoff (required, used) =   100.000   102.134 Ry
ExtMesh (bp) on 0 =    53 x    53 x    49 =      137641
New grid distribution:   2
           1       1:    9    1:    9    1:    5
           2       1:    9    1:    9    6:    9
New grid distribution:   3
           1       1:    9    1:    9    1:    5
           2       1:    9    1:    9    6:    9
Setting up quadratic distribution...
ExtMesh (bp) on 0 =    53 x    53 x    49 =      137641
PhiOnMesh: Number of (b)points on node 0 =                  405
PhiOnMesh: nlist on node 0 =                14712

        iscf     Eharris(eV)        E_KS(eV)     FreeEng(eV)     dDmax    Ef(eV) dHmax(eV)
   scf:    1     -212.116262     -212.333214     -212.333214  0.011166 -1.696620  0.004971
   scf:    2     -212.333218     -212.333216     -212.333216  0.000385 -1.692147  0.000357
   scf:    3     -212.333216     -212.333216     -212.333216  0.000028 -1.692427  0.000106

SCF Convergence by DM+H criterion
max |DM_out - DM_in|         :     0.0000275218
max |H_out - H_in|      (eV) :     0.0001061376
SCF cycle converged after 3 iterations

Using DM_out to compute the final energy and forces
No. of atoms with KB's overlaping orbs in proc 0. Max # of overlaps:      32     104

siesta: E_KS(eV) =             -212.3332

siesta: Atomic forces (eV/Ang):
----------------------------------------
   Tot   -0.019230    0.007363   -0.022256
----------------------------------------
   Max    1.007216
   Res    0.714153    sqrt( Sum f_i^2 / 3N )
----------------------------------------
   Max    1.007216    constrained

Stress-tensor-Voigt (kbar):     -339.00     -339.41     -338.62      101.09       74.48      158.62
(Free)E + p*V (eV/cell)     -205.2750
Target enthalpy (eV/cell)     -204.0053

siesta: Stress tensor (static) (eV/Ang**3):
        -0.210821    0.062495    0.099437
         0.062496   -0.211375    0.046144
         0.099437    0.046144   -0.211100

siesta: Pressure (static):        338.22137199  kBar

siesta: Stress tensor (total) (eV/Ang**3):
        -0.211587    0.063094    0.099000
         0.063094   -0.211843    0.046486
         0.099000    0.046486   -0.211350

siesta: Pressure (total):        339.01363981  kBar
 Anneal: Kinetic Energy=    1.5641776023395018E-003
 Anneal: Velocity scale factor =    1.0515528450765879     
 Anneal: Cell scale factor =   0.99754483449541620     

siesta: Temp_ion =     182.064 K

                     ====================================
                        Begin MD step =     12
                     ====================================

superc: Internal auxiliary supercell:     5 x     5 x     5  =     125
superc: Number of atoms, orbitals, and projectors:    250   1000   2250

outcell: Unit cell vectors (Ang):
        2.488887    2.606824    0.000000
        0.000000    2.488577    2.620619
        2.574530    0.000000    2.489278

outcell: Cell vector modules (Ang)   :    3.604177    3.613954    3.581161
outcell: Cell angles (23,13,12) (deg):     59.7319     60.2348     60.1288
outcell: Cell volume (Ang**3)        :     33.0059
<dSpData1D:S at geom step 12
  <sparsity:sparsity for geom step 12
    nrows_g=8 nrows=5 sparsity=40.5625 nnzs=2596, refcount: 7>
  <dData1D:(new from dSpData1D) n=2596, refcount: 1>
refcount: 1>
new_DM -- step:    12
Re-using DM from previous geometries...
Number of DMs in history: 1
 DM extrapolation coefficients: 
1   1.00000
New DM after history re-use:
<dSpData2D:SpM extrapolated using coords
  <sparsity:sparsity for geom step 12
    nrows_g=8 nrows=5 sparsity=40.5625 nnzs=2596, refcount: 9>
  <dData2D:(temp array for extrapolation) n=2596 m=1, refcount: 1>
refcount: 1>
Note: For starting DM, Qtot, Tr[D*S] =          8.00000000          7.98998160
No. of atoms with KB's overlaping orbs in proc 0. Max # of overlaps:      32     104
New grid distribution:   1
           1       1:    9    1:    9    1:    5
           2       1:    9    1:    9    6:    9

InitMesh: MESH =    18 x    18 x    18 =        5832
InitMesh: (bp) =     9 x     9 x     9 =         729
InitMesh: Mesh cutoff (required, used) =   100.000   102.702 Ry
ExtMesh (bp) on 0 =    53 x    53 x    49 =      137641
New grid distribution:   2
           1       1:    9    1:    9    1:    5
           2       1:    9    1:    9    6:    9
New grid distribution:   3
           1       1:    9    1:    9    1:    5
           2       1:    9    1:    9    6:    9
Setting up quadratic distribution...
ExtMesh (bp) on 0 =    53 x    53 x    49 =      137641
PhiOnMesh: Number of (b)points on node 0 =                  405
PhiOnMesh: nlist on node 0 =                14904

        iscf     Eharris(eV)        E_KS(eV)     FreeEng(eV)     dDmax    Ef(eV) dHmax(eV)
   scf:    1     -212.003674     -212.204751     -212.204751  0.009851 -1.651875  0.004744
   scf:    2     -212.204754     -212.204753     -212.204753  0.000362 -1.647530  0.000326
   scf:    3     -212.204753     -212.204753     -212.204753  0.000026 -1.647799  0.000102

SCF Convergence by DM+H criterion
max |DM_out - DM_in|         :     0.0000256081
max |H_out - H_in|      (eV) :     0.0001019011
SCF cycle converged after 3 iterations

Using DM_out to compute the final energy and forces
No. of atoms with KB's overlaping orbs in proc 0. Max # of overlaps:      32     104

siesta: E_KS(eV) =             -212.2048

siesta: Atomic forces (eV/Ang):
----------------------------------------
   Tot   -0.034371   -0.006638   -0.006198
----------------------------------------
   Max    1.034370
   Res    0.755593    sqrt( Sum f_i^2 / 3N )
----------------------------------------
   Max    1.034370    constrained

Stress-tensor-Voigt (kbar):     -365.69     -364.15     -362.73       99.78       71.64      162.62
(Free)E + p*V (eV/cell)     -204.7023
Target enthalpy (eV/cell)     -203.9646

siesta: Stress tensor (static) (eV/Ang**3):
        -0.227508    0.061753    0.101964
         0.061753   -0.226910    0.044385
         0.101965    0.044385   -0.226100

siesta: Pressure (static):        363.44119758  kBar

siesta: Stress tensor (total) (eV/Ang**3):
        -0.228246    0.062275    0.101498
         0.062276   -0.227280    0.044715
         0.101499    0.044715   -0.226395

siesta: Pressure (total):        364.18979454  kBar
 Anneal: Kinetic Energy=    1.4436484911814330E-003
 Anneal: Velocity scale factor =    1.0573235360479016     
 Anneal: Cell scale factor =   0.99851165179730084     

siesta: Temp_ion =     169.885 K

                     ====================================
                        Begin MD step =     13
                     ====================================

superc: Internal auxiliary supercell:     5 x     5 x     5  =     125
superc: Number of atoms, orbitals, and projectors:    250   1000   2250

outcell: Unit cell vectors (Ang):
        2.485464    2.596413    0.000000
        0.000000    2.484990    2.613102
        2.557733    0.000000    2.485574

outcell: Cell vector modules (Ang)   :    3.594286    3.606033    3.566522
outcell: Cell angles (23,13,12) (deg):     59.6673     60.2700     60.1454
outcell: Cell volume (Ang**3)        :     32.7052
<dSpData1D:S at geom step 13
  <sparsity:sparsity for geom step 13
    nrows_g=8 nrows=5 sparsity=40.5625 nnzs=2596, refcount: 7>
  <dData1D:(new from dSpData1D) n=2596, refcount: 1>
refcount: 1>
new_DM -- step:    13
Re-using DM from previous geometries...
Number of DMs in history: 1
 DM extrapolation coefficients: 
1   1.00000
New DM after history re-use:
<dSpData2D:SpM extrapolated using coords
  <sparsity:sparsity for geom step 13
    nrows_g=8 nrows=5 sparsity=40.5625 nnzs=2596, refcount: 9>
  <dData2D:(temp array for extrapolation) n=2596 m=1, refcount: 1>
refcount: 1>
Note: For starting DM, Qtot, Tr[D*S] =          8.00000000          7.99070015
No. of atoms with KB's overlaping orbs in proc 0. Max # of overlaps:      32     104
New grid distribution:   1
           1       1:    9    1:    9    1:    5
           2       1:    9    1:    9    6:    9

InitMesh: MESH =    18 x    18 x    18 =        5832
InitMesh: (bp) =     9 x     9 x     9 =         729
InitMesh: Mesh cutoff (required, used) =   100.000   103.155 Ry
ExtMesh (bp) on 0 =    53 x    53 x    49 =      137641
New grid distribution:   2
           1       1:    9    1:    9    1:    5
           2       1:    9    1:    9    6:    9
New grid distribution:   3
           1       1:    9    1:    9    1:    5
           2       1:    9    1:    9    6:    9
Setting up quadratic distribution...
ExtMesh (bp) on 0 =    53 x    53 x    49 =      137641
PhiOnMesh: Number of (b)points on node 0 =                  405
PhiOnMesh: nlist on node 0 =                15041

        iscf     Eharris(eV)        E_KS(eV)     FreeEng(eV)     dDmax    Ef(eV) dHmax(eV)
   scf:    1     -211.909610     -212.088028     -212.088028  0.010294 -1.617545  0.004354
   scf:    2     -212.088030     -212.088029     -212.088029  0.000333 -1.613523  0.000291
   scf:    3     -212.088029     -212.088029     -212.088029  0.000024 -1.613773  0.000091

SCF Convergence by DM+H criterion
max |DM_out - DM_in|         :     0.0000236934
max |H_out - H_in|      (eV) :     0.0000911695
SCF cycle converged after 3 iterations

Using DM_out to compute the final energy and forces
No. of atoms with KB's overlaping orbs in proc 0. Max # of overlaps:      32     104

siesta: E_KS(eV) =             -212.0880

siesta: Atomic forces (eV/Ang):
----------------------------------------
   Tot   -0.026375    0.006776   -0.006730
----------------------------------------
   Max    1.046149
   Res    0.784844    sqrt( Sum f_i^2 / 3N )
----------------------------------------
   Max    1.046149    constrained

Stress-tensor-Voigt (kbar):     -387.84     -385.65     -383.24      101.69       67.43      168.57
(Free)E + p*V (eV/cell)     -204.2173
Target enthalpy (eV/cell)     -203.9229

siesta: Stress tensor (static) (eV/Ang**3):
        -0.241372    0.063035    0.105708
         0.063035   -0.240431    0.041778
         0.105708    0.041778   -0.238848

siesta: Pressure (static):        384.87390208  kBar

siesta: Stress tensor (total) (eV/Ang**3):
        -0.242069    0.063470    0.105213
         0.063471   -0.240703    0.042087
         0.105213    0.042087   -0.239199

siesta: Pressure (total):        385.57933691  kBar
 Anneal: Kinetic Energy=    1.3465904870693492E-003
 Anneal: Velocity scale factor =    1.0626929837756189     
 Anneal: Cell scale factor =   0.99933412560637569     

siesta: Temp_ion =     160.077 K

                     ====================================
                        Begin MD step =     14
                     ====================================

superc: Internal auxiliary supercell:     5 x     5 x     5  =     125
superc: Number of atoms, orbitals, and projectors:    250   1000   2250

outcell: Unit cell vectors (Ang):
        2.484249    2.585845    0.000000
        0.000000    2.483549    2.606050
        2.540434    0.000000    2.483918

outcell: Cell vector modules (Ang)   :    3.585817    3.599932    3.552978
outcell: Cell angles (23,13,12) (deg):     59.5958     60.3064     60.1653
outcell: Cell volume (Ang**3)        :     32.4447
<dSpData1D:S at geom step 14
  <sparsity:sparsity for geom step 14
    nrows_g=8 nrows=5 sparsity=40.5625 nnzs=2596, refcount: 7>
  <dData1D:(new from dSpData1D) n=2596, refcount: 1>
refcount: 1>
new_DM -- step:    14
Re-using DM from previous geometries...
Number of DMs in history: 1
 DM extrapolation coefficients: 
1   1.00000
New DM after history re-use:
<dSpData2D:SpM extrapolated using coords
  <sparsity:sparsity for geom step 14
    nrows_g=8 nrows=5 sparsity=40.5625 nnzs=2596, refcount: 9>
  <dData2D:(temp array for extrapolation) n=2596 m=1, refcount: 1>
refcount: 1>
Note: For starting DM, Qtot, Tr[D*S] =          8.00000000          7.99138056
No. of atoms with KB's overlaping orbs in proc 0. Max # of overlaps:      32     104
New grid distribution:   1
           1       1:    9    1:    9    1:    5
           2       1:    9    1:    9    6:    9

InitMesh: MESH =    18 x    18 x    18 =        5832
InitMesh: (bp) =     9 x     9 x     9 =         729
InitMesh: Mesh cutoff (required, used) =   100.000   103.521 Ry
ExtMesh (bp) on 0 =    53 x    53 x    49 =      137641
New grid distribution:   2
           1       1:    9    1:    9    1:    5
           2       1:    9    1:    9    6:    9
New grid distribution:   3
           1       1:    9    1:    9    1:    5
           2       1:    9    1:    9    6:    9
Setting up quadratic distribution...
ExtMesh (bp) on 0 =    53 x    53 x    49 =      137641
PhiOnMesh: Number of (b)points on node 0 =                  405
PhiOnMesh: nlist on node 0 =                15167

        iscf     Eharris(eV)        E_KS(eV)     FreeEng(eV)     dDmax    Ef(eV) dHmax(eV)
   scf:    1     -211.822885     -211.982317     -211.982317  0.010856 -1.593849  0.003996
   scf:    2     -211.982319     -211.982318     -211.982318  0.000303 -1.590074  0.000253
   scf:    3     -211.982318     -211.982318     -211.982318  0.000022 -1.590311  0.000081

SCF Convergence by DM+H criterion
max |DM_out - DM_in|         :     0.0000217061
max |H_out - H_in|      (eV) :     0.0000812123
SCF cycle converged after 3 iterations

Using DM_out to compute the final energy and forces
No. of atoms with KB's overlaping orbs in proc 0. Max # of overlaps:      32     104

siesta: E_KS(eV) =             -211.9823

siesta: Atomic forces (eV/Ang):
----------------------------------------
   Tot   -0.020679    0.000002   -0.014559
----------------------------------------
   Max    1.028303
   Res    0.797961    sqrt( Sum f_i^2 / 3N )
----------------------------------------
   Max    1.028303    constrained

Stress-tensor-Voigt (kbar):     -406.57     -407.26     -401.94      100.59       66.50      173.91
(Free)E + p*V (eV/cell)     -203.7758
Target enthalpy (eV/cell)     -203.8822

siesta: Stress tensor (static) (eV/Ang**3):
        -0.253110    0.062441    0.109071
         0.062441   -0.254005    0.041225
         0.109072    0.041225   -0.250444

siesta: Pressure (static):        404.58549452  kBar

siesta: Stress tensor (total) (eV/Ang**3):
        -0.253759    0.062785    0.108547
         0.062785   -0.254187    0.041503
         0.108547    0.041503   -0.250868

siesta: Pressure (total):        405.25592657  kBar
 Anneal: Kinetic Energy=    1.2817657558238332E-003
 Anneal: Velocity scale factor =    1.0667143375953727     
 Anneal: Cell scale factor =    1.0000834025542005     

siesta: Temp_ion =     153.526 K

                     ====================================
                        Begin MD step =     15
                     ====================================

superc: Internal auxiliary supercell:     5 x     5 x     5  =     125
superc: Number of atoms, orbitals, and projectors:    250   1000   2250

outcell: Unit cell vectors (Ang):
        2.484894    2.575435    0.000000
        0.000000    2.484258    2.599116
        2.522705    0.000000    2.484126

outcell: Cell vector modules (Ang)   :    3.578766    3.595406    3.540469
outcell: Cell angles (23,13,12) (deg):     59.5216     60.3471     60.1824
outcell: Cell volume (Ang**3)        :     32.2214
<dSpData1D:S at geom step 15
  <sparsity:sparsity for geom step 15
    nrows_g=8 nrows=5 sparsity=40.5625 nnzs=2596, refcount: 7>
  <dData1D:(new from dSpData1D) n=2596, refcount: 1>
refcount: 1>
new_DM -- step:    15
Re-using DM from previous geometries...
Number of DMs in history: 1
 DM extrapolation coefficients: 
1   1.00000
New DM after history re-use:
<dSpData2D:SpM extrapolated using coords
  <sparsity:sparsity for geom step 15
    nrows_g=8 nrows=5 sparsity=40.5625 nnzs=2596, refcount: 9>
  <dData2D:(temp array for extrapolation) n=2596 m=1, refcount: 1>
refcount: 1>
No. of atoms with KB's overlaping orbs in proc 0. Max # of overlaps:      32     104
New grid distribution:   1
           1       1:    9    1:    9    1:    5
           2       1:    9    1:    9    6:    9

InitMesh: MESH =    18 x    18 x    18 =        5832
InitMesh: (bp) =     9 x     9 x     9 =         729
InitMesh: Mesh cutoff (required, used) =   100.000   103.803 Ry
ExtMesh (bp) on 0 =    53 x    53 x    49 =      137641
New grid distribution:   2
           1       1:    9    1:    9    1:    5
           2       1:    9    1:    9    6:    9
New grid distribution:   3
           1       1:    9    1:    9    1:    5
           2       1:    9    1:    9    6:    9
Setting up quadratic distribution...
ExtMesh (bp) on 0 =    53 x    53 x    49 =      137641
PhiOnMesh: Number of (b)points on node 0 =                  405
PhiOnMesh: nlist on node 0 =                15288

        iscf     Eharris(eV)        E_KS(eV)     FreeEng(eV)     dDmax    Ef(eV) dHmax(eV)
   scf:    1     -211.747791     -211.888282     -211.888282  0.011364 -1.580435  0.003580
   scf:    2     -211.888284     -211.888283     -211.888283  0.000284 -1.576952  0.000229
   scf:    3     -211.888283     -211.888283     -211.888283  0.000021 -1.577180  0.000071

SCF Convergence by DM+H criterion
max |DM_out - DM_in|         :     0.0000210475
max |H_out - H_in|      (eV) :     0.0000712055
SCF cycle converged after 3 iterations

Using DM_out to compute the final energy and forces
No. of atoms with KB's overlaping orbs in proc 0. Max # of overlaps:      32     104

siesta: E_KS(eV) =             -211.8883

siesta: Atomic forces (eV/Ang):
----------------------------------------
   Tot   -0.016139   -0.015505    0.008086
----------------------------------------
   Max    1.012471
   Res    0.815711    sqrt( Sum f_i^2 / 3N )
----------------------------------------
   Max    1.012471    constrained

Stress-tensor-Voigt (kbar):     -424.47     -424.97     -418.50       99.75       63.62      177.21
(Free)E + p*V (eV/cell)     -203.3885
Target enthalpy (eV/cell)     -203.8440

siesta: Stress tensor (static) (eV/Ang**3):
        -0.264339    0.062011    0.111157
         0.062011   -0.265139    0.039475
         0.111157    0.039475   -0.260689

siesta: Pressure (static):        422.00023544  kBar

siesta: Stress tensor (total) (eV/Ang**3):
        -0.264932    0.062260    0.110604
         0.062260   -0.265244    0.039708
         0.110604    0.039708   -0.261204

siesta: Pressure (total):        422.64821408  kBar
 Anneal: Kinetic Energy=    1.2499475044263457E-003
 Anneal: Velocity scale factor =    1.0688346548244050     
 Anneal: Cell scale factor =    1.0007467929252409     

siesta: Temp_ion =     150.311 K

                     ====================================
                        Begin MD step =     16
                     ====================================

superc: Internal auxiliary supercell:     5 x     5 x     5  =     125
superc: Number of atoms, orbitals, and projectors:    250   1000   2250

outcell: Unit cell vectors (Ang):
        2.487317    2.565153    0.000000
        0.000000    2.486728    2.592505
        2.504763    0.000000    2.485981

outcell: Cell vector modules (Ang)   :    3.573060    3.592339    3.529014
outcell: Cell angles (23,13,12) (deg):     59.4442     60.3904     60.2007
outcell: Cell volume (Ang**3)        :     32.0336
<dSpData1D:S at geom step 16
  <sparsity:sparsity for geom step 16
    nrows_g=8 nrows=5 sparsity=40.5625 nnzs=2596, refcount: 7>
  <dData1D:(new from dSpData1D) n=2596, refcount: 1>
refcount: 1>
new_DM -- step:    16
Re-using DM from previous geometries...
Number of DMs in history: 1
 DM extrapolation coefficients: 
1   1.00000
New DM after history re-use:
<dSpData2D:SpM extrapolated using coords
  <sparsity:sparsity for geom step 16
    nrows_g=8 nrows=5 sparsity=40.5625 nnzs=2596, refcount: 9>
  <dData2D:(temp array for extrapolation) n=2596 m=1, refcount: 1>
refcount: 1>
No. of atoms with KB's overlaping orbs in proc 0. Max # of overlaps:      32     104
New grid distribution:   1
           1       1:    9    1:    9    1:    5
           2       1:    9    1:    9    6:    9

InitMesh: MESH =    18 x    18 x    18 =        5832
InitMesh: (bp) =     9 x     9 x     9 =         729
InitMesh: Mesh cutoff (required, used) =   100.000   104.001 Ry
ExtMesh (bp) on 0 =    53 x    53 x    49 =      137641
New grid distribution:   2
           1       1:    9    1:    9    1:    5
           2       1:    9    1:    9    6:    9
New grid distribution:   3
           1       1:    9    1:    9    1:    5
           2       1:    9    1:    9    6:    9
Setting up quadratic distribution...
ExtMesh (bp) on 0 =    53 x    53 x    49 =      137641
PhiOnMesh: Number of (b)points on node 0 =                  405
PhiOnMesh: nlist on node 0 =                15376

        iscf     Eharris(eV)        E_KS(eV)     FreeEng(eV)     dDmax    Ef(eV) dHmax(eV)
   scf:    1     -211.685906     -211.806724     -211.806724  0.011731 -1.578355  0.003105
   scf:    2     -211.806726     -211.806725     -211.806725  0.000262 -1.575237  0.000205
   scf:    3     -211.806725     -211.806725     -211.806725  0.000021 -1.575455  0.000076

SCF Convergence by DM+H criterion
max |DM_out - DM_in|         :     0.0000206196
max |H_out - H_in|      (eV) :     0.0000758381
SCF cycle converged after 3 iterations

Using DM_out to compute the final energy and forces
No. of atoms with KB's overlaping orbs in proc 0. Max # of overlaps:      32     104

siesta: E_KS(eV) =             -211.8067

siesta: Atomic forces (eV/Ang):
----------------------------------------
   Tot    0.000627   -0.003648    0.007287
----------------------------------------
   Max    1.016171
   Res    0.824068    sqrt( Sum f_i^2 / 3N )
----------------------------------------
   Max    1.016171    constrained

Stress-tensor-Voigt (kbar):     -442.18     -440.85     -430.95       99.59       60.65      178.12
(Free)E + p*V (eV/cell)     -203.0497
Target enthalpy (eV/cell)     -203.8093

siesta: Stress tensor (static) (eV/Ang**3):
        -0.275461    0.062009    0.111744
         0.062008   -0.275110    0.037686
         0.111744    0.037686   -0.268346

siesta: Pressure (static):        437.35479321  kBar

siesta: Stress tensor (total) (eV/Ang**3):
        -0.275986    0.062161    0.111170
         0.062161   -0.275154    0.037852
         0.111170    0.037852   -0.268973

siesta: Pressure (total):        437.99358509  kBar
 Anneal: Kinetic Energy=    1.2509107330310007E-003
 Anneal: Velocity scale factor =    1.0687689467686448     
 Anneal: Cell scale factor =    1.0012452078943519     

siesta: Temp_ion =     150.408 K

                     ====================================
                        Begin MD step =     17
                     ====================================

superc: Internal auxiliary supercell:     5 x     5 x     5  =     125
superc: Number of atoms, orbitals, and projectors:    250   1000   2250

outcell: Unit cell vectors (Ang):
[...]
PhiOnMesh: nlist on node 0 =                15555

        iscf     Eharris(eV)        E_KS(eV)     FreeEng(eV)     dDmax    Ef(eV) dHmax(eV)
   scf:    1     -212.403486     -212.429927     -212.429927  0.006904 -4.668540  0.003875
   scf:    2     -212.429930     -212.429929     -212.429929  0.000270 -4.668186  0.000436
   scf:    3     -212.429929     -212.429929     -212.429929  0.000026 -4.668216  0.000053

SCF Convergence by DM+H criterion
max |DM_out - DM_in|         :     0.0000263288
max |H_out - H_in|      (eV) :     0.0000533857
SCF cycle converged after 3 iterations

Using DM_out to compute the final energy and forces
No. of atoms with KB's overlaping orbs in proc 0. Max # of overlaps:      32     104

siesta: E_KS(eV) =             -212.4299

siesta: Atomic forces (eV/Ang):
----------------------------------------
   Tot    0.019447    0.006510    0.011657
----------------------------------------
   Max    0.776972
   Res    0.448733    sqrt( Sum f_i^2 / 3N )
----------------------------------------
   Max    0.776972    constrained

Stress-tensor-Voigt (kbar):     -404.34     -388.67     -424.19       49.14       72.76       40.63
(Free)E + p*V (eV/cell)     -204.4094
Target enthalpy (eV/cell)     -204.5227

siesta: Stress tensor (static) (eV/Ang**3):
        -0.251692    0.031085    0.026792
         0.031085   -0.241253    0.046335
         0.026792    0.046334   -0.261704

siesta: Pressure (static):        403.03148656  kBar

siesta: Stress tensor (total) (eV/Ang**3):
        -0.252363    0.030669    0.025360
         0.030669   -0.242584    0.045413
         0.025361    0.045413   -0.264759

siesta: Pressure (total):        405.73208439  kBar
 Anneal: Kinetic Energy=    5.7334468626599041E-003
 Anneal: Velocity scale factor =   0.99988330501613776     
 Anneal: Cell scale factor =    1.0009687171489901     

siesta: Temp_ion =     603.380 K

                     ====================================
                        Begin MD step =     97
                     ====================================

superc: Internal auxiliary supercell:     5 x     5 x     5  =     125
superc: Number of atoms, orbitals, and projectors:    250   1000   2250

outcell: Unit cell vectors (Ang):
        2.921860    2.075129    0.000000
        0.000000    2.849087    2.074617
        2.041141    0.000000    2.744008

outcell: Cell vector modules (Ang)   :    3.583773    3.524391    3.419917
outcell: Cell angles (23,13,12) (deg):     61.8159     60.8823     62.0898
outcell: Cell volume (Ang**3)        :     31.6302
<dSpData1D:S at geom step 97
  <sparsity:sparsity for geom step 97
    nrows_g=8 nrows=5 sparsity=40.5625 nnzs=2596, refcount: 7>
  <dData1D:(new from dSpData1D) n=2596, refcount: 1>
refcount: 1>
new_DM -- step:    97
Re-using DM from previous geometries...
Number of DMs in history: 1
 DM extrapolation coefficients: 
1   1.00000
New DM after history re-use:
<dSpData2D:SpM extrapolated using coords
  <sparsity:sparsity for geom step 97
    nrows_g=8 nrows=5 sparsity=40.5625 nnzs=2596, refcount: 9>
  <dData2D:(temp array for extrapolation) n=2596 m=1, refcount: 1>
refcount: 1>
No. of atoms with KB's overlaping orbs in proc 0. Max # of overlaps:      32     104
New grid distribution:   1
           1       1:    9    1:    9    1:    5
           2       1:    9    1:    9    6:    9

InitMesh: MESH =    18 x    18 x    18 =        5832
InitMesh: (bp) =     9 x     9 x     9 =         729
InitMesh: Mesh cutoff (required, used) =   100.000   101.024 Ry
ExtMesh (bp) on 0 =    53 x    53 x    49 =      137641
New grid distribution:   2
           1       1:    9    1:    9    1:    5
           2       1:    9    1:    9    6:    9
New grid distribution:   3
           1       1:    9    1:    9    1:    5
           2       1:    9    1:    9    6:    9
Setting up quadratic distribution...
ExtMesh (bp) on 0 =    53 x    53 x    49 =      137641
PhiOnMesh: Number of (b)points on node 0 =                  405
PhiOnMesh: nlist on node 0 =                15560

        iscf     Eharris(eV)        E_KS(eV)     FreeEng(eV)     dDmax    Ef(eV) dHmax(eV)
   scf:    1     -212.388632     -212.414459     -212.414459  0.007377 -4.658840  0.003785
   scf:    2     -212.414462     -212.414460     -212.414460  0.000263 -4.658479  0.000420
   scf:    3     -212.414460     -212.414460     -212.414460  0.000025 -4.658511  0.000052

SCF Convergence by DM+H criterion
max |DM_out - DM_in|         :     0.0000251593
max |H_out - H_in|      (eV) :     0.0000519063
SCF cycle converged after 3 iterations

Using DM_out to compute the final energy and forces
No. of atoms with KB's overlaping orbs in proc 0. Max # of overlaps:      32     104

siesta: E_KS(eV) =             -212.4145

siesta: Atomic forces (eV/Ang):
----------------------------------------
   Tot    0.009661    0.031448    0.021296
----------------------------------------
   Max    0.768834
   Res    0.472195    sqrt( Sum f_i^2 / 3N )
----------------------------------------
   Max    0.768834    constrained

Stress-tensor-Voigt (kbar):     -404.02     -393.09     -426.62       59.03       73.60       45.84
(Free)E + p*V (eV/cell)     -204.3616
Target enthalpy (eV/cell)     -204.5177

siesta: Stress tensor (static) (eV/Ang**3):
        -0.251644    0.037150    0.029868
         0.037150   -0.244030    0.046845
         0.029868    0.046845   -0.263214

siesta: Pressure (static):        405.29499223  kBar

siesta: Stress tensor (total) (eV/Ang**3):
        -0.252164    0.036845    0.028612
         0.036844   -0.245344    0.045936
         0.028613    0.045936   -0.266271

siesta: Pressure (total):        407.90707523  kBar
 Anneal: Kinetic Energy=    5.4638121807545825E-003
 Anneal: Velocity scale factor =    1.0008641636830258     
 Anneal: Cell scale factor =    1.0010621804022943     

siesta: Temp_ion =     576.133 K

                     ====================================
                        Begin MD step =     98
                     ====================================

superc: Internal auxiliary supercell:     5 x     5 x     5  =     125
superc: Number of atoms, orbitals, and projectors:    250   1000   2250

outcell: Unit cell vectors (Ang):
        2.922307    2.070208    0.000000
        0.000000    2.848293    2.068495
        2.037372    0.000000    2.746922

outcell: Cell vector modules (Ang)   :    3.581290    3.520148    3.420009
outcell: Cell angles (23,13,12) (deg):     61.8379     60.9152     62.1127
outcell: Cell volume (Ang**3)        :     31.5887
<dSpData1D:S at geom step 98
  <sparsity:sparsity for geom step 98
    nrows_g=8 nrows=5 sparsity=40.5625 nnzs=2596, refcount: 7>
  <dData1D:(new from dSpData1D) n=2596, refcount: 1>
refcount: 1>
new_DM -- step:    98
Re-using DM from previous geometries...
Number of DMs in history: 1
 DM extrapolation coefficients: 
1   1.00000
New DM after history re-use:
<dSpData2D:SpM extrapolated using coords
  <sparsity:sparsity for geom step 98
    nrows_g=8 nrows=5 sparsity=40.5625 nnzs=2596, refcount: 9>
  <dData2D:(temp array for extrapolation) n=2596 m=1, refcount: 1>
refcount: 1>
No. of atoms with KB's overlaping orbs in proc 0. Max # of overlaps:      32     104
New grid distribution:   1
           1       1:    9    1:    9    1:    5
           2       1:    9    1:    9    6:    9

InitMesh: MESH =    18 x    18 x    18 =        5832
InitMesh: (bp) =     9 x     9 x     9 =         729
InitMesh: Mesh cutoff (required, used) =   100.000   101.092 Ry
ExtMesh (bp) on 0 =    53 x    53 x    49 =      137641
New grid distribution:   2
           1       1:    9    1:    9    1:    5
           2       1:    9    1:    9    6:    9
New grid distribution:   3
           1       1:    9    1:    9    1:    5
           2       1:    9    1:    9    6:    9
Setting up quadratic distribution...
ExtMesh (bp) on 0 =    53 x    53 x    49 =      137641
PhiOnMesh: Number of (b)points on node 0 =                  405
PhiOnMesh: nlist on node 0 =                15589

        iscf     Eharris(eV)        E_KS(eV)     FreeEng(eV)     dDmax    Ef(eV) dHmax(eV)
   scf:    1     -212.373525     -212.398687     -212.398687  0.007807 -4.651570  0.003673
   scf:    2     -212.398690     -212.398689     -212.398689  0.000251 -4.651201  0.000404
   scf:    3     -212.398689     -212.398689     -212.398689  0.000024 -4.651234  0.000050

SCF Convergence by DM+H criterion
max |DM_out - DM_in|         :     0.0000236520
max |H_out - H_in|      (eV) :     0.0000500504
SCF cycle converged after 3 iterations

Using DM_out to compute the final energy and forces
No. of atoms with KB's overlaping orbs in proc 0. Max # of overlaps:      32     104

siesta: E_KS(eV) =             -212.3987

siesta: Atomic forces (eV/Ang):
----------------------------------------
   Tot    0.018074    0.017187    0.016582
----------------------------------------
   Max    0.752537
   Res    0.503182    sqrt( Sum f_i^2 / 3N )
----------------------------------------
   Max    0.752537    constrained

Stress-tensor-Voigt (kbar):     -406.29     -398.89     -429.35       68.64       74.01       50.93
(Free)E + p*V (eV/cell)     -204.2854
Target enthalpy (eV/cell)     -204.5123

siesta: Stress tensor (static) (eV/Ang**3):
        -0.253189    0.043031    0.032858
         0.043031   -0.247691    0.047050
         0.032859    0.047050   -0.264966

siesta: Pressure (static):        409.01118411  kBar

siesta: Stress tensor (total) (eV/Ang**3):
        -0.253585    0.042841    0.031785
         0.042841   -0.248963    0.046194
         0.031786    0.046194   -0.267974

siesta: Pressure (total):        411.50878371  kBar
 Anneal: Kinetic Energy=    5.1493586903200075E-003
 Anneal: Velocity scale factor =    1.0021363799869927     
 Anneal: Cell scale factor =    1.0011682547467136     

siesta: Temp_ion =     544.357 K

                     ====================================
                        Begin MD step =     99
                     ====================================

superc: Internal auxiliary supercell:     5 x     5 x     5  =     125
superc: Number of atoms, orbitals, and projectors:    250   1000   2250

outcell: Unit cell vectors (Ang):
        2.923025    2.064501    0.000000
        0.000000    2.848157    2.062351
        2.033195    0.000000    2.750131

outcell: Cell vector modules (Ang)   :    3.578580    3.516431    3.420103
outcell: Cell angles (23,13,12) (deg):     61.8617     60.9495     62.1429
outcell: Cell volume (Ang**3)        :     31.5523
<dSpData1D:S at geom step 99
  <sparsity:sparsity for geom step 99
    nrows_g=8 nrows=5 sparsity=40.5625 nnzs=2596, refcount: 7>
  <dData1D:(new from dSpData1D) n=2596, refcount: 1>
refcount: 1>
new_DM -- step:    99
Re-using DM from previous geometries...
Number of DMs in history: 1
 DM extrapolation coefficients: 
1   1.00000
New DM after history re-use:
<dSpData2D:SpM extrapolated using coords
  <sparsity:sparsity for geom step 99
    nrows_g=8 nrows=5 sparsity=40.5625 nnzs=2596, refcount: 9>
  <dData2D:(temp array for extrapolation) n=2596 m=1, refcount: 1>
refcount: 1>
No. of atoms with KB's overlaping orbs in proc 0. Max # of overlaps:      32     104
New grid distribution:   1
           1       1:    9    1:    9    1:    5
           2       1:    9    1:    9    6:    9

InitMesh: MESH =    18 x    18 x    18 =        5832
InitMesh: (bp) =     9 x     9 x     9 =         729
InitMesh: Mesh cutoff (required, used) =   100.000   101.163 Ry
ExtMesh (bp) on 0 =    53 x    53 x    49 =      137641
New grid distribution:   2
           1       1:    9    1:    9    1:    5
           2       1:    9    1:    9    6:    9
New grid distribution:   3
           1       1:    9    1:    9    1:    5
           2       1:    9    1:    9    6:    9
Setting up quadratic distribution...
ExtMesh (bp) on 0 =    53 x    53 x    49 =      137641
PhiOnMesh: Number of (b)points on node 0 =                  405
PhiOnMesh: nlist on node 0 =                15616

        iscf     Eharris(eV)        E_KS(eV)     FreeEng(eV)     dDmax    Ef(eV) dHmax(eV)
   scf:    1     -212.362972     -212.384706     -212.384706  0.008189 -4.647500  0.003559
   scf:    2     -212.384709     -212.384707     -212.384707  0.000237 -4.647185  0.000388
   scf:    3     -212.384707     -212.384707     -212.384707  0.000022 -4.647215  0.000047

SCF Convergence by DM+H criterion
max |DM_out - DM_in|         :     0.0000217966
max |H_out - H_in|      (eV) :     0.0000471891
SCF cycle converged after 3 iterations

Using DM_out to compute the final energy and forces
No. of atoms with KB's overlaping orbs in proc 0. Max # of overlaps:      32     104

siesta: E_KS(eV) =             -212.3847

siesta: Atomic forces (eV/Ang):
----------------------------------------
   Tot    0.024677    0.018470    0.026530
----------------------------------------
   Max    0.729683
   Res    0.543458    sqrt( Sum f_i^2 / 3N )
----------------------------------------
   Max    0.729683    constrained

Stress-tensor-Voigt (kbar):     -407.07     -403.60     -430.61       77.69       75.11       54.75
(Free)E + p*V (eV/cell)     -204.2365
Target enthalpy (eV/cell)     -204.5074

siesta: Stress tensor (static) (eV/Ang**3):
        -0.253769    0.048566    0.035065
         0.048566   -0.250693    0.047647
         0.035065    0.047647   -0.265849

siesta: Pressure (static):        411.39553856  kBar

siesta: Stress tensor (total) (eV/Ang**3):
        -0.254068    0.048492    0.034172
         0.048492   -0.251905    0.046880
         0.034172    0.046881   -0.268762

siesta: Pressure (total):        413.75851090  kBar
 Anneal: Kinetic Energy=    4.8050575106522034E-003
 Anneal: Velocity scale factor =    1.0037180718134560     
 Anneal: Cell scale factor =    1.0012162797858468     

siesta: Temp_ion =     509.564 K

                     ====================================
                        Begin MD step =    100
                     ====================================

superc: Internal auxiliary supercell:     5 x     5 x     5  =     125
superc: Number of atoms, orbitals, and projectors:    250   1000   2250

outcell: Unit cell vectors (Ang):
        2.923838    2.058061    0.000000
        0.000000    2.848554    2.056130
        2.028716    0.000000    2.753476

outcell: Cell vector modules (Ang)   :    3.575534    3.513109    3.420134
outcell: Cell angles (23,13,12) (deg):     61.8884     60.9840     62.1788
outcell: Cell volume (Ang**3)        :     31.5177
<dSpData1D:S at geom step 100
  <sparsity:sparsity for geom step 100
    nrows_g=8 nrows=5 sparsity=40.5625 nnzs=2596, refcount: 7>
  <dData1D:(new from dSpData1D) n=2596, refcount: 1>
refcount: 1>
new_DM -- step:   100
Re-using DM from previous geometries...
Number of DMs in history: 1
 DM extrapolation coefficients: 
1   1.00000
New DM after history re-use:
<dSpData2D:SpM extrapolated using coords
  <sparsity:sparsity for geom step 100
    nrows_g=8 nrows=5 sparsity=40.5625 nnzs=2596, refcount: 9>
  <dData2D:(temp array for extrapolation) n=2596 m=1, refcount: 1>
refcount: 1>
No. of atoms with KB's overlaping orbs in proc 0. Max # of overlaps:      32     104
New grid distribution:   1
           1       1:    9    1:    9    1:    5
           2       1:    9    1:    9    6:    9

InitMesh: MESH =    18 x    18 x    18 =        5832
InitMesh: (bp) =     9 x     9 x     9 =         729
InitMesh: Mesh cutoff (required, used) =   100.000   101.245 Ry
ExtMesh (bp) on 0 =    53 x    53 x    49 =      137641
New grid distribution:   2
           1       1:    9    1:    9    1:    5
           2       1:    9    1:    9    6:    9
New grid distribution:   3
           1       1:    9    1:    9    1:    5
           2       1:    9    1:    9    6:    9
Setting up quadratic distribution...
ExtMesh (bp) on 0 =    53 x    53 x    49 =      137641
PhiOnMesh: Number of (b)points on node 0 =                  405
PhiOnMesh: nlist on node 0 =                15641

        iscf     Eharris(eV)        E_KS(eV)     FreeEng(eV)     dDmax    Ef(eV) dHmax(eV)
   scf:    1     -212.350976     -212.371263     -212.371263  0.008469 -4.638478  0.003386
   scf:    2     -212.371266     -212.371265     -212.371265  0.000219 -4.640036  0.000365
   scf:    3     -212.371265     -212.371265     -212.371265  0.000020 -4.639906  0.000044

SCF Convergence by DM+H criterion
max |DM_out - DM_in|         :     0.0000198385
max |H_out - H_in|      (eV) :     0.0000443026
SCF cycle converged after 3 iterations

Using DM_out to compute the final energy and forces
No. of atoms with KB's overlaping orbs in proc 0. Max # of overlaps:      32     104

siesta: E_KS(eV) =             -212.3713

siesta: Atomic forces (eV/Ang):
----------------------------------------
   Tot    0.023266    0.014656    0.020904
----------------------------------------
   Max    0.687184
   Res    0.585867    sqrt( Sum f_i^2 / 3N )
----------------------------------------
   Max    0.687184    constrained

Stress-tensor-Voigt (kbar):     -406.48     -410.06     -432.11       86.42       74.20       57.11
(Free)E + p*V (eV/cell)     -204.1836
Target enthalpy (eV/cell)     -204.5026

siesta: Stress tensor (static) (eV/Ang**3):
        -0.253475    0.053905    0.036369
         0.053905   -0.254800    0.046959
         0.036370    0.046959   -0.266919

siesta: Pressure (static):        414.00377558  kBar

siesta: Stress tensor (total) (eV/Ang**3):
        -0.253704    0.053938    0.035646
         0.053938   -0.255937    0.046312
         0.035647    0.046312   -0.269700

siesta: Pressure (total):        416.21846967  kBar
 Anneal: Kinetic Energy=    4.4467181789141288E-003
 Anneal: Velocity scale factor =    1.0056210663917238     
 Anneal: Cell scale factor =    1.0012743725315862     

siesta: Temp_ion =     473.353 K

siesta: Program's energy decomposition (eV):
siesta: Ebs     =       -82.063911
siesta: Eions   =       380.802124
siesta: Ena     =       111.712642
siesta: Ekin    =        87.165828
siesta: Enl     =        32.708054
siesta: Eso     =         0.000000
siesta: Eldau   =         0.000000
siesta: DEna    =         4.235092
siesta: DUscf   =         0.091817
siesta: DUext   =         0.000000
siesta: Enegf   =         0.000000
siesta: Exc     =       -67.482575
siesta: eta*DQ  =         0.000000
siesta: Emadel  =         0.000000
siesta: Emeta   =         0.000000
siesta: Emolmec =         0.000000
siesta: Ekinion =         0.061183
siesta: Eharris =      -212.310082
siesta: Etot    =      -212.310082
siesta: FreeEng =      -212.310082

siesta: Final energy (eV):
siesta:  Band Struct. =     -82.063911
siesta:       Kinetic =      87.165828
siesta:       Hartree =       8.976556
siesta:       Eldau   =       0.000000
siesta:       Eso     =       0.000000
siesta:    Ext. field =       0.000000
siesta:       Enegf   =       0.000000
siesta:   Exch.-corr. =     -67.482575
siesta:  Ion-electron =     -99.176475
siesta:       Ion-ion =    -141.854599
siesta:       Ekinion =       0.061183
siesta:         Total =    -212.310082
siesta:         Fermi =      -4.639906

siesta: Atomic forces (eV/Ang):
siesta:      1    0.687184    0.501919    0.583544
siesta:      2   -0.663917   -0.487263   -0.562640
siesta: ----------------------------------------
siesta:    Tot    0.023266    0.014656    0.020904

siesta: Stress tensor (static) (eV/Ang**3):
siesta:    -0.253475    0.053905    0.036369
siesta:     0.053905   -0.254800    0.046959
siesta:     0.036370    0.046959   -0.266919

siesta: Cell volume =         31.517706 Ang**3

siesta: Pressure (static):
siesta:                Solid            Molecule  Units
siesta:           0.00281428          0.00307052  Ry/Bohr**3
siesta:           0.25839804          0.28192496  eV/Ang**3
siesta:         414.00377558        451.69846825  kBar
(Free)E+ p_basis*V_orbitals  =        -211.794565
(Free)Eharris+ p_basis*V_orbitals  =        -211.794565
>> End of run:   5-NOV-2018   9:20:06
Job completed
