Siesta Version: siesta@uam.es--2006/siesta-devel--reference--2.1--patch-34
Architecture  : intel9 with Siesta libs
Compiler flags: ifort -w -O2 -mp
SERIAL version

* Running in serial mode
>> Start of run:  25-JAN-2007  18:03:22

                           ***********************       
                           *  WELCOME TO SIESTA  *       
                           ***********************       

reinit: Reading from standard input
************************** Dump of input data file ****************************
# -----------------------------------------------------------------------------
# Primitive c-Si supercell, using STRUCT file
# Annealing, HarrisFunctional
# Alberto Garcia, August-December 2005, January 2006
# -----------------------------------------------------------------------------
SystemName          Primitive silicon, Annealing, Harris, Struct File
SystemLabel         md_anneal
NumberOfAtoms       2
NumberOfSpecies     1
MD.Use-Struct-File  T   # Structural information is read from md_anneal.STRUCT_IN
%block ChemicalSpeciesLabel
 1  14  Si
%endblock ChemicalSpeciesLabel
PAO.BasisSize       SZ
MeshCutoff          100.0 Ry
%block kgrid-monkhorst-pack
  2 0 0  0.5
  0 2 0  0.5
  0 0 2  0.5
%endblock kgrid-monkhorst-pack
SolutionMethod       diagon
ElectronicTemperature  100 K
HarrisFunctional T
WriteMDHistory T
MD.TypeOfRun         anneal
MD.AnnealOptions  TemperatureAndPressure
MD.InitialTemperature 100 K
MD.TargetTemperature 600 K
MD.TargetPressure 40 GPa
MD.LengthTimeStep  1 fs
MD.TauRelax       25 fs
MD.FinalTimeStep  100
************************** End of input data file *****************************

reinit: -----------------------------------------------------------------------
reinit: System Name: Primitive silicon, Annealing, Harris, Struct File          
reinit: -----------------------------------------------------------------------
reinit: System Label: md_anneal                                                   
reinit: -----------------------------------------------------------------------

initatom: Reading input for the pseudopotentials and atomic orbitals ----------
 Species number:            1  Label: Si Atomic number:          14
Ground state valence configuration:   3s02  3p02
Reading pseudopotential information in formatted form from Si.psf

Valence configuration for pseudopotential generation:
3s( 2.00) rc: 1.89
3p( 2.00) rc: 1.89
3d( 0.00) rc: 1.89
4f( 0.00) rc: 1.89
Dumping pseudopotential information in formatted form in Si.psdump
For Si, standard SIESTA heuristics set lmxkb to 2
 (one more than the basis l, including polarization orbitals).
Use PS.lmax or PS.KBprojectors blocks to override.

<basis_specs>
===============================================================================
Si                   Z=  14    Mass=  28.090        Charge= 0.17977+309
Lmxo=1 Lmxkb=2     BasisType=split      Semic=F
L=0  Nsemic=0  Cnfigmx=3
          n=1  nzeta=1  polorb=0
            splnorm:   0.15000    
               vcte:    0.0000    
               rinn:    0.0000    
                rcs:    0.0000    
            lambdas:    1.0000    
L=1  Nsemic=0  Cnfigmx=3
          n=1  nzeta=1  polorb=0
            splnorm:   0.15000    
               vcte:    0.0000    
               rinn:    0.0000    
                rcs:    0.0000    
            lambdas:    1.0000    
-------------------------------------------------------------------------------
L=0  Nkbl=1  erefs: 0.17977+309
L=1  Nkbl=1  erefs: 0.17977+309
L=2  Nkbl=1  erefs: 0.17977+309
===============================================================================
</basis_specs>

atom: Called for Si                    (Z =  14)

read_vps: Pseudopotential generation method:
read_vps: ATM3      Troullier-Martins                       
Total valence charge:    4.00000

xc_check: Exchange-correlation functional:
xc_check: Ceperley-Alder
V l=0 = -2*Zval/r beyond r=  2.5494
V l=1 = -2*Zval/r beyond r=  2.5494
V l=2 = -2*Zval/r beyond r=  2.5494
All V_l potentials equal beyond r=  1.8652
This should be close to max(r_c) in ps generation
All pots = -2*Zval/r beyond r=  2.5494
Using large-core scheme for Vlocal

atom: Estimated core radius    2.54944

atom: Including non-local core corrections could be a good idea
atom: Maximum radius for 4*pi*r*r*local-pseudopot. charge    2.85303
atom: Maximum radius for r*vlocal+2*Zval:    2.58151
GHOST: No ghost state for L =  0
GHOST: No ghost state for L =  1
GHOST: No ghost state for L =  2

KBgen: Kleinman-Bylander projectors: 
   l= 0   rc=  1.936440   el= -0.796617   Ekb=  4.661340   kbcos=  0.299756
   l= 1   rc=  1.936440   el= -0.307040   Ekb=  1.494238   kbcos=  0.301471
   l= 2   rc=  1.936440   el=  0.002313   Ekb= -2.808672   kbcos= -0.054903

KBgen: Total number of  Kleinman-Bylander projectors:    9
atom: -------------------------------------------------------------------------

atom: SANKEY-TYPE ORBITALS:

SPLIT: Orbitals with angular momentum L= 0

SPLIT: Basis orbitals for state 3s

SPLIT: PAO cut-off radius determined from an
SPLIT: energy shift=  0.020000 Ry

   izeta = 1
                 lambda =    1.000000
                     rc =    5.007352
                 energy =   -0.777669
                kinetic =    0.573829
    potential(screened) =   -1.351499
       potential(ionic) =   -3.827441

SPLIT: Orbitals with angular momentum L= 1

SPLIT: Basis orbitals for state 3p

SPLIT: PAO cut-off radius determined from an
SPLIT: energy shift=  0.020000 Ry

   izeta = 1
                 lambda =    1.000000
                     rc =    6.270866
                 energy =   -0.288955
                kinetic =    0.877930
    potential(screened) =   -1.166885
       potential(ionic) =   -3.426998
atom: Total number of Sankey-type orbitals:  4

atm_pop: Valence configuration (for local Pseudopot. screening):
 3s( 2.00)                                                            
 3p( 2.00)                                                            
Vna: chval, zval:    4.00000   4.00000

Vna:  Cut-off radius for the neutral-atom potential:   6.270866

atom: _________________________________________________________________________

prinput: Basis input ----------------------------------------------------------

PAO.BasisType split     

%block ChemicalSpeciesLabel
    1   14 Si                      # Species index, atomic number, species label
%endblock ChemicalSpeciesLabel

%block PAO.Basis                 # Define Basis set
Si                    2                    # Species label, number of l-shells
 n=3   0   1                         # n, l, Nzeta 
   5.007   
   1.000   
 n=3   1   1                         # n, l, Nzeta 
   6.271   
   1.000   
%endblock PAO.Basis

prinput: ----------------------------------------------------------------------


siesta: ******************** Simulation parameters ****************************
siesta:
siesta: The following are some of the parameters of the simulation.
siesta: A complete list of the parameters used, including default values,
siesta: can be found in file out.fdf
siesta:
  -- Read structural information from md_anneal.STRUCT_IN
redata: Number of spin components        =     1
redata: Long output                      =     F
redata: Number of Atomic Species         =     1
redata: Charge density info will appear in .RHO file
redata: Write Mulliken Pop.              =     NO
redata: Mesh Cutoff                      =   100.0000  Ry
redata: Net charge of the system         =     0.0000 |e|
redata: Max. number of SCF Iter          =    50
redata: Mixing is linear
redata: Mix DM in first SCF step ?       =     F
redata: Write Pulay info on disk?        =     F
redata: New DM Mixing Weight             =     0.2500
redata: New DM Occupancy tolerance       = 0.000000000001
redata: No kicks to SCF
redata: DM Mixing Weight for Kicks       =     0.5000
redata: DM Tolerance for SCF             =     0.000100
redata: Require Energy convergence for SCF =     F
redata: DM Energy tolerance for SCF      =     0.000100 eV
redata: Using Saved Data (generic)   =     F
redata: Use continuation files for DM    =     F
redata: Neglect nonoverlap interactions  =     F
redata: Method of Calculation            =     Diagonalization
redata: Divide and Conquer               =     T
redata: Electronic Temperature           =     0.0006  Ry
redata: Fix the spin of the system       =     F
redata: Dynamics option                  =     Annealing MD run
redata: Initial MD time step             =     1
redata:   Final MD time step             =   100
redata: Length of MD time step           =     1.0000  fs
redata: Initial Temperature of MD run    =   100.0000  K
redata: Annealing Option                 = Temperature and Pressure
redata: Target Temperature               =   600.0000  Kelvin
redata: Target Pressure                  =     0.0027  Ry/Bohr**3
redata: Annealing Relaxation Time        =    25.0000  fs
redata: Approx. Bulk Modulus             =     0.0068  Ry/Bohr**3
redata: ***********************************************************************

siesta: Atomic coordinates (Bohr) and species
siesta:      0.00000   0.00000   0.00000  1        1
siesta:      2.56530   2.56530   2.56530  1        2

initatomlists: Number of atoms, orbitals, and projectors:      2     8    18
Total number of electrons:     8.000000
Total ionic charge:     8.000000

siesta: System type = bulk      

siesta: k-grid: Number of k-points =     4
siesta: k-grid: Cutoff (effective) =     3.840 Ang
siesta: k-grid: Supercell and displacements
siesta: k-grid:    2   0   0      0.500
siesta: k-grid:    0   2   0      0.500
siesta: k-grid:    0   0   2      0.500
Naive supercell factors:     5    5    5

superc: Internal auxiliary supercell:     5 x     5 x     5  =     125
superc: Number of atoms, orbitals, and projectors:    250  1000  2250

* Maximum dynamic memory allocated =     1 MB

siesta:                 ==============================
                            Begin MD step =      1
                        ==============================

superc: Internal auxiliary supercell:     5 x     5 x     5  =     125
superc: Number of atoms, orbitals, and projectors:    250  1000  2250

outcell: Unit cell vectors (Ang):
        2.715000    2.715000    0.000000
        0.000000    2.715000    2.715000
        2.715000    0.000000    2.715000

outcell: Cell vector modules (Ang)   :    3.839590    3.839590    3.839590
outcell: Cell angles (23,13,12) (deg):     60.0000     60.0000     60.0000
outcell: Cell volume (Ang**3)        :     40.0258

InitMesh: MESH =    20 x    20 x    20 =        8000
InitMesh: Mesh cutoff (required, used) =   100.000   112.482 Ry

* Maximum dynamic memory allocated =     4 MB

stepf: Fermi-Dirac step function

siesta: Program's energy decomposition (eV):
siesta: Eions   =       380.802124
siesta: Ena     =       115.502327
siesta: Ekin    =        78.997046
siesta: Enl     =        35.834927
siesta: DEna    =         0.000000
siesta: DUscf   =         0.000000
siesta: DUext   =         0.000000
siesta: Exc     =       -64.548619
siesta: eta*DQ  =         0.000000
siesta: Emadel  =         0.000000
siesta: Emeta   =         0.000000
siesta: Emolmec =         0.000000
siesta: Ekinion =         0.000000
siesta: Eharris =      -213.847468
siesta: Etot    =      -215.016442
siesta: FreeEng =      -215.016442

siesta: Eharris(eV) =    -213.847468


siesta: Eharris(eV) =    -213.847468

timer: Routine,Calls,Time,% = IterSCF        1       0.735  69.87
elaps: Routine,Calls,Wall,% = IterSCF        1       0.736  69.96

siesta: E_KS - E_eggbox =      -213.7687

siesta: Atomic forces (eV/Ang):
----------------------------------------
   Tot    0.000001    0.000000    0.000001
----------------------------------------
   Max    0.193665
   Res    0.193665    sqrt( Sum f_i^2 / 3N )
----------------------------------------
   Max    0.193665    constrained

Stress-tensor-Voigt (kbar):      -58.55      -58.79      -58.44       81.49       81.34       81.22
Target enthalpy (eV/cell)     -203.7759

siesta: Stress tensor (static) (eV/Ang**3):
        -0.036465    0.050723    0.050723
         0.050723   -0.036465    0.050723
         0.050723    0.050723   -0.036465

siesta: Pressure (static):         58.42369204  kBar

siesta: Stress tensor (total) (eV/Ang**3):
        -0.036546    0.050860    0.050695
         0.050860   -0.036695    0.050769
         0.050695    0.050769   -0.036474

siesta: Pressure (total):         58.59491358  kBar
 Anneal: Kinetic Energy=   9.499992404768770E-004
 Anneal: Velocity scale factor =    1.09544511784033     
 Anneal: Cell scale factor =   0.986243752991545     

siesta: Temp_ion =     120.000 K

* Maximum dynamic memory allocated =     5 MB

siesta:                 ==============================
                            Begin MD step =      2
                        ==============================

siesta: k-grid: Number of k-points =     4
siesta: k-grid: Cutoff (effective) =     3.807 Ang
siesta: k-grid: Supercell and displacements
siesta: k-grid:    2   0   0      0.500
siesta: k-grid:    0   2   0      0.500
siesta: k-grid:    0   0   2      0.500
Naive supercell factors:     5    5    5

superc: Internal auxiliary supercell:     5 x     5 x     5  =     125
superc: Number of atoms, orbitals, and projectors:    250  1000  2250

outcell: Unit cell vectors (Ang):
        2.677683    2.706102    0.000000
        0.000000    2.677746    2.706141
        2.706171    0.000000    2.677652

outcell: Cell vector modules (Ang)   :    3.806964    3.807036    3.806991
outcell: Cell angles (23,13,12) (deg):     60.0026     60.0012     60.0017
outcell: Cell volume (Ang**3)        :     39.0167

InitMesh: MESH =    20 x    20 x    20 =        8000
InitMesh: Mesh cutoff (required, used) =   100.000   114.407 Ry

siesta: Eharris(eV) =    -213.797066


siesta: Eharris(eV) =    -213.797066


siesta: Atomic forces (eV/Ang):
----------------------------------------
   Tot    0.000000   -0.000001    0.000000
----------------------------------------
   Max    0.255894
   Res    0.193255    sqrt( Sum f_i^2 / 3N )
----------------------------------------
   Max    0.255894    constrained

Stress-tensor-Voigt (kbar):      -80.81      -80.79      -80.72       84.82       82.92       88.08
Target enthalpy (eV/cell)     -203.9831

siesta: Stress tensor (static) (eV/Ang**3):
        -0.050339    0.052776    0.055010
         0.052776   -0.050150    0.051699
         0.055010    0.051699   -0.050370

siesta: Pressure (static):         80.56861165  kBar

siesta: Stress tensor (total) (eV/Ang**3):
        -0.050440    0.052943    0.054978
         0.052943   -0.050428    0.051752
         0.054978    0.051752   -0.050380

siesta: Pressure (total):         80.77584350  kBar
 Anneal: Kinetic Energy=   1.299343596159598E-003
 Anneal: Velocity scale factor =    1.06558579223920     
 Anneal: Cell scale factor =   0.987147823947476     

siesta: Temp_ion =     155.302 K

* Maximum dynamic memory allocated =     5 MB

siesta:                 ==============================
                            Begin MD step =      3
                        ==============================

siesta: k-grid: Number of k-points =     4
siesta: k-grid: Cutoff (effective) =     3.776 Ang
siesta: k-grid: Supercell and displacements
siesta: k-grid:    2   0   0      0.500
siesta: k-grid:    0   2   0      0.500
siesta: k-grid:    0   0   2      0.500
Naive supercell factors:     5    5    5

superc: Internal auxiliary supercell:     5 x     5 x     5  =     125
superc: Number of atoms, orbitals, and projectors:    250  1000  2250

outcell: Unit cell vectors (Ang):
        2.643309    2.696855    0.000000
        0.000000    2.643408    2.697132
        2.696632    0.000000    2.643238

outcell: Cell vector modules (Ang)   :    3.776256    3.776523    3.776047
outcell: Cell angles (23,13,12) (deg):     60.0047     60.0076     60.0078
outcell: Cell volume (Ang**3)        :     38.0839

InitMesh: MESH =    20 x    20 x    20 =        8000
InitMesh: Mesh cutoff (required, used) =   100.000   116.253 Ry

siesta: Eharris(eV) =    -213.736096


siesta: Eharris(eV) =    -213.736096


siesta: Atomic forces (eV/Ang):
----------------------------------------
   Tot    0.000000   -0.000002    0.000001
----------------------------------------
   Max    0.341277
   Res    0.212020    sqrt( Sum f_i^2 / 3N )
----------------------------------------
   Max    0.341277    constrained

Stress-tensor-Voigt (kbar):     -117.30     -116.97     -117.63       88.42       85.95       97.09
Target enthalpy (eV/cell)     -204.1604

siesta: Stress tensor (static) (eV/Ang**3):
        -0.073060    0.054960    0.060650
         0.054960   -0.072657    0.053571
         0.060650    0.053571   -0.073400

siesta: Pressure (static):        117.02271145  kBar

siesta: Stress tensor (total) (eV/Ang**3):
        -0.073211    0.055189    0.060599
         0.055189   -0.073004    0.053648
         0.060599    0.053648   -0.073417

siesta: Pressure (total):        117.29770216  kBar
 Anneal: Kinetic Energy=   1.570559461684760E-003
 Anneal: Velocity scale factor =    1.05127117652322     
 Anneal: Cell scale factor =   0.988642873296324     

siesta: Temp_ion =     182.709 K

* Maximum dynamic memory allocated =     5 MB

siesta:                 ==============================
                            Begin MD step =      4
                        ==============================

siesta: k-grid: Number of k-points =     4
siesta: k-grid: Cutoff (effective) =     3.748 Ang
siesta: k-grid: Supercell and displacements
siesta: k-grid:    2   0   0      0.500
siesta: k-grid:    0   2   0      0.500
siesta: k-grid:    0   0   2      0.500
Naive supercell factors:     5    5    5

superc: Internal auxiliary supercell:     5 x     5 x     5  =     125
superc: Number of atoms, orbitals, and projectors:    250  1000  2250

outcell: Unit cell vectors (Ang):
        2.613289    2.687242    0.000000
        0.000000    2.613386    2.687821
        2.686155    0.000000    2.613219

outcell: Cell vector modules (Ang)   :    3.748406    3.748889    3.747578
outcell: Cell angles (23,13,12) (deg):     60.0036     60.0189     60.0159
outcell: Cell volume (Ang**3)        :     37.2487

InitMesh: MESH =    20 x    20 x    20 =        8000
InitMesh: Mesh cutoff (required, used) =   100.000   117.961 Ry

siesta: Eharris(eV) =    -213.662042


siesta: Eharris(eV) =    -213.662042


siesta: Atomic forces (eV/Ang):
----------------------------------------
   Tot   -0.000001    0.000000    0.000000
----------------------------------------
   Max    0.422091
   Res    0.249968    sqrt( Sum f_i^2 / 3N )
----------------------------------------
   Max    0.422091    constrained

Stress-tensor-Voigt (kbar):     -148.40     -146.72     -148.60       89.46       86.02      107.42
Target enthalpy (eV/cell)     -204.2996

siesta: Stress tensor (static) (eV/Ang**3):
        -0.092424    0.055554    0.067114
         0.055554   -0.091181    0.053590
         0.067114    0.053590   -0.092723

siesta: Pressure (static):        147.57729274  kBar

siesta: Stress tensor (total) (eV/Ang**3):
        -0.092624    0.055835    0.067044
         0.055835   -0.091577    0.053689
         0.067044    0.053689   -0.092747

siesta: Pressure (total):        147.90847057  kBar
 Anneal: Kinetic Energy=   1.760680423155527E-003
 Anneal: Velocity scale factor =    1.04378891109020     
 Anneal: Cell scale factor =   0.989895623119904     

siesta: Temp_ion =     201.922 K

* Maximum dynamic memory allocated =     5 MB

siesta:                 ==============================
                            Begin MD step =      5
                        ==============================

siesta: k-grid: Number of k-points =     4
siesta: k-grid: Cutoff (effective) =     3.721 Ang
siesta: k-grid: Supercell and displacements
siesta: k-grid:    2   0   0      0.500
siesta: k-grid:    0   2   0      0.500
siesta: k-grid:    0   0   2      0.500
Naive supercell factors:     5    5    5

superc: Internal auxiliary supercell:     5 x     5 x     5  =     125
superc: Number of atoms, orbitals, and projectors:    250  1000  2250

outcell: Unit cell vectors (Ang):
        2.586903    2.677546    0.000000
        0.000000    2.586852    2.678532
        2.674607    0.000000    2.586814

outcell: Cell vector modules (Ang)   :    3.723080    3.723753    3.720904
outcell: Cell angles (23,13,12) (deg):     59.9952     60.0366     60.0262
outcell: Cell volume (Ang**3)        :     36.4928

InitMesh: MESH =    20 x    20 x    20 =        8000
InitMesh: Mesh cutoff (required, used) =   100.000   119.516 Ry

siesta: Eharris(eV) =    -213.580776


siesta: Eharris(eV) =    -213.580776


siesta: Atomic forces (eV/Ang):
----------------------------------------
   Tot    0.000000    0.000001    0.000002
----------------------------------------
   Max    0.476990
   Res    0.287388    sqrt( Sum f_i^2 / 3N )
----------------------------------------
   Max    0.476990    constrained

Stress-tensor-Voigt (kbar):     -171.29     -170.15     -171.27       93.39       85.95      113.14
Target enthalpy (eV/cell)     -204.4113

siesta: Stress tensor (static) (eV/Ang**3):
        -0.106669    0.057966    0.070705
         0.057966   -0.105775    0.053526
         0.070705    0.053526   -0.106868

siesta: Pressure (static):        170.53359796  kBar

siesta: Stress tensor (total) (eV/Ang**3):
        -0.106913    0.058288    0.070617
         0.058288   -0.106200    0.053643
         0.070617    0.053643   -0.106900

siesta: Pressure (total):        170.90748949  kBar
 Anneal: Kinetic Energy=   1.882622007389064E-003
 Anneal: Velocity scale factor =    1.03976323987613     
 Anneal: Cell scale factor =   0.990811930284577     

siesta: Temp_ion =     214.244 K

* Maximum dynamic memory allocated =     5 MB

siesta:                 ==============================
                            Begin MD step =      6
                        ==============================

siesta: k-grid: Number of k-points =     4
siesta: k-grid: Cutoff (effective) =     3.696 Ang
siesta: k-grid: Supercell and displacements
siesta: k-grid:    2   0   0      0.500
siesta: k-grid:    0   2   0      0.500
siesta: k-grid:    0   0   2      0.500
Naive supercell factors:     5    5    5

superc: Internal auxiliary supercell:     5 x     5 x     5  =     125
superc: Number of atoms, orbitals, and projectors:    250  1000  2250

outcell: Unit cell vectors (Ang):
        2.563180    2.667460    0.000000
        0.000000    2.563034    2.669282
        2.662497    0.000000    2.563046

outcell: Cell vector modules (Ang)   :    3.699356    3.700569    3.695686
outcell: Cell angles (23,13,12) (deg):     59.9834     60.0550     60.0390
outcell: Cell volume (Ang**3)        :     35.7955

InitMesh: MESH =    20 x    20 x    20 =        8000
InitMesh: Mesh cutoff (required, used) =   100.000   120.990 Ry

siesta: Eharris(eV) =    -213.496637


siesta: Eharris(eV) =    -213.496637


siesta: Atomic forces (eV/Ang):
----------------------------------------
   Tot    0.000000    0.000000    0.000000
----------------------------------------
   Max    0.562453
   Res    0.351738    sqrt( Sum f_i^2 / 3N )
----------------------------------------
   Max    0.562453    constrained

Stress-tensor-Voigt (kbar):     -191.83     -190.36     -192.57       94.54       83.73      121.85
Target enthalpy (eV/cell)     -204.5053

siesta: Stress tensor (static) (eV/Ang**3):
        -0.119449    0.058654    0.076157
         0.058654   -0.118374    0.052127
         0.076157    0.052127   -0.120152

siesta: Pressure (static):        191.18166901  kBar

siesta: Stress tensor (total) (eV/Ang**3):
        -0.119728    0.059005    0.076052
         0.059005   -0.118813    0.052258
         0.076052    0.052258   -0.120191

siesta: Pressure (total):        191.58636501  kBar
 Anneal: Kinetic Energy=   1.942315733744705E-003
 Anneal: Velocity scale factor =    1.03797185019783     
 Anneal: Cell scale factor =   0.991671709414776     

siesta: Temp_ion =     220.276 K

* Maximum dynamic memory allocated =     5 MB

siesta:                 ==============================
                            Begin MD step =      7
                        ==============================

siesta: k-grid: Number of k-points =     4
siesta: k-grid: Cutoff (effective) =     3.672 Ang
siesta: k-grid: Supercell and displacements
siesta: k-grid:    2   0   0      0.500
siesta: k-grid:    0   2   0      0.500
siesta: k-grid:    0   0   2      0.500
Naive supercell factors:     5    5    5

superc: Internal auxiliary supercell:     5 x     5 x     5  =     125
superc: Number of atoms, orbitals, and projectors:    250  1000  2250

outcell: Unit cell vectors (Ang):
        2.541803    2.657288    0.000000
        0.000000    2.541525    2.660300
        2.649512    0.000000    2.541700

outcell: Cell vector modules (Ang)   :    3.677219    3.679204    3.671532
outcell: Cell angles (23,13,12) (deg):     59.9631     60.0783     60.0541
outcell: Cell volume (Ang**3)        :     35.1494

InitMesh: MESH =    20 x    20 x    20 =        8000
InitMesh: Mesh cutoff (required, used) =   100.000   122.368 Ry

siesta: Eharris(eV) =    -213.407641


siesta: Eharris(eV) =    -213.407641


siesta: Atomic forces (eV/Ang):
----------------------------------------
   Tot    0.000001    0.000001    0.000001
----------------------------------------
   Max    0.682874
   Res    0.444243    sqrt( Sum f_i^2 / 3N )
----------------------------------------
   Max    0.682874    constrained

Stress-tensor-Voigt (kbar):     -221.74     -221.14     -224.31       96.65       83.01      132.87
Target enthalpy (eV/cell)     -204.5812

siesta: Stress tensor (static) (eV/Ang**3):
        -0.138091    0.059954    0.083051
         0.059954   -0.137583    0.051666
         0.083051    0.051666   -0.139953

siesta: Pressure (static):        221.97168999  kBar

siesta: Stress tensor (total) (eV/Ang**3):
        -0.138398    0.060322    0.082932
         0.060322   -0.138023    0.051809
         0.082932    0.051809   -0.139999

siesta: Pressure (total):        222.39559242  kBar
 Anneal: Kinetic Energy=   1.928847831938259E-003
 Anneal: Velocity scale factor =    1.03836659690061     
 Anneal: Cell scale factor =   0.992951456800101     

siesta: Temp_ion =     218.915 K

* Maximum dynamic memory allocated =     5 MB

siesta:                 ==============================
                            Begin MD step =      8
                        ==============================

siesta: k-grid: Number of k-points =     4
siesta: k-grid: Cutoff (effective) =     3.649 Ang
siesta: k-grid: Supercell and displacements
siesta: k-grid:    2   0   0      0.500
siesta: k-grid:    0   2   0      0.500
siesta: k-grid:    0   0   2      0.500
Naive supercell factors:     5    5    5

superc: Internal auxiliary supercell:     5 x     5 x     5  =     125
superc: Number of atoms, orbitals, and projectors:    250  1000  2250

outcell: Unit cell vectors (Ang):
        2.523669    2.646932    0.000000
        0.000000    2.523344    2.651425
        2.635417    0.000000    2.523785

outcell: Cell vector modules (Ang)   :    3.657206    3.660234    3.648960
outcell: Cell angles (23,13,12) (deg):     59.9326     60.1069     60.0692
outcell: Cell volume (Ang**3)        :     34.5674

InitMesh: MESH =    18 x    18 x    18 =        5832
InitMesh: Mesh cutoff (required, used) =   100.000   100.124 Ry

siesta: Eharris(eV) =    -213.313500


siesta: Eharris(eV) =    -213.313500


siesta: Atomic forces (eV/Ang):
----------------------------------------
   Tot   -0.000877    0.020282    0.015007
----------------------------------------
   Max    0.752516
   Res    0.497579    sqrt( Sum f_i^2 / 3N )
----------------------------------------
   Max    0.752516    constrained

Stress-tensor-Voigt (kbar):     -253.09     -249.28     -256.43       99.26       81.89      143.58
Target enthalpy (eV/cell)     -204.6356

siesta: Stress tensor (static) (eV/Ang**3):
        -0.157641    0.061578    0.089746
         0.061578   -0.155162    0.050962
         0.089746    0.050962   -0.159997

siesta: Pressure (static):        252.50557328  kBar

siesta: Stress tensor (total) (eV/Ang**3):
        -0.157965    0.061949    0.089614
         0.061949   -0.155587    0.051114
         0.089614    0.051114   -0.160051

siesta: Pressure (total):        252.93422736  kBar
 Anneal: Kinetic Energy=   1.863143162918235E-003
 Anneal: Velocity scale factor =    1.04037193074328     
 Anneal: Cell scale factor =   0.994245334352641     

siesta: Temp_ion =     212.276 K

* Maximum dynamic memory allocated =     5 MB

siesta:                 ==============================
                            Begin MD step =      9
                        ==============================

siesta: k-grid: Number of k-points =     4
siesta: k-grid: Cutoff (effective) =     3.628 Ang
siesta: k-grid: Supercell and displacements
siesta: k-grid:    2   0   0      0.500
siesta: k-grid:    0   2   0      0.500
siesta: k-grid:    0   0   2      0.500
Naive supercell factors:     5    5    5

superc: Internal auxiliary supercell:     5 x     5 x     5  =     125
superc: Number of atoms, orbitals, and projectors:    250  1000  2250

outcell: Unit cell vectors (Ang):
        2.508850    2.636341    0.000000
        0.000000    2.508146    2.642697
        2.620264    0.000000    2.509261

outcell: Cell vector modules (Ang)   :    3.639316    3.643438    3.627971
outcell: Cell angles (23,13,12) (deg):     59.8895     60.1393     60.0872
outcell: Cell volume (Ang**3)        :     34.0452

InitMesh: MESH =    18 x    18 x    18 =        5832
InitMesh: Mesh cutoff (required, used) =   100.000   101.013 Ry

siesta: Eharris(eV) =    -213.220730


siesta: Eharris(eV) =    -213.220730


siesta: Atomic forces (eV/Ang):
----------------------------------------
   Tot   -0.003681    0.022836    0.007480
----------------------------------------
   Max    0.817121
   Res    0.560856    sqrt( Sum f_i^2 / 3N )
----------------------------------------
   Max    0.817121    constrained

Stress-tensor-Voigt (kbar):     -280.21     -276.22     -281.26      103.25       79.47      151.07
Target enthalpy (eV/cell)     -204.6760

siesta: Stress tensor (static) (eV/Ang**3):
        -0.174562    0.064078    0.094435
         0.064078   -0.172003    0.049445
         0.094435    0.049445   -0.175484

siesta: Pressure (static):        278.80842744  kBar

siesta: Stress tensor (total) (eV/Ang**3):
        -0.174892    0.064441    0.094292
         0.064441   -0.172403    0.049602
         0.094292    0.049602   -0.175546

siesta: Pressure (total):        279.23094077  kBar
 Anneal: Kinetic Energy=   1.768780846742296E-003
 Anneal: Velocity scale factor =    1.04350478957902     
 Anneal: Cell scale factor =   0.995244421298173     

siesta: Temp_ion =     202.740 K

* Maximum dynamic memory allocated =     5 MB

siesta:                 ==============================
                            Begin MD step =     10
                        ==============================

siesta: k-grid: Number of k-points =     4
siesta: k-grid: Cutoff (effective) =     3.608 Ang
siesta: k-grid: Supercell and displacements
siesta: k-grid:    2   0   0      0.500
siesta: k-grid:    0   2   0      0.500
siesta: k-grid:    0   0   2      0.500
Naive supercell factors:     5    5    5

superc: Internal auxiliary supercell:     5 x     5 x     5  =     125
superc: Number of atoms, orbitals, and projectors:    250  1000  2250

outcell: Unit cell vectors (Ang):
        2.496853    2.625374    0.000000
        0.000000    2.495751    2.634253
        2.604410    0.000000    2.497328

outcell: Cell vector modules (Ang)   :    3.623102    3.628783    3.608268
outcell: Cell angles (23,13,12) (deg):     59.8393     60.1706     60.1078
outcell: Cell volume (Ang**3)        :     33.5740

InitMesh: MESH =    18 x    18 x    18 =        5832
InitMesh: Mesh cutoff (required, used) =   100.000   101.815 Ry

siesta: Eharris(eV) =    -213.128886


siesta: Eharris(eV) =    -213.128886


siesta: Atomic forces (eV/Ang):
----------------------------------------
   Tot   -0.008062   -0.007019   -0.000741
----------------------------------------
   Max    0.886423
   Res    0.636837    sqrt( Sum f_i^2 / 3N )
----------------------------------------
   Max    0.886423    constrained

Stress-tensor-Voigt (kbar):     -304.28     -301.59     -305.52      106.48       77.61      156.84
Target enthalpy (eV/cell)     -204.7044

siesta: Stress tensor (static) (eV/Ang**3):
        -0.189584    0.066109    0.098045
         0.066109   -0.187868    0.048277
         0.098045    0.048277   -0.190614

siesta: Pressure (static):        303.38387128  kBar

siesta: Stress tensor (total) (eV/Ang**3):
        -0.189912    0.066456    0.097892
         0.066456   -0.188236    0.048440
         0.097892    0.048440   -0.190686

siesta: Pressure (total):        303.79390415  kBar
 Anneal: Kinetic Energy=   1.645075586744097E-003
 Anneal: Velocity scale factor =    1.04813899274165     
 Anneal: Cell scale factor =   0.996219729843482     

siesta: Temp_ion =     190.239 K

* Maximum dynamic memory allocated =     5 MB

siesta:                 ==============================
                            Begin MD step =     11
                        ==============================

siesta: k-grid: Number of k-points =     4
siesta: k-grid: Cutoff (effective) =     3.590 Ang
siesta: k-grid: Supercell and displacements
siesta: k-grid:    2   0   0      0.500
siesta: k-grid:    0   2   0      0.500
siesta: k-grid:    0   0   2      0.500
Naive supercell factors:     5    5    5

superc: Internal auxiliary supercell:     5 x     5 x     5  =     125
superc: Number of atoms, orbitals, and projectors:    250  1000  2250

outcell: Unit cell vectors (Ang):
        2.487324    2.614118    0.000000
        0.000000    2.485955    2.626034
        2.588049    0.000000    2.487888

outcell: Cell vector modules (Ang)   :    3.608378    3.616079    3.589928
outcell: Cell angles (23,13,12) (deg):     59.7829     60.2020     60.1293
outcell: Cell volume (Ang**3)        :     33.1499

InitMesh: MESH =    18 x    18 x    18 =        5832
InitMesh: Mesh cutoff (required, used) =   100.000   102.538 Ry

siesta: Eharris(eV) =    -213.039259


siesta: Eharris(eV) =    -213.039259


siesta: Atomic forces (eV/Ang):
----------------------------------------
   Tot   -0.027684    0.010342    0.008891
----------------------------------------
   Max    0.962601
   Res    0.701764    sqrt( Sum f_i^2 / 3N )
----------------------------------------
   Max    0.962601    constrained

Stress-tensor-Voigt (kbar):     -329.52     -324.95     -330.50      106.80       76.65      162.24
Target enthalpy (eV/cell)     -204.7228

siesta: Stress tensor (static) (eV/Ang**3):
        -0.205351    0.066337    0.101426
         0.066337   -0.202481    0.047674
         0.101426    0.047674   -0.206196

siesta: Pressure (static):        327.93016582  kBar

siesta: Stress tensor (total) (eV/Ang**3):
        -0.205666    0.066660    0.101264
         0.066660   -0.202813    0.047841
         0.101264    0.047841   -0.206279

siesta: Pressure (total):        328.32047613  kBar
 Anneal: Kinetic Energy=   1.503635318040040E-003
 Anneal: Velocity scale factor =    1.05433979077770     
 Anneal: Cell scale factor =   0.997223527731706     

siesta: Temp_ion =     175.946 K

* Maximum dynamic memory allocated =     5 MB

siesta:                 ==============================
                            Begin MD step =     12
                        ==============================

siesta: k-grid: Number of k-points =     4
siesta: k-grid: Cutoff (effective) =     3.573 Ang
siesta: k-grid: Supercell and displacements
siesta: k-grid:    2   0   0      0.500
siesta: k-grid:    0   2   0      0.500
siesta: k-grid:    0   0   2      0.500
Naive supercell factors:     5    5    5

superc: Internal auxiliary supercell:     5 x     5 x     5  =     125
superc: Number of atoms, orbitals, and projectors:    250  1000  2250

outcell: Unit cell vectors (Ang):
        2.480346    2.602882    0.000000
        0.000000    2.478519    2.617941
        2.571228    0.000000    2.480980

outcell: Cell vector modules (Ang)   :    3.595429    3.605090    3.573021
outcell: Cell angles (23,13,12) (deg):     59.7195     60.2353     60.1511
outcell: Cell volume (Ang**3)        :     32.7729

InitMesh: MESH =    18 x    18 x    18 =        5832
InitMesh: Mesh cutoff (required, used) =   100.000   103.160 Ry

siesta: Eharris(eV) =    -212.953167


siesta: Eharris(eV) =    -212.953167


siesta: Atomic forces (eV/Ang):
----------------------------------------
   Tot   -0.026619    0.002486   -0.000543
----------------------------------------
   Max    0.991497
   Res    0.744176    sqrt( Sum f_i^2 / 3N )
----------------------------------------
   Max    0.991497    constrained

Stress-tensor-Voigt (kbar):     -355.17     -348.41     -354.32      107.96       73.22      168.12
Target enthalpy (eV/cell)     -204.7328

siesta: Stress tensor (static) (eV/Ang**3):
        -0.221381    0.067089    0.105101
         0.067089   -0.217166    0.045533
         0.105101    0.045533   -0.221047

siesta: Pressure (static):        352.26572470  kBar

siesta: Stress tensor (total) (eV/Ang**3):
        -0.221677    0.067382    0.104930
         0.067382   -0.217457    0.045702
         0.104930    0.045702   -0.221145

siesta: Pressure (total):        352.63167446  kBar
 Anneal: Kinetic Energy=   1.366312303045311E-003
 Anneal: Velocity scale factor =    1.06154246624681     
 Anneal: Cell scale factor =   0.998180020754904     

siesta: Temp_ion =     162.070 K

* Maximum dynamic memory allocated =     5 MB

siesta:                 ==============================
                            Begin MD step =     13
                        ==============================

siesta: k-grid: Number of k-points =     4
siesta: k-grid: Cutoff (effective) =     3.557 Ang
siesta: k-grid: Supercell and displacements
siesta: k-grid:    2   0   0      0.500
siesta: k-grid:    0   2   0      0.500
siesta: k-grid:    0   0   2      0.500
Naive supercell factors:     5    5    5

superc: Internal auxiliary supercell:     5 x     5 x     5  =     125
superc: Number of atoms, orbitals, and projectors:    250  1000  2250

outcell: Unit cell vectors (Ang):
        2.475935    2.591580    0.000000
        0.000000    2.473431    2.610233
        2.553911    0.000000    2.476465

outcell: Cell vector modules (Ang)   :    3.584207    3.595994    3.557434
outcell: Cell angles (23,13,12) (deg):     59.6483     60.2693     60.1759
outcell: Cell volume (Ang**3)        :     32.4423

InitMesh: MESH =    18 x    18 x    18 =        5832
InitMesh: Mesh cutoff (required, used) =   100.000   103.681 Ry

siesta: Eharris(eV) =    -212.872717


siesta: Eharris(eV) =    -212.872717


siesta: Atomic forces (eV/Ang):
----------------------------------------
   Tot   -0.018109    0.004374   -0.009207
----------------------------------------
   Max    1.006861
   Res    0.772818    sqrt( Sum f_i^2 / 3N )
----------------------------------------
   Max    1.006861    constrained

Stress-tensor-Voigt (kbar):     -376.11     -371.66     -375.70      109.31       71.53      174.90
Target enthalpy (eV/cell)     -204.7366

siesta: Stress tensor (static) (eV/Ang**3):
        -0.234475    0.067965    0.109345
         0.067965   -0.231724    0.044472
         0.109345    0.044472   -0.234374

siesta: Pressure (static):        374.15133946  kBar

siesta: Stress tensor (total) (eV/Ang**3):
        -0.234749    0.068226    0.109165
         0.068226   -0.231972    0.044643
         0.109165    0.044643   -0.234492

siesta: Pressure (total):        374.49306625  kBar
 Anneal: Kinetic Energy=   1.248858791539388E-003
 Anneal: Velocity scale factor =    1.06890904012651     
 Anneal: Cell scale factor =   0.999038787869053     

siesta: Temp_ion =     150.201 K

* Maximum dynamic memory allocated =     5 MB

siesta:                 ==============================
                            Begin MD step =     14
                        ==============================

siesta: k-grid: Number of k-points =     4
siesta: k-grid: Cutoff (effective) =     3.543 Ang
siesta: k-grid: Supercell and displacements
siesta: k-grid:    2   0   0      0.500
siesta: k-grid:    0   2   0      0.500
siesta: k-grid:    0   0   2      0.500
Naive supercell factors:     5    5    5

superc: Internal auxiliary supercell:     5 x     5 x     5  =     125
superc: Number of atoms, orbitals, and projectors:    250  1000  2250

outcell: Unit cell vectors (Ang):
        2.473603    2.580192    0.000000
        0.000000    2.470651    2.602725
        2.536013    0.000000    2.474084

outcell: Cell vector modules (Ang)   :    3.574367    3.588634    3.542945
outcell: Cell angles (23,13,12) (deg):     59.5714     60.3067     60.1999
outcell: Cell volume (Ang**3)        :     32.1508

InitMesh: MESH =    18 x    18 x    18 =        5832
InitMesh: Mesh cutoff (required, used) =   100.000   104.118 Ry

siesta: Eharris(eV) =    -212.798258


siesta: Eharris(eV) =    -212.798258


siesta: Atomic forces (eV/Ang):
----------------------------------------
   Tot    0.002632    0.005366    0.006927
----------------------------------------
   Max    1.018648
   Res    0.798792    sqrt( Sum f_i^2 / 3N )
----------------------------------------
   Max    1.018648    constrained

Stress-tensor-Voigt (kbar):     -397.87     -390.29     -396.01      110.38       68.47      181.09
Target enthalpy (eV/cell)     -204.7363

siesta: Stress tensor (static) (eV/Ang**3):
        -0.248078    0.068663    0.113216
         0.068663   -0.243388    0.042563
         0.113216    0.042563   -0.247023

siesta: Pressure (static):        394.40050294  kBar

siesta: Stress tensor (total) (eV/Ang**3):
        -0.248326    0.068890    0.113027
         0.068890   -0.243595    0.042736
         0.113027    0.042736   -0.247168

siesta: Pressure (total):        394.72127222  kBar
 Anneal: Kinetic Energy=   1.157995774750949E-003
 Anneal: Velocity scale factor =    1.07558902829587     
 Anneal: Cell scale factor =   0.999854602713564     

siesta: Temp_ion =     141.019 K

* Maximum dynamic memory allocated =     5 MB

siesta:                 ==============================
                            Begin MD step =     15
                        ==============================

siesta: k-grid: Number of k-points =     4
siesta: k-grid: Cutoff (effective) =     3.529 Ang
siesta: k-grid: Supercell and displacements
siesta: k-grid:    2   0   0      0.500
siesta: k-grid:    0   2   0      0.500
siesta: k-grid:    0   0   2      0.500
Naive supercell factors:     5    5    5

superc: Internal auxiliary supercell:     5 x     5 x     5  =     125
superc: Number of atoms, orbitals, and projectors:    250  1000  2250

outcell: Unit cell vectors (Ang):
        2.473422    2.568749    0.000000
        0.000000    2.469711    2.595557
        2.517611    0.000000    2.473725

outcell: Cell vector modules (Ang)   :    3.565990    3.582791    3.529543
outcell: Cell angles (23,13,12) (deg):     59.4865     60.3466     60.2277
outcell: Cell volume (Ang**3)        :     31.8968

InitMesh: MESH =    18 x    18 x    18 =        5832
InitMesh: Mesh cutoff (required, used) =   100.000   104.460 Ry

siesta: Eharris(eV) =    -212.730493


siesta: Eharris(eV) =    -212.730493


siesta: Atomic forces (eV/Ang):
----------------------------------------
   Tot   -0.005749   -0.007613   -0.003928
----------------------------------------
   Max    1.020086
   Res    0.819975    sqrt( Sum f_i^2 / 3N )
----------------------------------------
   Max    1.020086    constrained

Stress-tensor-Voigt (kbar):     -417.23     -408.21     -412.52      112.78       66.43      182.70
Target enthalpy (eV/cell)     -204.7333

siesta: Stress tensor (static) (eV/Ang**3):
        -0.260192    0.070196    0.114228
         0.070196   -0.254616    0.041286
         0.114228    0.041286   -0.257292

siesta: Pressure (static):        412.35089478  kBar

siesta: Stress tensor (total) (eV/Ang**3):
        -0.260411    0.070388    0.114028
         0.070388   -0.254785    0.041461
         0.114028    0.041461   -0.257474

siesta: Pressure (total):        412.65519844  kBar
 Anneal: Kinetic Energy=   1.096127466648293E-003
 Anneal: Velocity scale factor =    1.08074272832223     
 Anneal: Cell scale factor =    1.00051892827326     

siesta: Temp_ion =     134.767 K

* Maximum dynamic memory allocated =     5 MB

siesta:                 ==============================
                            Begin MD step =     16
                        ==============================

siesta: k-grid: Number of k-points =     4
siesta: k-grid: Cutoff (effective) =     3.516 Ang
siesta: k-grid: Supercell and displacements
siesta: k-grid:    2   0   0      0.500
siesta: k-grid:    0   2   0      0.500
siesta: k-grid:    0   0   2      0.500
Naive supercell factors:     5    5    5

superc: Internal auxiliary supercell:     5 x     5 x     5  =     125
superc: Number of atoms, orbitals, and projectors:    250  1000  2250

outcell: Unit cell vectors (Ang):
        2.475150    2.557116    0.000000
        0.000000    2.470536    2.588623
        2.499180    0.000000    2.475008

outcell: Cell vector modules (Ang)   :    3.558821    3.578340    3.517324
outcell: Cell angles (23,13,12) (deg):     59.4001     60.3847     60.2588
outcell: Cell volume (Ang**3)        :     31.6776

InitMesh: MESH =    18 x    18 x    18 =        5832
InitMesh: Mesh cutoff (required, used) =   100.000   104.731 Ry

siesta: Eharris(eV) =    -212.669793


siesta: Eharris(eV) =    -212.669793


siesta: Atomic forces (eV/Ang):
----------------------------------------
   Tot   -0.016618   -0.002984   -0.015142
----------------------------------------
   Max    1.032417
   Res    0.836236    sqrt( Sum f_i^2 / 3N )
----------------------------------------
   Max    1.032417    constrained

Stress-tensor-Voigt (kbar):     -434.37     -424.11     -426.99      115.53       64.63      184.97
Target enthalpy (eV/cell)     -204.7284

siesta: Stress tensor (static) (eV/Ang**3):
        -0.270921    0.071950    0.115654
         0.071950   -0.264574    0.040166
         0.115654    0.040166   -0.266271

siesta: Pressure (static):        428.19480987  kBar

siesta: Stress tensor (total) (eV/Ang**3):
        -0.271107    0.072107    0.115446
         0.072107   -0.264706    0.040340
         0.115446    0.040340   -0.266501

siesta: Pressure (total):        428.48793987  kBar
 Anneal: Kinetic Energy=   1.067667932695090E-003
 Anneal: Velocity scale factor =    1.08330484104188     
 Anneal: Cell scale factor =    1.00110225933648     

siesta: Temp_ion =     131.891 K

* Maximum dynamic memory allocated =     5 MB

siesta:                 ==============================
                            Begin MD step =     17
                        ==============================

siesta: k-grid: Number of k-points =     4
siesta: k-grid: Cutoff (effective) =     3.504 Ang
siesta: k-grid: Supercell and displacements
siesta: k-grid:    2   0   0      0.500
siesta: k-grid:    0   2   0      0.500
siesta: k-grid:    0   0   2      0.500
Naive supercell factors:     5    5    5

superc: Internal auxiliary supercell:     5 x     5 x     5  =     125
superc: Number of atoms, orbitals, and projectors:    250  1000  2250

outcell: Unit cell vectors (Ang):
        2.478567    2.545259    0.000000
        0.000000    2.472926    2.581896
        2.480654    0.000000    2.477736

outcell: Cell vector modules (Ang)   :    3.552695    3.575129    3.506112
outcell: Cell angles (23,13,12) (deg):     59.3122     60.4219     60.2935
outcell: Cell volume (Ang**3)        :     31.4887

InitMesh: MESH =    18 x    18 x    18 =        5832
InitMesh: Mesh cutoff (required, used) =   100.000   104.937 Ry

siesta: Eharris(eV) =    -212.616226


siesta: Eharris(eV) =    -212.616226


siesta: Atomic forces (eV/Ang):
----------------------------------------
   Tot   -0.004281   -0.008549   -0.010884
----------------------------------------
   Max    1.044653
   Res    0.838772    sqrt( Sum f_i^2 / 3N )
----------------------------------------
   Max    1.044653    constrained

Stress-tensor-Voigt (kbar):     -447.59     -437.25     -437.08      114.27       62.60      184.67
Target enthalpy (eV/cell)     -204.7230

siesta: Stress tensor (static) (eV/Ang**3):
        -0.279212    0.071199    0.115470
         0.071199   -0.272815    0.038904
         0.115470    0.038904   -0.272505

siesta: Pressure (static):        440.35325145  kBar

siesta: Stress tensor (total) (eV/Ang**3):
        -0.279363    0.071318    0.115259
         0.071318   -0.272910    0.039071
         0.115259    0.039071   -0.272800

siesta: Pressure (total):        440.64235904  kBar
 Anneal: Kinetic Energy=   1.075807134320437E-003
 Anneal: Velocity scale factor =    1.08255888270547     
 Anneal: Cell scale factor =    1.00151156899392     

siesta: Temp_ion =     132.713 K

* Maximum dynamic memory allocated =     5 MB

siesta:                 ==============================
                            Begin MD step =     18
                        ==============================

siesta: k-grid: Number of k-points =     4
siesta: k-grid: Cutoff (effective) =     3.494 Ang
siesta: k-grid: Supercell and displacements
siesta: k-grid:    2   0   0      0.500
siesta: k-grid:    0   2   0      0.500
siesta: k-grid:    0   0   2      0.500
Naive supercell factors:     5    5    5

superc: Internal auxiliary supercell:     5 x     5 x     5  =     125
superc: Number of atoms, orbitals, and projectors:    250  1000  2250

outcell: Unit cell vectors (Ang):
        2.483292    2.533593    0.000000
        0.000000    2.476612    2.575401
        2.462293    0.000000    2.481482

outcell: Cell vector modules (Ang)   :    3.547651    3.572995    3.495803
outcell: Cell angles (23,13,12) (deg):     59.2259     60.4596     60.3290
outcell: Cell volume (Ang**3)        :     31.3280

InitMesh: MESH =    18 x    18 x    18 =        5832
InitMesh: Mesh cutoff (required, used) =   100.000   105.080 Ry

siesta: Eharris(eV) =    -212.569834


siesta: Eharris(eV) =    -212.569834


siesta: Atomic forces (eV/Ang):
----------------------------------------
   Tot    0.010561   -0.001290   -0.016915
----------------------------------------
   Max    1.048253
   Res    0.829891    sqrt( Sum f_i^2 / 3N )
----------------------------------------
   Max    1.048253    constrained

Stress-tensor-Voigt (kbar):     -459.92     -449.44     -447.33      111.31       63.74      183.05
Target enthalpy (eV/cell)     -204.7176

siesta: Stress tensor (static) (eV/Ang**3):
        -0.286942    0.069389    0.114452
         0.069389   -0.280457    0.039634
         0.114452    0.039634   -0.278820

siesta: Pressure (static):        451.93579206  kBar

siesta: Stress tensor (total) (eV/Ang**3):
        -0.287054    0.069471    0.114248
         0.069471   -0.280518    0.039785
         0.114248    0.039785   -0.279196

siesta: Pressure (total):        452.22852042  kBar
 Anneal: Kinetic Energy=   1.122194311539182E-003
 Anneal: Velocity scale factor =    1.07850508239392     
 Anneal: Cell scale factor =    1.00192730036160     

siesta: Temp_ion =     137.401 K

* Maximum dynamic memory allocated =     5 MB

siesta:                 ==============================
                            Begin MD step =     19
                        ==============================

siesta: k-grid: Number of k-points =     4
siesta: k-grid: Cutoff (effective) =     3.484 Ang
siesta: k-grid: Supercell and displacements
siesta: k-grid:    2   0   0      0.500
siesta: k-grid:    0   2   0      0.500
siesta: k-grid:    0   0   2      0.500
Naive supercell factors:     5    5    5

superc: Internal auxiliary supercell:     5 x     5 x     5  =     125
superc: Number of atoms, orbitals, and projectors:    250  1000  2250

outcell: Unit cell vectors (Ang):
        2.489240    2.522286    0.000000
        0.000000    2.481505    2.568812
        2.444222    0.000000    2.486264

outcell: Cell vector modules (Ang)   :    3.543761    3.571647    3.486507
outcell: Cell angles (23,13,12) (deg):     59.1438     60.4990     60.3624
outcell: Cell volume (Ang**3)        :     31.1946

InitMesh: MESH =    18 x    18 x    18 =        5832
InitMesh: Mesh cutoff (required, used) =   100.000   105.158 Ry

siesta: Eharris(eV) =    -212.530819


siesta: Eharris(eV) =    -212.530819


siesta: Atomic forces (eV/Ang):
----------------------------------------
   Tot    0.024313    0.012817   -0.010943
----------------------------------------
   Max    1.039695
   Res    0.813124    sqrt( Sum f_i^2 / 3N )
----------------------------------------
   Max    1.039695    constrained

Stress-tensor-Voigt (kbar):     -470.37     -461.62     -456.66      108.63       64.96      180.27
Target enthalpy (eV/cell)     -204.7126

siesta: Stress tensor (static) (eV/Ang**3):
        -0.293505    0.067752    0.112698
         0.067752   -0.288089    0.040426
         0.112698    0.040426   -0.284555

siesta: Pressure (static):        462.57943407  kBar

siesta: Stress tensor (total) (eV/Ang**3):
        -0.293576    0.067799    0.112516
         0.067799   -0.288120    0.040547
         0.112516    0.040547   -0.285022

siesta: Pressure (total):        462.88357165  kBar
 Anneal: Kinetic Energy=   1.205984381628443E-003
 Anneal: Velocity scale factor =    1.07194077658103     
 Anneal: Cell scale factor =    1.00230607468875     

siesta: Temp_ion =     145.868 K

* Maximum dynamic memory allocated =     5 MB

siesta:                 ==============================
                            Begin MD step =     20
                        ==============================

siesta: k-grid: Number of k-points =     4
siesta: k-grid: Cutoff (effective) =     3.476 Ang
siesta: k-grid: Supercell and displacements
siesta: k-grid:    2   0   0      0.500
siesta: k-grid:    0   2   0      0.500
siesta: k-grid:    0   0   2      0.500
Naive supercell factors:     5    5    5

superc: Internal auxiliary supercell:     5 x     5 x     5  =     125
superc: Number of atoms, orbitals, and projectors:    250  1000  2250

outcell: Unit cell vectors (Ang):
        2.496235    2.511305    0.000000
        0.000000    2.487612    2.562125
        2.426547    0.000000    2.491998

outcell: Cell vector modules (Ang)   :    3.540881    3.571092    3.478244
outcell: Cell angles (23,13,12) (deg):     59.0675     60.5400     60.3930
outcell: Cell volume (Ang**3)        :     31.0875

InitMesh: MESH =    18 x    18 x    18 =        5832
InitMesh: Mesh cutoff (required, used) =   100.000   105.182 Ry

siesta: Eharris(eV) =    -212.499185


siesta: Eharris(eV) =    -212.499185


siesta: Atomic forces (eV/Ang):
----------------------------------------
   Tot    0.028046    0.008233   -0.016830
----------------------------------------
   Max    1.008348
   Res    0.796653    sqrt( Sum f_i^2 / 3N )
----------------------------------------
   Max    1.008348    constrained

Stress-tensor-Voigt (kbar):     -478.29     -470.53     -462.46      104.03       66.10      177.91
Target enthalpy (eV/cell)     -204.7084

siesta: Stress tensor (static) (eV/Ang**3):
        -0.298488    0.064911    0.111184
         0.064911   -0.293668    0.041180
         0.111184    0.041180   -0.288079

siesta: Pressure (static):        470.10221838  kBar

siesta: Stress tensor (total) (eV/Ang**3):
        -0.298522    0.064930    0.111044
         0.064930   -0.293678    0.041256
         0.111044    0.041256   -0.288640

siesta: Pressure (total):        470.42544154  kBar
 Anneal: Kinetic Energy=   1.319963261299982E-003
 Anneal: Velocity scale factor =    1.06429880514363     
 Anneal: Cell scale factor =    1.00254202503207     

siesta: Temp_ion =     157.386 K

* Maximum dynamic memory allocated =     5 MB

siesta:                 ==============================
                            Begin MD step =     21
                        ==============================

siesta: k-grid: Number of k-points =     4
siesta: k-grid: Cutoff (effective) =     3.469 Ang
siesta: k-grid: Supercell and displacements
siesta: k-grid:    2   0   0      0.500
siesta: k-grid:    0   2   0      0.500
siesta: k-grid:    0   0   2      0.500
Naive supercell factors:     5    5    6

superc: Internal auxiliary supercell:     5 x     5 x     6  =     150
superc: Number of atoms, orbitals, and projectors:    300  1200  2700

outcell: Unit cell vectors (Ang):
        2.504037    2.500835    0.000000
        0.000000    2.494619    2.555351
        2.409216    0.000000    2.498332

outcell: Cell vector modules (Ang)   :    3.538980    3.571126    3.470733
outcell: Cell angles (23,13,12) (deg):     58.9972     60.5836     60.4202
outcell: Cell volume (Ang**3)        :     31.0023

InitMesh: MESH =    18 x    18 x    18 =        5832
InitMesh: Mesh cutoff (required, used) =   100.000   105.152 Ry

siesta: Eharris(eV) =    -212.473954


siesta: Eharris(eV) =    -212.473954


siesta: Atomic forces (eV/Ang):
----------------------------------------
   Tot    0.006288    0.017166   -0.017049
----------------------------------------
   Max    0.944524
   Res    0.772328    sqrt( Sum f_i^2 / 3N )
----------------------------------------
   Max    0.944524    constrained

Stress-tensor-Voigt (kbar):     -487.75     -478.72     -467.45      100.44       68.60      172.28
Target enthalpy (eV/cell)     -204.7050

siesta: Stress tensor (static) (eV/Ang**3):
        -0.304416    0.062685    0.107601
         0.062685   -0.298791    0.042800
         0.107601    0.042800   -0.291116

siesta: Pressure (static):        477.62606217  kBar

siesta: Stress tensor (total) (eV/Ang**3):
        -0.304425    0.062686    0.107525
         0.062686   -0.298791    0.042815
         0.107525    0.042815   -0.291759

siesta: Pressure (total):        477.97447062  kBar
 Anneal: Kinetic Energy=   1.454372455961274E-003
 Anneal: Velocity scale factor =    1.05677269279252     
 Anneal: Cell scale factor =    1.00274374895504     

siesta: Temp_ion =     170.968 K

* Maximum dynamic memory allocated =     5 MB

siesta:                 ==============================
                            Begin MD step =     22
                        ==============================

siesta: k-grid: Number of k-points =     4
siesta: k-grid: Cutoff (effective) =     3.462 Ang
siesta: k-grid: Supercell and displacements
siesta: k-grid:    2   0   0      0.500
siesta: k-grid:    0   2   0      0.500
siesta: k-grid:    0   0   2      0.500
Naive supercell factors:     5    5    6

superc: Internal auxiliary supercell:     5 x     5 x     6  =     150
superc: Number of atoms, orbitals, and projectors:    300  1200  2700

outcell: Unit cell vectors (Ang):
        2.512809    2.490768    0.000000
        0.000000    2.502463    2.548354
        2.392540    0.000000    2.505187

outcell: Cell vector modules (Ang)   :    3.538098    3.571614    3.464132
outcell: Cell angles (23,13,12) (deg):     58.9364     60.6254     60.4456
outcell: Cell volume (Ang**3)        :     30.9395

InitMesh: MESH =    18 x    18 x    18 =        5832
InitMesh: Mesh cutoff (required, used) =   100.000   105.073 Ry

siesta: Eharris(eV) =    -212.455273


siesta: Eharris(eV) =    -212.455273


siesta: Atomic forces (eV/Ang):
----------------------------------------
   Tot   -0.001690    0.036257   -0.021199
----------------------------------------
   Max    0.873609
   Res    0.748244    sqrt( Sum f_i^2 / 3N )
----------------------------------------
   Max    0.873609    constrained

Stress-tensor-Voigt (kbar):     -495.06     -484.15     -468.84       96.44       71.29      166.10
Target enthalpy (eV/cell)     -204.7025

siesta: Stress tensor (static) (eV/Ang**3):
        -0.308987    0.060192    0.103667
         0.060192   -0.302174    0.044552
         0.103667    0.044552   -0.291921

siesta: Pressure (static):        482.30403281  kBar

siesta: Stress tensor (total) (eV/Ang**3):
        -0.308987    0.060192    0.103672
         0.060192   -0.302178    0.044497
         0.103672    0.044497   -0.292624

siesta: Pressure (total):        482.68176583  kBar
 Anneal: Kinetic Energy=   1.599116175835043E-003
 Anneal: Velocity scale factor =    1.05003745113563     
 Anneal: Cell scale factor =    1.00279868376036     

siesta: Temp_ion =     185.595 K

* Maximum dynamic memory allocated =     5 MB

siesta:                 ==============================
                            Begin MD step =     23
                        ==============================

siesta: k-grid: Number of k-points =     4
siesta: k-grid: Cutoff (effective) =     3.457 Ang
siesta: k-grid: Supercell and displacements
siesta: k-grid:    2   0   0      0.500
siesta: k-grid:    0   2   0      0.500
siesta: k-grid:    0   0   2      0.500
Naive supercell factors:     5    5    6

superc: Internal auxiliary supercell:     5 x     5 x     6  =     150
superc: Number of atoms, orbitals, and projectors:    300  1200  2700

outcell: Unit cell vectors (Ang):
        2.522350    2.481135    0.000000
        0.000000    2.510880    2.541113
        2.376560    0.000000    2.512198

outcell: Cell vector modules (Ang)   :    3.538118    3.572362    3.458204
outcell: Cell angles (23,13,12) (deg):     58.8862     60.6642     60.4694
outcell: Cell volume (Ang**3)        :     30.8944

InitMesh: MESH =    18 x    18 x    18 =        5832
InitMesh: Mesh cutoff (required, used) =   100.000   104.952 Ry

siesta: Eharris(eV) =    -212.441894


siesta: Eharris(eV) =    -212.441894


siesta: Atomic forces (eV/Ang):
----------------------------------------
   Tot    0.002958    0.043652   -0.014542
----------------------------------------
   Max    0.854862
   Res    0.736615    sqrt( Sum f_i^2 / 3N )
----------------------------------------
   Max    0.854862    constrained

Stress-tensor-Voigt (kbar):     -498.14     -487.95     -467.19       91.34       74.23      159.77
Target enthalpy (eV/cell)     -204.7008

siesta: Stress tensor (static) (eV/Ang**3):
        -0.310900    0.056991    0.099627
         0.056991   -0.304530    0.046456
         0.099627    0.046456   -0.290862

siesta: Pressure (static):        484.01886264  kBar

siesta: Stress tensor (total) (eV/Ang**3):
        -0.310912    0.057007    0.099720
         0.057007   -0.304553    0.046328
         0.099720    0.046328   -0.291593

siesta: Pressure (total):        484.42748276  kBar
 Anneal: Kinetic Energy=   1.740065631982163E-003
 Anneal: Velocity scale factor =    1.04452354641393     
 Anneal: Cell scale factor =    1.00272973630634     

siesta: Temp_ion =     199.838 K

* Maximum dynamic memory allocated =     5 MB

siesta:                 ==============================
                            Begin MD step =     24
                        ==============================

siesta: k-grid: Number of k-points =     4
siesta: k-grid: Cutoff (effective) =     3.453 Ang
siesta: k-grid: Supercell and displacements
siesta: k-grid:    2   0   0      0.500
siesta: k-grid:    0   2   0      0.500
siesta: k-grid:    0   0   2      0.500
Naive supercell factors:     5    5    6

superc: Internal auxiliary supercell:     5 x     5 x     6  =     150
superc: Number of atoms, orbitals, and projectors:    300  1200  2700

outcell: Unit cell vectors (Ang):
        2.532248    2.472038    0.000000
        0.000000    2.519714    2.533604
        2.361278    0.000000    2.519056

outcell: Cell vector modules (Ang)   :    3.538821    3.573249    3.452720
outcell: Cell angles (23,13,12) (deg):     58.8479     60.7011     60.4891
outcell: Cell volume (Ang**3)        :     30.8620

InitMesh: MESH =    18 x    18 x    18 =        5832
InitMesh: Mesh cutoff (required, used) =   100.000   104.807 Ry

siesta: Eharris(eV) =    -212.432188


siesta: Eharris(eV) =    -212.432188


siesta: Atomic forces (eV/Ang):
----------------------------------------
   Tot    0.000809    0.050475   -0.019385
----------------------------------------
   Max    0.974726
   Res    0.728605    sqrt( Sum f_i^2 / 3N )
----------------------------------------
   Max    0.974726    constrained

Stress-tensor-Voigt (kbar):     -502.63     -491.74     -467.42       86.46       78.80      151.52
Target enthalpy (eV/cell)     -204.6995

siesta: Stress tensor (static) (eV/Ang**3):
        -0.313671    0.053918    0.094390
         0.053918   -0.306868    0.049375
         0.094390    0.049375   -0.291019

siesta: Pressure (static):        486.83048917  kBar

siesta: Stress tensor (total) (eV/Ang**3):
        -0.313717    0.053966    0.094572
         0.053966   -0.306920    0.049181
         0.094572    0.049181   -0.291740

siesta: Pressure (total):        487.26799761  kBar
 Anneal: Kinetic Energy=   1.864947496460525E-003
 Anneal: Velocity scale factor =    1.04031502819032     
 Anneal: Cell scale factor =    1.00273369132339     

siesta: Temp_ion =     212.458 K

* Maximum dynamic memory allocated =     5 MB

siesta:                 ==============================
                            Begin MD step =     25
                        ==============================

siesta: k-grid: Number of k-points =     4
siesta: k-grid: Cutoff (effective) =     3.448 Ang
siesta: k-grid: Supercell and displacements
siesta: k-grid:    2   0   0      0.500
siesta: k-grid:    0   2   0      0.500
siesta: k-grid:    0   0   2      0.500
Naive supercell factors:     5    5    6

superc: Internal auxiliary supercell:     5 x     5 x     6  =     150
superc: Number of atoms, orbitals, and projectors:    300  1200  2700

outcell: Unit cell vectors (Ang):
        2.542651    2.463448    0.000000
        0.000000    2.528969    2.525660
        2.346867    0.000000    2.525942

outcell: Cell vector modules (Ang)   :    3.540289    3.574163    3.447923
outcell: Cell angles (23,13,12) (deg):     58.8228     60.7347     60.5049
outcell: Cell volume (Ang**3)        :     30.8443

InitMesh: MESH =    18 x    18 x    18 =        5832
InitMesh: Mesh cutoff (required, used) =   100.000   104.634 Ry

siesta: Eharris(eV) =    -212.426592


siesta: Eharris(eV) =    -212.426592


siesta: Atomic forces (eV/Ang):
----------------------------------------
   Tot   -0.001763    0.055793   -0.021861
----------------------------------------
   Max    1.087780
   Res    0.734766    sqrt( Sum f_i^2 / 3N )
----------------------------------------
   Max    1.087780    constrained

Stress-tensor-Voigt (kbar):     -506.60     -493.57     -467.64       81.14       84.16      142.85
Target enthalpy (eV/cell)     -204.6986

siesta: Stress tensor (static) (eV/Ang**3):
        -0.316092    0.050549    0.088897
         0.050549   -0.307972    0.052776
         0.088897    0.052776   -0.291201

siesta: Pressure (static):        488.81051901  kBar

siesta: Stress tensor (total) (eV/Ang**3):
        -0.316191    0.050643    0.089156
         0.050643   -0.308061    0.052531
         0.089156    0.052531   -0.291877

siesta: Pressure (total):        489.27214695  kBar
 Anneal: Kinetic Energy=   1.968141825134404E-003
 Anneal: Velocity scale factor =    1.03722958907250     
 Anneal: Cell scale factor =    1.00273522270638     

siesta: Temp_ion =     222.886 K

* Maximum dynamic memory allocated =     5 MB

siesta:                 ==============================
                            Begin MD step =     26
                        ==============================

siesta: k-grid: Number of k-points =     4
siesta: k-grid: Cutoff (effective) =     3.444 Ang
siesta: k-grid: Supercell and displacements
siesta: k-grid:    2   0   0      0.500
siesta: k-grid:    0   2   0      0.500
siesta: k-grid:    0   0   2      0.500
Naive supercell factors:     5    5    6

superc: Internal auxiliary supercell:     5 x     5 x     6  =     150
superc: Number of atoms, orbitals, and projectors:    300  1200  2700

outcell: Unit cell vectors (Ang):
        2.553514    2.455401    0.000000
        0.000000    2.538451    2.517199
        2.333357    0.000000    2.532851

outcell: Cell vector modules (Ang)   :    3.542517    3.574916    3.443819
outcell: Cell angles (23,13,12) (deg):     58.8105     60.7652     60.5168
outcell: Cell volume (Ang**3)        :     30.8397

InitMesh: MESH =    18 x    18 x    18 =        5832
InitMesh: Mesh cutoff (required, used) =   100.000   104.433 Ry

siesta: Eharris(eV) =    -212.424707


siesta: Eharris(eV) =    -212.424707


siesta: Atomic forces (eV/Ang):
----------------------------------------
   Tot   -0.000387    0.058066   -0.029698
----------------------------------------
   Max    1.194626
   Res    0.747635    sqrt( Sum f_i^2 / 3N )
----------------------------------------
   Max    1.194626    constrained

Stress-tensor-Voigt (kbar):     -508.06     -494.06     -466.02       76.52       91.16      133.18
Target enthalpy (eV/cell)     -204.6980

siesta: Stress tensor (static) (eV/Ang**3):
        -0.316929    0.047613    0.082806
         0.047613   -0.308236    0.057179
         0.082806    0.057179   -0.290267

siesta: Pressure (static):        488.89953325  kBar

siesta: Stress tensor (total) (eV/Ang**3):
        -0.317100    0.047762    0.083126
         0.047762   -0.308366    0.056900
         0.083126    0.056900   -0.290864

siesta: Pressure (total):        489.37937663  kBar
 Anneal: Kinetic Energy=   2.047570696027629E-003
 Anneal: Velocity scale factor =    1.03506105156465     
 Anneal: Cell scale factor =    1.00266231114305     

siesta: Temp_ion =     230.913 K

* Maximum dynamic memory allocated =     5 MB

siesta:                 ==============================
                            Begin MD step =     27
                        ==============================

siesta: k-grid: Number of k-points =     4
siesta: k-grid: Cutoff (effective) =     3.440 Ang
siesta: k-grid: Supercell and displacements
siesta: k-grid:    2   0   0      0.500
siesta: k-grid:    0   2   0      0.500
siesta: k-grid:    0   0   2      0.500
Naive supercell factors:     5    5    6

superc: Internal auxiliary supercell:     5 x     5 x     6  =     150
superc: Number of atoms, orbitals, and projectors:    300  1200  2700

outcell: Unit cell vectors (Ang):
        2.564589    2.447824    0.000000
        0.000000    2.548027    2.508059
        2.320830    0.000000    2.539595

outcell: Cell vector modules (Ang)   :    3.545273    3.575304    3.440319
outcell: Cell angles (23,13,12) (deg):     58.8129     60.7913     60.5237
outcell: Cell volume (Ang**3)        :     30.8436

InitMesh: MESH =    18 x    18 x    18 =        5832
InitMesh: Mesh cutoff (required, used) =   100.000   104.222 Ry

siesta: Eharris(eV) =    -212.425140


siesta: Eharris(eV) =    -212.425140


siesta: Atomic forces (eV/Ang):
----------------------------------------
   Tot    0.006237    0.056113   -0.015746
----------------------------------------
   Max    1.284269
   Res    0.773613    sqrt( Sum f_i^2 / 3N )
----------------------------------------
   Max    1.284269    constrained

Stress-tensor-Voigt (kbar):     -509.75     -494.94     -465.04       71.18       97.08      124.67
Target enthalpy (eV/cell)     -204.6975

siesta: Stress tensor (static) (eV/Ang**3):
        -0.317905    0.044219    0.077453
         0.044219   -0.308744    0.060883
         0.077453    0.060883   -0.289754

siesta: Pressure (static):        489.41811398  kBar

siesta: Stress tensor (total) (eV/Ang**3):
        -0.318160    0.044427    0.077809
         0.044427   -0.308913    0.060593
         0.077809    0.060593   -0.290250

siesta: Pressure (total):        489.90997022  kBar
 Anneal: Kinetic Energy=   2.104323111919925E-003
 Anneal: Velocity scale factor =    1.03360935371760     
 Anneal: Cell scale factor =    1.00261455791378     

siesta: Temp_ion =     236.648 K

* Maximum dynamic memory allocated =     5 MB

siesta:                 ==============================
                            Begin MD step =     28
                        ==============================

siesta: k-grid: Number of k-points =     4
siesta: k-grid: Cutoff (effective) =     3.437 Ang
siesta: k-grid: Supercell and displacements
siesta: k-grid:    2   0   0      0.500
siesta: k-grid:    0   2   0      0.500
siesta: k-grid:    0   0   2      0.500
Naive supercell factors:     5    5    6

superc: Internal auxiliary supercell:     5 x     5 x     6  =     150
superc: Number of atoms, orbitals, and projectors:    300  1200  2700

outcell: Unit cell vectors (Ang):
        2.575904    2.440782    0.000000
        0.000000    2.557735    2.498350
        2.309169    0.000000    2.546235

outcell: Cell vector modules (Ang)   :    3.548620    3.575439    3.437379
outcell: Cell angles (23,13,12) (deg):     58.8285     60.8145     60.5256
outcell: Cell volume (Ang**3)        :     30.8570

InitMesh: MESH =    18 x    18 x    18 =        5832
InitMesh: Mesh cutoff (required, used) =   100.000   103.996 Ry

siesta: Eharris(eV) =    -212.428441


siesta: Eharris(eV) =    -212.428441


siesta: Atomic forces (eV/Ang):
----------------------------------------
   Tot   -0.000778    0.043140   -0.011752
----------------------------------------
   Max    1.349464
   Res    0.795688    sqrt( Sum f_i^2 / 3N )
----------------------------------------
   Max    1.349464    constrained

Stress-tensor-Voigt (kbar):     -510.31     -493.82     -463.01       67.90      104.04      117.09
Target enthalpy (eV/cell)     -204.6974

siesta: Stress tensor (static) (eV/Ang**3):
        -0.318159    0.042113    0.072719
         0.042113   -0.308009    0.065215
         0.072719    0.065215   -0.288603

siesta: Pressure (static):        488.54658582  kBar

siesta: Stress tensor (total) (eV/Ang**3):
        -0.318508    0.042379    0.073083
         0.042379   -0.308212    0.064937
         0.073083    0.064937   -0.288983

siesta: Pressure (total):        489.04455074  kBar
 Anneal: Kinetic Energy=   2.147885611421772E-003
 Anneal: Velocity scale factor =    1.03254579665102     
 Anneal: Cell scale factor =    1.00252576306756     

siesta: Temp_ion =     241.050 K

* Maximum dynamic memory allocated =     5 MB

siesta:                 ==============================
                            Begin MD step =     29
                        ==============================

siesta: k-grid: Number of k-points =     4
siesta: k-grid: Cutoff (effective) =     3.435 Ang
siesta: k-grid: Supercell and displacements
siesta: k-grid:    2   0   0      0.500
siesta: k-grid:    0   2   0      0.500
siesta: k-grid:    0   0   2      0.500
Naive supercell factors:     5    5    6

superc: Internal auxiliary supercell:     5 x     5 x     6  =     150
superc: Number of atoms, orbitals, and projectors:    300  1200  2700

outcell: Unit cell vectors (Ang):
        2.587345    2.434073    0.000000
        0.000000    2.567372    2.487972
        2.298278    0.000000    2.552666

outcell: Cell vector modules (Ang)   :    3.552332    3.575108    3.434849
outcell: Cell angles (23,13,12) (deg):     58.8567     60.8338     60.5238
outcell: Cell volume (Ang**3)        :     30.8747

InitMesh: MESH =    18 x    18 x    18 =        5832
InitMesh: Mesh cutoff (required, used) =   100.000   103.766 Ry

siesta: Eharris(eV) =    -212.433273


siesta: Eharris(eV) =    -212.433273


siesta: Atomic forces (eV/Ang):
----------------------------------------
   Tot    0.007632    0.043416   -0.009514
----------------------------------------
   Max    1.397389
   Res    0.820040    sqrt( Sum f_i^2 / 3N )
----------------------------------------
   Max    1.397389    constrained

Stress-tensor-Voigt (kbar):     -511.05     -492.16     -461.23       64.69      111.33      108.49
Target enthalpy (eV/cell)     -204.6978

siesta: Stress tensor (static) (eV/Ang**3):
        -0.318523    0.040056    0.067373
         0.040056   -0.306948    0.069730
         0.067373    0.069730   -0.287610

siesta: Pressure (static):        487.64444791  kBar

siesta: Stress tensor (total) (eV/Ang**3):
        -0.318968    0.040376    0.067715
         0.040376   -0.307177    0.069484
         0.067715    0.069484   -0.287873

siesta: Pressure (total):        488.14483723  kBar
 Anneal: Kinetic Energy=   2.189782801090717E-003
 Anneal: Velocity scale factor =    1.03156184247429     
 Anneal: Cell scale factor =    1.00244850216947     

siesta: Temp_ion =     245.283 K

* Maximum dynamic memory allocated =     5 MB

siesta:                 ==============================
                            Begin MD step =     30
                        ==============================

siesta: k-grid: Number of k-points =     4
siesta: k-grid: Cutoff (effective) =     3.433 Ang
siesta: k-grid: Supercell and displacements
siesta: k-grid:    2   0   0      0.500
siesta: k-grid:    0   2   0      0.500
siesta: k-grid:    0   0   2      0.500
Naive supercell factors:     5    5    6

superc: Internal auxiliary supercell:     5 x     5 x     6  =     150
superc: Number of atoms, orbitals, and projectors:    300  1200  2700

outcell: Unit cell vectors (Ang):
        2.598930    2.427686    0.000000
        0.000000    2.576878    2.476896
        2.288246    0.000000    2.558916

outcell: Cell vector modules (Ang)   :    3.556417    3.574257    3.432801
outcell: Cell angles (23,13,12) (deg):     58.8975     60.8485     60.5187
outcell: Cell volume (Ang**3)        :     30.8969

InitMesh: MESH =    18 x    18 x    18 =        5832
InitMesh: Mesh cutoff (required, used) =   100.000   103.534 Ry

siesta: Eharris(eV) =    -212.439879


siesta: Eharris(eV) =    -212.439879


siesta: Atomic forces (eV/Ang):
----------------------------------------
   Tot    0.004370    0.042970   -0.001924
----------------------------------------
   Max    1.416767
   Res    0.838879    sqrt( Sum f_i^2 / 3N )
----------------------------------------
   Max    1.416767    constrained

Stress-tensor-Voigt (kbar):     -509.61     -490.95     -460.29       63.13      118.70       99.96
Target enthalpy (eV/cell)     -204.6987

siesta: Stress tensor (static) (eV/Ang**3):
        -0.317527    0.039037    0.062098
         0.039037   -0.306181    0.074281
         0.062098    0.074281   -0.287133

siesta: Pressure (static):        486.44770918  kBar

siesta: Stress tensor (total) (eV/Ang**3):
        -0.318067    0.039401    0.062387
         0.039401   -0.306426    0.074086
         0.062387    0.074086   -0.287288

siesta: Pressure (total):        486.94995300  kBar
 Anneal: Kinetic Energy=   2.241209214030497E-003
 Anneal: Velocity scale factor =    1.03040318248674     
 Anneal: Cell scale factor =    1.00240709324132     

siesta: Temp_ion =     250.480 K

* Maximum dynamic memory allocated =     5 MB

siesta:                 ==============================
                            Begin MD step =     31
                        ==============================

siesta: k-grid: Number of k-points =     4
siesta: k-grid: Cutoff (effective) =     3.431 Ang
siesta: k-grid: Supercell and displacements
siesta: k-grid:    2   0   0      0.500
siesta: k-grid:    0   2   0      0.500
siesta: k-grid:    0   0   2      0.500
Naive supercell factors:     5    5    6

superc: Internal auxiliary supercell:     5 x     5 x     6  =     150
superc: Number of atoms, orbitals, and projectors:    300  1200  2700

outcell: Unit cell vectors (Ang):
        2.610434    2.421463    0.000000
        0.000000    2.586298    2.465121
        2.279060    0.000000    2.565076

outcell: Cell vector modules (Ang)   :    3.560597    3.572920    3.431287
[...]
         0.031386    0.048471   -0.265536

siesta: Pressure (static):        406.88070464  kBar

siesta: Stress tensor (total) (eV/Ang**3):
        -0.254693    0.023904    0.031283
         0.023904   -0.243447    0.048286
         0.031283    0.048286   -0.265561

siesta: Pressure (total):        407.86563060  kBar
 Anneal: Kinetic Energy=   6.000340798012976E-003
 Anneal: Velocity scale factor =   0.998998404572108     
 Anneal: Cell scale factor =    1.00115561466840     

siesta: Temp_ion =     630.351 K

* Maximum dynamic memory allocated =     5 MB

siesta:                 ==============================
                            Begin MD step =     95
                        ==============================

siesta: k-grid: Number of k-points =     4
siesta: k-grid: Cutoff (effective) =     3.412 Ang
siesta: k-grid: Supercell and displacements
siesta: k-grid:    2   0   0      0.500
siesta: k-grid:    0   2   0      0.500
siesta: k-grid:    0   0   2      0.500
Naive supercell factors:     5    6    6

superc: Internal auxiliary supercell:     5 x     6 x     6  =     180
superc: Number of atoms, orbitals, and projectors:    360  1440  3240

outcell: Unit cell vectors (Ang):
        2.989667    1.827898    0.000000
        0.000000    2.942336    1.846658
        1.791217    0.000000    2.904332

outcell: Cell vector modules (Ang)   :    3.504186    3.473829    3.412272
outcell: Cell angles (23,13,12) (deg):     63.0984     63.3937     63.7797
outcell: Cell volume (Ang**3)        :     31.5945

InitMesh: MESH =    18 x    18 x    18 =        5832
InitMesh: Mesh cutoff (required, used) =   100.000   100.241 Ry

siesta: Eharris(eV) =    -212.991417


siesta: Eharris(eV) =    -212.991417


siesta: Atomic forces (eV/Ang):
----------------------------------------
   Tot   -0.005148    0.021575   -0.003726
----------------------------------------
   Max    0.550794
   Res    0.418756    sqrt( Sum f_i^2 / 3N )
----------------------------------------
   Max    0.550794    constrained

Stress-tensor-Voigt (kbar):     -405.94     -392.62     -425.62       43.84       80.71       52.17
Target enthalpy (eV/cell)     -205.0589

siesta: Stress tensor (static) (eV/Ang**3):
        -0.252947    0.028163    0.032703
         0.028163   -0.243513    0.050645
         0.032703    0.050645   -0.265604

siesta: Pressure (static):        406.99136034  kBar

siesta: Stress tensor (total) (eV/Ang**3):
        -0.253364    0.027363    0.032562
         0.027363   -0.245049    0.050375
         0.032562    0.050375   -0.265651

siesta: Pressure (total):        408.05922798  kBar
 Anneal: Kinetic Energy=   6.217815957193365E-003
 Anneal: Velocity scale factor =   0.998333008465457     
 Anneal: Cell scale factor =    1.00117145934982     

siesta: Temp_ion =     652.327 K

* Maximum dynamic memory allocated =     5 MB

siesta:                 ==============================
                            Begin MD step =     96
                        ==============================

siesta: k-grid: Number of k-points =     4
siesta: k-grid: Cutoff (effective) =     3.413 Ang
siesta: k-grid: Supercell and displacements
siesta: k-grid:    2   0   0      0.500
siesta: k-grid:    0   2   0      0.500
siesta: k-grid:    0   0   2      0.500
Naive supercell factors:     5    6    6

superc: Internal auxiliary supercell:     5 x     6 x     6  =     180
superc: Number of atoms, orbitals, and projectors:    360  1440  3240

outcell: Unit cell vectors (Ang):
        2.990419    1.824645    0.000000
        0.000000    2.941623    1.840550
        1.787562    0.000000    2.907734

outcell: Cell vector modules (Ang)   :    3.503132    3.469981    3.413253
outcell: Cell angles (23,13,12) (deg):     63.1367     63.4446     63.7971
outcell: Cell volume (Ang**3)        :     31.5817

InitMesh: MESH =    18 x    18 x    18 =        5832
InitMesh: Mesh cutoff (required, used) =   100.000   100.226 Ry

siesta: Eharris(eV) =    -212.993869


siesta: Eharris(eV) =    -212.993869


siesta: Atomic forces (eV/Ang):
----------------------------------------
   Tot   -0.002421    0.008761   -0.010697
----------------------------------------
   Max    0.497425
   Res    0.362658    sqrt( Sum f_i^2 / 3N )
----------------------------------------
   Max    0.497425    constrained

Stress-tensor-Voigt (kbar):     -403.03     -395.00     -425.24       49.76       82.05       54.48
Target enthalpy (eV/cell)     -205.0641

siesta: Stress tensor (static) (eV/Ang**3):
        -0.251151    0.031873    0.034170
         0.031873   -0.244864    0.051560
         0.034170    0.051560   -0.265340

siesta: Pressure (static):        406.61263488  kBar

siesta: Stress tensor (total) (eV/Ang**3):
        -0.251547    0.031058    0.034002
         0.031058   -0.246539    0.051214
         0.034002    0.051214   -0.265411

siesta: Pressure (total):        407.75705478  kBar
 Anneal: Kinetic Energy=   6.382181184554382E-003
 Anneal: Velocity scale factor =   0.997859928072445     
 Anneal: Cell scale factor =    1.00116371824155     

siesta: Temp_ion =     668.937 K

* Maximum dynamic memory allocated =     5 MB

siesta:                 ==============================
                            Begin MD step =     97
                        ==============================

siesta: k-grid: Number of k-points =     4
siesta: k-grid: Cutoff (effective) =     3.414 Ang
siesta: k-grid: Supercell and displacements
siesta: k-grid:    2   0   0      0.500
siesta: k-grid:    0   2   0      0.500
siesta: k-grid:    0   0   2      0.500
Naive supercell factors:     5    6    6

superc: Internal auxiliary supercell:     5 x     6 x     6  =     180
superc: Number of atoms, orbitals, and projectors:    360  1440  3240

outcell: Unit cell vectors (Ang):
        2.990818    1.820969    0.000000
        0.000000    2.941171    1.834367
        1.783748    0.000000    2.911118

outcell: Cell vector modules (Ang)   :    3.501560    3.466322    3.414142
outcell: Cell angles (23,13,12) (deg):     63.1775     63.4965     63.8158
outcell: Cell volume (Ang**3)        :     31.5660

InitMesh: MESH =    18 x    18 x    18 =        5832
InitMesh: Mesh cutoff (required, used) =   100.000   100.239 Ry

siesta: Eharris(eV) =    -212.995053


siesta: Eharris(eV) =    -212.995053


siesta: Atomic forces (eV/Ang):
----------------------------------------
   Tot    0.006345   -0.006128   -0.009241
----------------------------------------
   Max    0.434859
   Res    0.311224    sqrt( Sum f_i^2 / 3N )
----------------------------------------
   Max    0.434859    constrained

Stress-tensor-Voigt (kbar):     -400.73     -396.47     -426.59       54.98       83.97       57.40
Target enthalpy (eV/cell)     -205.0687

siesta: Stress tensor (static) (eV/Ang**3):
        -0.249740    0.035135    0.036014
         0.035135   -0.245654    0.052818
         0.036014    0.052818   -0.266160

siesta: Pressure (static):        406.71918741  kBar

siesta: Stress tensor (total) (eV/Ang**3):
        -0.250113    0.034315    0.035828
         0.034315   -0.247458    0.052408
         0.035828    0.052408   -0.266252

siesta: Pressure (total):        407.93073232  kBar
 Anneal: Kinetic Energy=   6.487026084959896E-003
 Anneal: Velocity scale factor =   0.997570573438070     
 Anneal: Cell scale factor =    1.00122273861713     

siesta: Temp_ion =     679.532 K

* Maximum dynamic memory allocated =     5 MB

siesta:                 ==============================
                            Begin MD step =     98
                        ==============================

siesta: k-grid: Number of k-points =     4
siesta: k-grid: Cutoff (effective) =     3.415 Ang
siesta: k-grid: Supercell and displacements
siesta: k-grid:    2   0   0      0.500
siesta: k-grid:    0   2   0      0.500
siesta: k-grid:    0   0   2      0.500
Naive supercell factors:     5    6    6

superc: Internal auxiliary supercell:     5 x     6 x     6  =     180
superc: Number of atoms, orbitals, and projectors:    360  1440  3240

outcell: Unit cell vectors (Ang):
        2.990938    1.816924    0.000000
        0.000000    2.940875    1.828071
        1.779728    0.000000    2.914678

outcell: Cell vector modules (Ang)   :    3.499560    3.462743    3.415081
outcell: Cell angles (23,13,12) (deg):     63.2197     63.5513     63.8361
outcell: Cell volume (Ang**3)        :     31.5487

InitMesh: MESH =    18 x    18 x    18 =        5832
InitMesh: Mesh cutoff (required, used) =   100.000   100.271 Ry

siesta: Eharris(eV) =    -212.995344


siesta: Eharris(eV) =    -212.995344


siesta: Atomic forces (eV/Ang):
----------------------------------------
   Tot    0.013512   -0.005334   -0.010150
----------------------------------------
   Max    0.372574
   Res    0.265837    sqrt( Sum f_i^2 / 3N )
----------------------------------------
   Max    0.372574    constrained

Stress-tensor-Voigt (kbar):     -398.85     -396.89     -424.78       60.56       87.30       61.81
Target enthalpy (eV/cell)     -205.0727

siesta: Stress tensor (static) (eV/Ang**3):
        -0.248592    0.038611    0.038776
         0.038611   -0.245800    0.054947
         0.038776    0.054947   -0.265013

siesta: Pressure (static):        405.57146109  kBar

siesta: Stress tensor (total) (eV/Ang**3):
        -0.248938    0.037797    0.038581
         0.037797   -0.247715    0.054489
         0.038581    0.054489   -0.265123

siesta: Pressure (total):        406.83748388  kBar
 Anneal: Kinetic Energy=   6.532822950957982E-003
 Anneal: Velocity scale factor =   0.997447070583275     
 Anneal: Cell scale factor =    1.00115330956765     

siesta: Temp_ion =     684.159 K

* Maximum dynamic memory allocated =     5 MB

siesta:                 ==============================
                            Begin MD step =     99
                        ==============================

siesta: k-grid: Number of k-points =     4
siesta: k-grid: Cutoff (effective) =     3.416 Ang
siesta: k-grid: Supercell and displacements
siesta: k-grid:    2   0   0      0.500
siesta: k-grid:    0   2   0      0.500
siesta: k-grid:    0   0   2      0.500
Naive supercell factors:     5    6    6

superc: Internal auxiliary supercell:     5 x     6 x     6  =     180
superc: Number of atoms, orbitals, and projectors:    360  1440  3240

outcell: Unit cell vectors (Ang):
        2.990827    1.812484    0.000000
        0.000000    2.940613    1.821557
        1.775397    0.000000    2.918039

outcell: Cell vector modules (Ang)   :    3.497163    3.459085    3.415697
outcell: Cell angles (23,13,12) (deg):     63.2643     63.6073     63.8585
outcell: Cell volume (Ang**3)        :     31.5253

InitMesh: MESH =    18 x    18 x    18 =        5832
InitMesh: Mesh cutoff (required, used) =   100.000   100.323 Ry

siesta: Eharris(eV) =    -212.993487


siesta: Eharris(eV) =    -212.993487


siesta: Atomic forces (eV/Ang):
----------------------------------------
   Tot    0.020321   -0.006422   -0.008050
----------------------------------------
   Max    0.313099
   Res    0.233504    sqrt( Sum f_i^2 / 3N )
----------------------------------------
   Max    0.313099    constrained

Stress-tensor-Voigt (kbar):     -396.90     -399.42     -423.88       65.81       89.90       64.73
Target enthalpy (eV/cell)     -205.0762

siesta: Stress tensor (static) (eV/Ang**3):
        -0.247408    0.041871    0.040593
         0.041871   -0.247288    0.056600
         0.040593    0.056600   -0.264439

siesta: Pressure (static):        405.42701462  kBar

siesta: Stress tensor (total) (eV/Ang**3):
        -0.247725    0.041072    0.040398
         0.041072   -0.249297    0.056108
         0.040398    0.056108   -0.264560

siesta: Pressure (total):        406.73386363  kBar
 Anneal: Kinetic Energy=   6.520032018582048E-003
 Anneal: Velocity scale factor =   0.997481391491387     
 Anneal: Cell scale factor =    1.00111791267394     

siesta: Temp_ion =     682.867 K

* Maximum dynamic memory allocated =     5 MB

siesta:                 ==============================
                            Begin MD step =    100
                        ==============================

siesta: k-grid: Number of k-points =     4
siesta: k-grid: Cutoff (effective) =     3.416 Ang
siesta: k-grid: Supercell and displacements
siesta: k-grid:    2   0   0      0.500
siesta: k-grid:    0   2   0      0.500
siesta: k-grid:    0   0   2      0.500
Naive supercell factors:     5    6    6

superc: Internal auxiliary supercell:     5 x     6 x     6  =     180
superc: Number of atoms, orbitals, and projectors:    360  1440  3240

outcell: Unit cell vectors (Ang):
        2.990480    1.807677    0.000000
        0.000000    2.940636    1.814881
        1.770864    0.000000    2.921301

outcell: Cell vector modules (Ang)   :    3.494376    3.455594    3.416132
outcell: Cell angles (23,13,12) (deg):     63.3125     63.6642     63.8821
outcell: Cell volume (Ang**3)        :     31.4994

InitMesh: MESH =    18 x    18 x    18 =        5832
InitMesh: Mesh cutoff (required, used) =   100.000   100.396 Ry

siesta: Eharris(eV) =    -212.990426


siesta: Eharris(eV) =    -212.990426


siesta: Atomic forces (eV/Ang):
----------------------------------------
   Tot    0.024533   -0.016275   -0.005556
----------------------------------------
   Max    0.290733
   Res    0.221059    sqrt( Sum f_i^2 / 3N )
----------------------------------------
   Max    0.290733    constrained

Stress-tensor-Voigt (kbar):     -397.22     -402.55     -423.84       70.76       92.58       67.89
Target enthalpy (eV/cell)     -205.0791

siesta: Stress tensor (static) (eV/Ang**3):
        -0.247633    0.044939    0.042562
         0.044939   -0.249161    0.058289
         0.042562    0.058289   -0.264411

siesta: Pressure (static):        406.53257134  kBar

siesta: Stress tensor (total) (eV/Ang**3):
        -0.247921    0.044164    0.042373
         0.044164   -0.251248    0.057781
         0.042373    0.057781   -0.264535

siesta: Pressure (total):        407.86707817  kBar
 Anneal: Kinetic Energy=   6.453363530705464E-003
 Anneal: Velocity scale factor =   0.997662460883111     
 Anneal: Cell scale factor =    1.00111495921455     

siesta: Temp_ion =     676.130 K

* Maximum dynamic memory allocated =     5 MB

siesta: Program's energy decomposition (eV):
siesta: Eions   =       380.802124
siesta: Ena     =       111.732903
siesta: Ekin    =        86.676799
siesta: Enl     =        32.547441
siesta: DEna    =         4.326791
siesta: DUscf   =         0.167625
siesta: DUext   =         0.000000
siesta: Exc     =       -67.592601
siesta: eta*DQ  =         0.000000
siesta: Emadel  =         0.000000
siesta: Emeta   =         0.000000
siesta: Emolmec =         0.000000
siesta: Ekinion =         0.087393
siesta: Eharris =      -212.903033
siesta: Etot    =      -212.855772
siesta: FreeEng =      -212.855772

siesta: Final energy (eV):
siesta:       Kinetic =      86.676799
siesta:       Hartree =       9.283604
siesta:    Ext. field =       0.000000
siesta:   Exch.-corr. =     -67.592601
siesta:  Ion-electron =     -99.337577
siesta:       Ion-ion =    -141.973390
siesta:       Ekinion =       0.087393
siesta:         Total =    -212.855772

siesta: Atomic forces (eV/Ang):
siesta:      1    0.290733   -0.266249    0.044253
siesta:      2   -0.266200    0.249974   -0.049809
siesta: ----------------------------------------
siesta:    Tot    0.024533   -0.016275   -0.005556

siesta: Stress tensor (static) (eV/Ang**3):
siesta:    -0.247633    0.044939    0.042562
siesta:     0.044939   -0.249161    0.058289
siesta:     0.042562    0.058289   -0.264411

siesta: Cell volume =         31.499371 Ang**3

siesta: Pressure (static):
siesta:                Solid            Molecule  Units
siesta:           0.00276350          0.00277365  Ry/Bohr**3
siesta:           0.25373493          0.25466686  eV/Ang**3
siesta:         406.53257134        408.02569649  kBar

* Maximum dynamic memory allocated : Node    0 =     5 MB

* Maximum memory occured during ranger                        

timer: CPU execution times:
timer:  Routine       Calls   Time/call    Tot.time        %
timer:  siesta            1     161.812     161.812   100.00
timer:  Setup             1       0.241       0.241     0.15
timer:  bands             1       0.001       0.001     0.00
timer:  writewave         1       0.000       0.000     0.00
timer:  KSV_init          1       0.000       0.000     0.00
timer:  IterMD          100       1.616     161.566    99.85
timer:  hsparse         104       0.020       2.106     1.30
timer:  overfsm         200       0.003       0.621     0.38
timer:  IterSCF         200       0.781     156.188    96.52
timer:  kinefsm         200       0.003       0.550     0.34
timer:  nlefsm          200       0.406      81.145    50.15
timer:  DHSCF           200       0.365      73.081    45.16
timer:  DHSCF1          100       0.144      14.409     8.90
timer:  DHSCF2          100       0.207      20.724    12.81
timer:  REORD          1800       0.000       0.050     0.03
timer:  POISON          300       0.002       0.629     0.39
timer:  DHSCF3          200       0.090      18.036    11.15
timer:  rhoofd          200       0.038       7.509     4.64
timer:  cellXC          300       0.005       1.448     0.89
timer:  vmat            200       0.045       9.024     5.58
timer:  diagon          100       0.006       0.635     0.39
timer:  cdiag           800       0.000       0.076     0.05
timer:  cdiag1          800       0.000       0.009     0.01
timer:  cdiag2          800       0.000       0.017     0.01
timer:  cdiag3          800       0.000       0.037     0.02
timer:  cdiag4          800       0.000       0.003     0.00
timer:  MolMec          200       0.000       0.003     0.00
timer:  DHSCF4          100       0.199      19.894    12.29
timer:  dfscf           100       0.153      15.348     9.48
timer:  optical           1       0.000       0.000     0.00
  

elaps: ELAPSED times:
elaps:  Routine       Calls   Time/call    Tot.time        %
elaps:  siesta            1     165.159     165.159   100.00
elaps:  Setup             1       0.241       0.241     0.15
elaps:  bands             1       0.000       0.000     0.00
elaps:  writewave         1       0.000       0.000     0.00
elaps:  KSV_init          1       0.000       0.000     0.00
elaps:  IterMD          100       1.649     164.913    99.85
elaps:  hsparse         104       0.020       2.107     1.28
elaps:  overfsm         200       0.003       0.625     0.38
elaps:  IterSCF         200       0.798     159.536    96.60
elaps:  kinefsm         200       0.003       0.543     0.33
elaps:  nlefsm          200       0.406      81.152    49.14
elaps:  DHSCF           200       0.365      73.080    44.25
elaps:  DHSCF1          100       0.144      14.404     8.72
elaps:  DHSCF2          100       0.207      20.731    12.55
elaps:  REORD          1800       0.000       0.049     0.03
elaps:  POISON          300       0.002       0.628     0.38
elaps:  DHSCF3          200       0.090      18.033    10.92
elaps:  rhoofd          200       0.038       7.500     4.54
elaps:  cellXC          300       0.005       1.451     0.88
elaps:  vmat            200       0.045       9.032     5.47
elaps:  diagon          100       0.006       0.641     0.39
elaps:  cdiag           800       0.000       0.096     0.06
elaps:  cdiag1          800       0.000       0.008     0.00
elaps:  cdiag2          800       0.000       0.014     0.01
elaps:  cdiag3          800       0.000       0.051     0.03
elaps:  cdiag4          800       0.000       0.004     0.00
elaps:  MolMec          200       0.000       0.001     0.00
elaps:  DHSCF4          100       0.199      19.886    12.04
elaps:  dfscf           100       0.153      15.344     9.29
elaps:  optical           1       0.000       0.000     0.00
  
>> End of run:  25-JAN-2007  18:06:07
