Siesta Version: siesta-trunk-479
Architecture  : atto-intel12-openmpi
Compiler flags: /share/apps/openmpi-1.6.5-intel/bin/mpif90 -w  -O2 -mp
PP flags      : -DCDF -DMPI 
PARALLEL version
NetCDF support

* Running on    4 nodes in parallel
>> Start of run:  29-SEP-2015  15:39:21

                           ***********************       
                           *  WELCOME TO SIESTA  *       
                           ***********************       

reinit: Reading from standard input
************************** Dump of input data file ****************************
# -----------------------------------------------------------------------------
# Primitive c-Si supercell, using STRUCT file
# Annealing, HarrisFunctional
# Alberto Garcia, August-December 2005, January 2006
# -----------------------------------------------------------------------------
SystemName          Primitive silicon, Annealing, Harris, Struct File
SystemLabel         md_anneal
NumberOfAtoms       2
NumberOfSpecies     1
MD.Use-Struct-File  T   # Structural information is read from md_anneal.STRUCT_IN
%block ChemicalSpeciesLabel
 1  14  Si
%endblock ChemicalSpeciesLabel
PAO.BasisSize       SZ
MeshCutoff          100.0 Ry
%block kgrid-monkhorst-pack
  2 0 0  0.5
  0 2 0  0.5
  0 0 2  0.5
%endblock kgrid-monkhorst-pack
SolutionMethod       diagon
ElectronicTemperature  100 K
HarrisFunctional T
WriteMDHistory T
MD.TypeOfRun         anneal
MD.AnnealOption  TemperatureAndPressure
MD.InitialTemperature 100 K
MD.TargetTemperature 600 K
MD.TargetPressure 40 GPa
MD.LengthTimeStep  1 fs
MD.TauRelax       25 fs
MD.FinalTimeStep  100
************************** End of input data file *****************************

reinit: -----------------------------------------------------------------------
reinit: System Name: Primitive silicon, Annealing, Harris, Struct File
reinit: -----------------------------------------------------------------------
reinit: System Label: md_anneal                                                   
reinit: -----------------------------------------------------------------------

initatom: Reading input for the pseudopotentials and atomic orbitals ----------
 Species number:            1  Label: Si Atomic number:          14
Ground state valence configuration:   3s02  3p02
Reading pseudopotential information in formatted form from Si.psf

Valence configuration for pseudopotential generation:
3s( 2.00) rc: 1.89
3p( 2.00) rc: 1.89
3d( 0.00) rc: 1.89
4f( 0.00) rc: 1.89
For Si, standard SIESTA heuristics set lmxkb to 2
 (one more than the basis l, including polarization orbitals).
Use PS.lmax or PS.KBprojectors blocks to override.

<basis_specs>
===============================================================================
Si                   Z=  14    Mass=  28.090        Charge= 0.17977+309
Lmxo=1 Lmxkb= 2    BasisType=split      Semic=F
L=0  Nsemic=0  Cnfigmx=3
          n=1  nzeta=1  polorb=0
            splnorm:   0.15000    
               vcte:    0.0000    
               rinn:    0.0000    
               qcoe:    0.0000    
               qyuk:    0.0000    
               qwid:   0.10000E-01
                rcs:    0.0000    
            lambdas:   1.00000    
L=1  Nsemic=0  Cnfigmx=3
          n=1  nzeta=1  polorb=0
            splnorm:   0.15000    
               vcte:    0.0000    
               rinn:    0.0000    
               qcoe:    0.0000    
               qyuk:    0.0000    
               qwid:   0.10000E-01
                rcs:    0.0000    
            lambdas:   1.00000    
-------------------------------------------------------------------------------
L=0  Nkbl=1  erefs: 0.17977+309
L=1  Nkbl=1  erefs: 0.17977+309
L=2  Nkbl=1  erefs: 0.17977+309
===============================================================================
</basis_specs>

atom: Called for Si                    (Z =  14)

read_vps: Pseudopotential generation method:
read_vps: ATM3      Troullier-Martins                       
Total valence charge:    4.00000

xc_check: Exchange-correlation functional:
xc_check: Ceperley-Alder
V l=0 = -2*Zval/r beyond r=  2.5494
V l=1 = -2*Zval/r beyond r=  2.5494
V l=2 = -2*Zval/r beyond r=  2.5494
All V_l potentials equal beyond r=  1.8652
This should be close to max(r_c) in ps generation
All pots = -2*Zval/r beyond r=  2.5494
Using large-core scheme for Vlocal

atom: Estimated core radius    2.54944

atom: Including non-local core corrections could be a good idea
atom: Maximum radius for 4*pi*r*r*local-pseudopot. charge    2.85303
atom: Maximum radius for r*vlocal+2*Zval:    2.58151
GHOST: No ghost state for L =  0
GHOST: No ghost state for L =  1
GHOST: No ghost state for L =  2

KBgen: Kleinman-Bylander projectors: 
   l= 0   rc=  1.936440   el= -0.796617   Ekb=  4.661340   kbcos=  0.299756
   l= 1   rc=  1.936440   el= -0.307040   Ekb=  1.494238   kbcos=  0.301471
   l= 2   rc=  1.936440   el=  0.002313   Ekb= -2.808672   kbcos= -0.054903

KBgen: Total number of  Kleinman-Bylander projectors:    9
atom: -------------------------------------------------------------------------

atom: SANKEY-TYPE ORBITALS:

SPLIT: Orbitals with angular momentum L= 0

SPLIT: Basis orbitals for state 3s

SPLIT: PAO cut-off radius determined from an
SPLIT: energy shift=  0.020000 Ry

   izeta = 1
                 lambda =    1.000000
                     rc =    5.007352
                 energy =   -0.777669
                kinetic =    0.573829
    potential(screened) =   -1.351499
       potential(ionic) =   -3.827441

SPLIT: Orbitals with angular momentum L= 1

SPLIT: Basis orbitals for state 3p

SPLIT: PAO cut-off radius determined from an
SPLIT: energy shift=  0.020000 Ry

   izeta = 1
                 lambda =    1.000000
                     rc =    6.270866
                 energy =   -0.288955
                kinetic =    0.877930
    potential(screened) =   -1.166885
       potential(ionic) =   -3.426998
atom: Total number of Sankey-type orbitals:  4

atm_pop: Valence configuration (for local Pseudopot. screening):
 3s( 2.00)                                                            
 3p( 2.00)                                                            
Vna: chval, zval:    4.00000   4.00000

Vna:  Cut-off radius for the neutral-atom potential:   6.270866

atom: _________________________________________________________________________

prinput: Basis input ----------------------------------------------------------

PAO.BasisType split     

%block ChemicalSpeciesLabel
    1   14 Si                      # Species index, atomic number, species label
%endblock ChemicalSpeciesLabel

%block PAO.Basis                 # Define Basis set
Si                    2                    # Species label, number of l-shells
 n=3   0   1                         # n, l, Nzeta 
   5.007   
   1.000   
 n=3   1   1                         # n, l, Nzeta 
   6.271   
   1.000   
%endblock PAO.Basis

prinput: ----------------------------------------------------------------------

Dumping basis to NetCDF file Si.ion.nc
  -- Read structural information from md_anneal.STRUCT_IN

siesta: Atomic coordinates (Bohr) and species
siesta:      0.00000   0.00000   0.00000  1        1
siesta:      2.56530   2.56530   2.56530  1        2

siesta: System type = bulk      

initatomlists: Number of atoms, orbitals, and projectors:      2     8    18

siesta: ******************** Simulation parameters ****************************
siesta:
siesta: The following are some of the parameters of the simulation.
siesta: A complete list of the parameters used, including default values,
siesta: can be found in file out.fdf
siesta:
redata: Non-Collinear-spin run           =     F
redata: SpinPolarized (Up/Down) run      =     F
redata: Number of spin components        =     1
redata: Long output                      =     F
redata: Number of Atomic Species         =        1
redata: Charge density info will appear in .RHO file
redata: Write Mulliken Pop.              =     NO
redata: Mesh Cutoff                      =   100.0000  Ry
redata: Net charge of the system         =     0.0000 |e|
redata: Min. number of SCF Iter          =        0
redata: Max. number of SCF Iter          =       50
redata: Mix DM or H after convergence    =     F
redata: Recompute H after scf cycle      =     F
redata: Mixing is linear
redata: Mix DM in first SCF step ?       =     F
redata: Write Pulay info on disk?        =     F
redata: Discard 1st Pulay DM after  kick =     F
redata: New DM Mixing Weight             =     0.2500
redata: New DM Occupancy tolerance       = 0.000000000001
redata: No kicks to SCF
redata: DM Mixing Weight for Kicks       =     0.5000
redata: DM Tolerance for SCF             =     0.000100
redata: Require (free) Energy convergence in SCF =     F
redata: DM (free)Energy tolerance for SCF =     0.000010 eV
redata: Require Harris convergence for SCF =     F
redata: DM Harris energy tolerance for SCF =     0.000010 eV
redata: Using Saved Data (generic)   =     F
redata: Use continuation files for DM    =     F
redata: Neglect nonoverlap interactions  =     F
redata: Method of Calculation            =     Diagonalization
redata: Divide and Conquer               =     T
redata: Electronic Temperature           =     0.0006  Ry
redata: Fix the spin of the system       =     F
redata: Dynamics option                  =     Annealing MD run
redata: Initial MD time step             =        1
redata:   Final MD time step             =      100
redata: Length of MD time step           =     1.0000  fs
redata: Initial Temperature of MD run    =   100.0000  K
redata: Annealing Option                 = Temperature and Pressure
redata: Target Temperature               =   600.0000  Kelvin
redata: Target Pressure                  =     0.0027  Ry/Bohr**3
redata: Annealing Relaxation Time        =    25.0000  fs
redata: Approx. Bulk Modulus             =     0.0068  Ry/Bohr**3
redata: ***********************************************************************
Total number of electrons:     8.000000
Total ionic charge:     8.000000

* ProcessorY, Blocksize:    2   2


* Orbital distribution balance (max,min):     2     2

 Kpoints in:            4 . Kpoints trimmed:            4

siesta: k-grid: Number of k-points =     4
siesta: k-grid: Cutoff (effective) =     3.840 Ang
siesta: k-grid: Supercell and displacements
siesta: k-grid:    2   0   0      0.500
siesta: k-grid:    0   2   0      0.500
siesta: k-grid:    0   0   2      0.500
Naive supercell factors:     5    5    5

superc: Internal auxiliary supercell:     5 x     5 x     5  =     125
superc: Number of atoms, orbitals, and projectors:    250   1000   2250

                     ====================================
                        Begin MD step =      1
                     ====================================

superc: Internal auxiliary supercell:     5 x     5 x     5  =     125
superc: Number of atoms, orbitals, and projectors:    250   1000   2250

outcell: Unit cell vectors (Ang):
        2.715000    2.715000    0.000000
        0.000000    2.715000    2.715000
        2.715000    0.000000    2.715000

outcell: Cell vector modules (Ang)   :    3.839590    3.839590    3.839590
outcell: Cell angles (23,13,12) (deg):     60.0000     60.0000     60.0000
outcell: Cell volume (Ang**3)        :     40.0258
New_DM. Step:     1
Initializing Density Matrix...
New grid distribution:   1
           1       1:   10    1:    5    1:    5
           2       1:   10    1:    5    6:   10
           3       1:   10    6:   10    1:    5
           4       1:   10    6:   10    6:   10

InitMesh: MESH =    20 x    20 x    20 =        8000
InitMesh: (bp) =    10 x    10 x    10 =        1000
InitMesh: Mesh cutoff (required, used) =   100.000   112.482 Ry
ExtMesh (bp) on 0 =    54 x    49 x    49 =      129654
New grid distribution:   2
           1       1:   10    1:    5    1:    5
           2       1:   10    1:    5    6:   10
           3       1:   10    6:   10    1:    5
           4       1:   10    6:   10    6:   10
New grid distribution:   3
           1       1:   10    1:    5    1:    5
           2       1:   10    1:    5    6:   10
           3       1:   10    6:   10    1:    5
           4       1:   10    6:   10    6:   10
Setting up quadratic distribution...
ExtMesh (bp) on 0 =    54 x    49 x    49 =      129654
PhiOnMesh: Number of (b)points on node 0 =                  250
PhiOnMesh: nlist on node 0 =                 7041

stepf: Fermi-Dirac step function

siesta: Program's energy decomposition (eV):
siesta: Ebs     =       -74.777572
siesta: Eions   =       380.802124
siesta: Ena     =       115.502327
siesta: Ekin    =        78.997046
siesta: Enl     =        35.834927
siesta: DEna    =         0.000000
siesta: DUscf   =         0.000000
siesta: DUext   =         0.000000
siesta: Exc     =       -64.548619
siesta: eta*DQ  =         0.000000
siesta: Emadel  =         0.000000
siesta: Emeta   =         0.000000
siesta: Emolmec =         0.000000
siesta: Ekinion =         0.000000
siesta: Eharris =      -213.847468
siesta: Etot    =      -215.016442
siesta: FreeEng =      -215.016442

siesta: Eharris(eV) =    -213.847468


siesta: Eharris(eV) =    -213.847468

timer: Routine,Calls,Time,% =    IterSCF     1       0.064   9.41
:!: SCF did not converge in maximum number of steps.

Using DM_out to compute the final energy and forces

siesta: E_KS - E_eggbox =      -213.7687

siesta: Atomic forces (eV/Ang):
----------------------------------------
   Tot    0.000000    0.000000   -0.000000
----------------------------------------
   Max    0.193663
   Res    0.193663    sqrt( Sum f_i^2 / 3N )
----------------------------------------
   Max    0.193663    constrained

Stress-tensor-Voigt (kbar):      -58.68      -59.16      -58.45       81.71       81.41       81.18
(Free)E + p*V (eV/cell)     -212.3006
Target enthalpy (eV/cell)     -203.7759

siesta: Stress tensor (static) (eV/Ang**3):
        -0.036465    0.050723    0.050723
         0.050723   -0.036465    0.050723
         0.050723    0.050723   -0.036465

siesta: Pressure (static):         58.42364831  kBar

siesta: Stress tensor (total) (eV/Ang**3):
        -0.036628    0.050996    0.050668
         0.050996   -0.036925    0.050814
         0.050668    0.050814   -0.036483

siesta: Pressure (total):         58.76609138  kBar
 Anneal: Kinetic Energy=   9.499992404769231E-004
 Anneal: Velocity scale factor =    1.09544511784032     
 Anneal: Cell scale factor =   0.986243750793117     

siesta: Temp_ion =     120.000 K

                     ====================================
                        Begin MD step =      2
                     ====================================

superc: Internal auxiliary supercell:     5 x     5 x     5  =     125
superc: Number of atoms, orbitals, and projectors:    250   1000   2250

outcell: Unit cell vectors (Ang):
        2.677683    2.706102    0.000000
        0.000000    2.677746    2.706141
        2.706171    0.000000    2.677652

outcell: Cell vector modules (Ang)   :    3.806964    3.807036    3.806991
outcell: Cell angles (23,13,12) (deg):     60.0026     60.0012     60.0017
outcell: Cell volume (Ang**3)        :     39.0167
New_DM. Step:     2
Initializing Density Matrix...
New grid distribution:   1
           1       1:   10    1:    5    1:    5
           2       1:   10    1:    5    6:   10
           3       1:   10    6:   10    1:    5
           4       1:   10    6:   10    6:   10

InitMesh: MESH =    20 x    20 x    20 =        8000
InitMesh: (bp) =    10 x    10 x    10 =        1000
InitMesh: Mesh cutoff (required, used) =   100.000   114.407 Ry
ExtMesh (bp) on 0 =    54 x    49 x    49 =      129654
New grid distribution:   2
           1       1:   10    1:    5    1:    5
           2       1:   10    1:    5    6:   10
           3       1:   10    6:   10    1:    5
           4       1:   10    6:   10    6:   10
New grid distribution:   3
           1       1:   10    1:    5    1:    5
           2       1:   10    1:    5    6:   10
           3       1:   10    6:   10    1:    5
           4       1:   10    6:   10    6:   10
Setting up quadratic distribution...
ExtMesh (bp) on 0 =    54 x    49 x    49 =      129654
PhiOnMesh: Number of (b)points on node 0 =                  250
PhiOnMesh: nlist on node 0 =                 7205

siesta: Eharris(eV) =    -213.708561


siesta: Eharris(eV) =    -213.708561

:!: SCF did not converge in maximum number of steps.

Using DM_out to compute the final energy and forces

siesta: Atomic forces (eV/Ang):
----------------------------------------
   Tot    0.000000    0.000000   -0.000000
----------------------------------------
   Max    0.257020
   Res    0.194525    sqrt( Sum f_i^2 / 3N )
----------------------------------------
   Max    0.257020    constrained

Stress-tensor-Voigt (kbar):      -83.70      -83.97      -83.48       85.20       83.11       88.12
(Free)E + p*V (eV/cell)     -211.5986
Target enthalpy (eV/cell)     -203.8965

siesta: Stress tensor (static) (eV/Ang**3):
        -0.052042    0.052846    0.055061
         0.052846   -0.051852    0.051766
         0.055061    0.051766   -0.052083

siesta: Pressure (static):         83.30204880  kBar

siesta: Stress tensor (total) (eV/Ang**3):
        -0.052243    0.053180    0.054997
         0.053180   -0.052407    0.051872
         0.054997    0.051872   -0.052104

siesta: Pressure (total):         83.71651249  kBar
 Anneal: Kinetic Energy=   1.299372326022440E-003
 Anneal: Velocity scale factor =    1.06558397173202     
 Anneal: Cell scale factor =   0.987259079799343     

siesta: Temp_ion =     155.305 K

                     ====================================
                        Begin MD step =      3
                     ====================================

superc: Internal auxiliary supercell:     5 x     5 x     5  =     125
superc: Number of atoms, orbitals, and projectors:    250   1000   2250

outcell: Unit cell vectors (Ang):
        2.643605    2.696843    0.000000
        0.000000    2.643703    2.697120
        2.696623    0.000000    2.643536

outcell: Cell vector modules (Ang)   :    3.776454    3.776721    3.776250
outcell: Cell angles (23,13,12) (deg):     60.0046     60.0075     60.0077
outcell: Cell volume (Ang**3)        :     38.0899
New_DM. Step:     3
Initializing Density Matrix...
New grid distribution:   1
           1       1:   10    1:    5    1:    5
           2       1:   10    1:    5    6:   10
           3       1:   10    6:   10    1:    5
           4       1:   10    6:   10    6:   10

InitMesh: MESH =    20 x    20 x    20 =        8000
InitMesh: (bp) =    10 x    10 x    10 =        1000
InitMesh: Mesh cutoff (required, used) =   100.000   116.241 Ry
ExtMesh (bp) on 0 =    54 x    49 x    49 =      129654
New grid distribution:   2
           1       1:   10    1:    5    1:    5
           2       1:   10    1:    5    6:   10
           3       1:   10    6:   10    1:    5
           4       1:   10    6:   10    6:   10
New grid distribution:   3
           1       1:   10    1:    5    1:    5
           2       1:   10    1:    5    6:   10
           3       1:   10    6:   10    1:    5
           4       1:   10    6:   10    6:   10
Setting up quadratic distribution...
ExtMesh (bp) on 0 =    54 x    49 x    49 =      129654
PhiOnMesh: Number of (b)points on node 0 =                  250
PhiOnMesh: nlist on node 0 =                 7459

siesta: Eharris(eV) =    -213.562732


siesta: Eharris(eV) =    -213.562732

:!: SCF did not converge in maximum number of steps.

Using DM_out to compute the final energy and forces

siesta: Atomic forces (eV/Ang):
----------------------------------------
   Tot    0.000000    0.000000   -0.000000
----------------------------------------
   Max    0.343741
   Res    0.213715    sqrt( Sum f_i^2 / 3N )
----------------------------------------
   Max    0.343741    constrained

Stress-tensor-Voigt (kbar):     -122.47     -122.70     -122.75       89.05       85.89       96.64
(Free)E + p*V (eV/cell)     -210.5829
Target enthalpy (eV/cell)     -203.9891

siesta: Stress tensor (static) (eV/Ang**3):
        -0.076138    0.055123    0.060418
         0.055123   -0.075888    0.053456
         0.060418    0.053456   -0.076581

siesta: Pressure (static):        122.09079386  kBar

siesta: Stress tensor (total) (eV/Ang**3):
        -0.076440    0.055581    0.060316
         0.055581   -0.076582    0.053610
         0.060316    0.053610   -0.076615

siesta: Pressure (total):        122.64075645  kBar
 Anneal: Kinetic Energy=   1.570739292559718E-003
 Anneal: Velocity scale factor =    1.05126327160908     
 Anneal: Cell scale factor =   0.988849042639586     

siesta: Temp_ion =     182.727 K

                     ====================================
                        Begin MD step =      4
                     ====================================

superc: Internal auxiliary supercell:     5 x     5 x     5  =     125
superc: Number of atoms, orbitals, and projectors:    250   1000   2250

outcell: Unit cell vectors (Ang):
        2.614109    2.687201    0.000000
        0.000000    2.614232    2.687829
        2.686187    0.000000    2.614058

outcell: Cell vector modules (Ang)   :    3.748949    3.749484    3.748186
outcell: Cell angles (23,13,12) (deg):     60.0035     60.0183     60.0157
outcell: Cell volume (Ang**3)        :     37.2658
New_DM. Step:     4
Initializing Density Matrix...
New grid distribution:   1
           1       1:   10    1:    5    1:    5
           2       1:   10    1:    5    6:   10
           3       1:   10    6:   10    1:    5
           4       1:   10    6:   10    6:   10

InitMesh: MESH =    20 x    20 x    20 =        8000
InitMesh: (bp) =    10 x    10 x    10 =        1000
InitMesh: Mesh cutoff (required, used) =   100.000   117.928 Ry
ExtMesh (bp) on 0 =    54 x    49 x    49 =      129654
New grid distribution:   2
           1       1:   10    1:    5    1:    5
           2       1:   10    1:    5    6:   10
           3       1:   10    6:   10    1:    5
           4       1:   10    6:   10    6:   10
New grid distribution:   3
           1       1:   10    1:    5    1:    5
           2       1:   10    1:    5    6:   10
           3       1:   10    6:   10    1:    5
           4       1:   10    6:   10    6:   10
Setting up quadratic distribution...
ExtMesh (bp) on 0 =    54 x    49 x    49 =      129654
PhiOnMesh: Number of (b)points on node 0 =                  250
PhiOnMesh: nlist on node 0 =                 7634

siesta: Eharris(eV) =    -213.409669


siesta: Eharris(eV) =    -213.409669

:!: SCF did not converge in maximum number of steps.

Using DM_out to compute the final energy and forces

siesta: Atomic forces (eV/Ang):
----------------------------------------
   Tot   -0.000000    0.000000    0.000000
----------------------------------------
   Max    0.428020
   Res    0.254102    sqrt( Sum f_i^2 / 3N )
----------------------------------------
   Max    0.428020    constrained

Stress-tensor-Voigt (kbar):     -156.51     -155.80     -156.27       89.60       86.07      106.53
(Free)E + p*V (eV/cell)     -209.7186
Target enthalpy (eV/cell)     -204.0478

siesta: Stress tensor (static) (eV/Ang**3):
        -0.097285    0.055361    0.066627
         0.055361   -0.096451    0.053524
         0.066627    0.053524   -0.097484

siesta: Pressure (static):        155.53047295  kBar

siesta: Stress tensor (total) (eV/Ang**3):
        -0.097685    0.055924    0.066487
         0.055924   -0.097242    0.053721
         0.066487    0.053721   -0.097533

siesta: Pressure (total):        156.19272798  kBar
 Anneal: Kinetic Energy=   1.760974029543567E-003
 Anneal: Velocity scale factor =    1.04377856857895     
 Anneal: Cell scale factor =   0.990203869940220     

siesta: Temp_ion =     201.951 K

                     ====================================
                        Begin MD step =      5
                     ====================================

superc: Internal auxiliary supercell:     5 x     5 x     5  =     125
superc: Number of atoms, orbitals, and projectors:    250   1000   2250

outcell: Unit cell vectors (Ang):
        2.588537    2.677540    0.000000
        0.000000    2.588580    2.678552
        2.674723    0.000000    2.588450

outcell: Cell vector modules (Ang)   :    3.724210    3.724968    3.722126
outcell: Cell angles (23,13,12) (deg):     59.9957     60.0352     60.0251
outcell: Cell volume (Ang**3)        :     36.5272
New_DM. Step:     5
Initializing Density Matrix...
New grid distribution:   1
           1       1:   10    1:    5    1:    5
           2       1:   10    1:    5    6:   10
           3       1:   10    6:   10    1:    5
           4       1:   10    6:   10    6:   10

InitMesh: MESH =    20 x    20 x    20 =        8000
InitMesh: (bp) =    10 x    10 x    10 =        1000
InitMesh: Mesh cutoff (required, used) =   100.000   119.448 Ry
ExtMesh (bp) on 0 =    54 x    49 x    49 =      129654
New grid distribution:   2
           1       1:   10    1:    5    1:    5
           2       1:   10    1:    5    6:   10
           3       1:   10    6:   10    1:    5
           4       1:   10    6:   10    6:   10
New grid distribution:   3
           1       1:   10    1:    5    1:    5
           2       1:   10    1:    5    6:   10
           3       1:   10    6:   10    1:    5
           4       1:   10    6:   10    6:   10
Setting up quadratic distribution...
ExtMesh (bp) on 0 =    54 x    49 x    49 =      129654
PhiOnMesh: Number of (b)points on node 0 =                  250
PhiOnMesh: nlist on node 0 =                 7809

siesta: Eharris(eV) =    -213.254492


siesta: Eharris(eV) =    -213.254492

:!: SCF did not converge in maximum number of steps.

Using DM_out to compute the final energy and forces

siesta: Atomic forces (eV/Ang):
----------------------------------------
   Tot    0.000000    0.000000    0.000000
----------------------------------------
   Max    0.485874
   Res    0.291381    sqrt( Sum f_i^2 / 3N )
----------------------------------------
   Max    0.485874    constrained

Stress-tensor-Voigt (kbar):     -181.00     -181.00     -180.74       93.82       86.66      113.09
(Free)E + p*V (eV/cell)     -209.0772
Target enthalpy (eV/cell)     -204.0824

siesta: Stress tensor (static) (eV/Ang**3):
        -0.112481    0.057915    0.070762
         0.057915   -0.112123    0.053852
         0.070762    0.053852   -0.112742

siesta: Pressure (static):        180.16423258  kBar

siesta: Stress tensor (total) (eV/Ang**3):
        -0.112968    0.058558    0.070585
         0.058558   -0.112971    0.054085
         0.070585    0.054085   -0.112806

siesta: Pressure (total):        180.91167978  kBar
 Anneal: Kinetic Energy=   1.883949546439654E-003
 Anneal: Velocity scale factor =    1.03972220118200     
 Anneal: Cell scale factor =   0.991191876983593     

siesta: Temp_ion =     214.378 K

                     ====================================
                        Begin MD step =      6
                     ====================================

superc: Internal auxiliary supercell:     5 x     5 x     5  =     125
superc: Number of atoms, orbitals, and projectors:    250   1000   2250

outcell: Unit cell vectors (Ang):
        2.565773    2.667462    0.000000
        0.000000    2.565809    2.669245
        2.662603    0.000000    2.565651

outcell: Cell vector modules (Ang)   :    3.701155    3.702465    3.697569
outcell: Cell angles (23,13,12) (deg):     59.9841     60.0532     60.0362
outcell: Cell volume (Ang**3)        :     35.8484
New_DM. Step:     6
Initializing Density Matrix...
New grid distribution:   1
           1       1:   10    1:    5    1:    5
           2       1:   10    1:    5    6:   10
           3       1:   10    6:   10    1:    5
           4       1:   10    6:   10    6:   10

InitMesh: MESH =    20 x    20 x    20 =        8000
InitMesh: (bp) =    10 x    10 x    10 =        1000
InitMesh: Mesh cutoff (required, used) =   100.000   120.881 Ry
ExtMesh (bp) on 0 =    54 x    49 x    49 =      129654
New grid distribution:   2
           1       1:   10    1:    5    1:    5
           2       1:   10    1:    5    6:   10
           3       1:   10    6:   10    1:    5
           4       1:   10    6:   10    6:   10
New grid distribution:   3
           1       1:   10    1:    5    1:    5
           2       1:   10    1:    5    6:   10
           3       1:   10    6:   10    1:    5
           4       1:   10    6:   10    6:   10
Setting up quadratic distribution...
ExtMesh (bp) on 0 =    54 x    49 x    49 =      129654
PhiOnMesh: Number of (b)points on node 0 =                  250
PhiOnMesh: nlist on node 0 =                 7922

siesta: Eharris(eV) =    -213.099405


siesta: Eharris(eV) =    -213.099405

:!: SCF did not converge in maximum number of steps.

Using DM_out to compute the final energy and forces

siesta: Atomic forces (eV/Ang):
----------------------------------------
   Tot   -0.000000    0.000000   -0.000000
----------------------------------------
   Max    0.570171
   Res    0.352907    sqrt( Sum f_i^2 / 3N )
----------------------------------------
   Max    0.570171    constrained

Stress-tensor-Voigt (kbar):     -203.31     -202.82     -203.52       95.38       84.43      121.35
(Free)E + p*V (eV/cell)     -208.5045
Target enthalpy (eV/cell)     -204.1016

siesta: Stress tensor (static) (eV/Ang**3):
        -0.126332    0.058832    0.075953
         0.058832   -0.125714    0.052430
         0.075953    0.052430   -0.126948

siesta: Pressure (static):        202.40736074  kBar

siesta: Stress tensor (total) (eV/Ang**3):
        -0.126893    0.059532    0.075741
         0.059532   -0.126589    0.052694
         0.075741    0.052694   -0.127028

siesta: Pressure (total):        203.21636637  kBar
 Anneal: Kinetic Energy=   1.946955738467606E-003
 Anneal: Velocity scale factor =    1.03783708130805     
 Anneal: Cell scale factor =   0.992111003415116     

siesta: Temp_ion =     220.745 K

                     ====================================
                        Begin MD step =      7
                     ====================================

superc: Internal auxiliary supercell:     5 x     5 x     5  =     125
superc: Number of atoms, orbitals, and projectors:    250   1000   2250

outcell: Unit cell vectors (Ang):
        2.545515    2.657260    0.000000
        0.000000    2.545492    2.660211
        2.649653    0.000000    2.545411

outcell: Cell vector modules (Ang)   :    3.679766    3.681881    3.674204
outcell: Cell angles (23,13,12) (deg):     59.9641     60.0752     60.0498
outcell: Cell volume (Ang**3)        :     35.2233
New_DM. Step:     7
Initializing Density Matrix...
New grid distribution:   1
           1       1:   10    1:    5    1:    5
           2       1:   10    1:    5    6:   10
           3       1:   10    6:   10    1:    5
           4       1:   10    6:   10    6:   10

InitMesh: MESH =    20 x    20 x    20 =        8000
InitMesh: (bp) =    10 x    10 x    10 =        1000
InitMesh: Mesh cutoff (required, used) =   100.000   122.212 Ry
ExtMesh (bp) on 0 =    58 x    53 x    53 =      162922
New grid distribution:   2
           1       1:   10    1:    5    1:    5
           2       1:   10    1:    5    6:   10
           3       1:   10    6:   10    1:    5
           4       1:   10    6:   10    6:   10
New grid distribution:   3
           1       1:   10    1:    5    1:    5
           2       1:   10    1:    5    6:   10
           3       1:   10    6:   10    1:    5
           4       1:   10    6:   10    6:   10
Setting up quadratic distribution...
ExtMesh (bp) on 0 =    58 x    53 x    53 =      162922
PhiOnMesh: Number of (b)points on node 0 =                  250
PhiOnMesh: nlist on node 0 =                 8081

siesta: Eharris(eV) =    -212.942842


siesta: Eharris(eV) =    -212.942842

:!: SCF did not converge in maximum number of steps.

Using DM_out to compute the final energy and forces

siesta: Atomic forces (eV/Ang):
----------------------------------------
   Tot   -0.000000    0.000000   -0.000000
----------------------------------------
   Max    0.698650
   Res    0.447438    sqrt( Sum f_i^2 / 3N )
----------------------------------------
   Max    0.698650    constrained

Stress-tensor-Voigt (kbar):     -233.85     -233.16     -235.11       96.96       83.96      131.16
(Free)E + p*V (eV/cell)     -207.7539
Target enthalpy (eV/cell)     -204.1054

siesta: Stress tensor (static) (eV/Ang**3):
        -0.145339    0.059785    0.082104
         0.059785   -0.144652    0.052115
         0.082104    0.052115   -0.146646

siesta: Pressure (static):        233.19259911  kBar

siesta: Stress tensor (total) (eV/Ang**3):
        -0.145958    0.060520    0.081860
         0.060520   -0.145525    0.052405
         0.081860    0.052405   -0.146743

siesta: Pressure (total):        234.04079370  kBar
 Anneal: Kinetic Energy=   1.937039017642634E-003
 Anneal: Velocity scale factor =    1.03812587556411     
 Anneal: Cell scale factor =   0.993383712260242     

siesta: Temp_ion =     219.743 K

                     ====================================
                        Begin MD step =      8
                     ====================================

superc: Internal auxiliary supercell:     5 x     5 x     5  =     125
superc: Number of atoms, orbitals, and projectors:    250   1000   2250

outcell: Unit cell vectors (Ang):
        2.528548    2.646932    0.000000
        0.000000    2.528442    2.651258
        2.635720    0.000000    2.528569

outcell: Cell vector modules (Ang)   :    3.660574    3.663630    3.652490
outcell: Cell angles (23,13,12) (deg):     59.9347     60.1017     60.0635
outcell: Cell volume (Ang**3)        :     34.6626
New_DM. Step:     8
Initializing Density Matrix...
New grid distribution:   1
           1       1:   10    1:    5    1:    5
           2       1:   10    1:    5    6:    9
           3       1:   10    6:    9    1:    5
           4       1:   10    6:    9    6:    9

InitMesh: MESH =    20 x    18 x    18 =        6480
InitMesh: (bp) =    10 x     9 x     9 =         810
InitMesh: Mesh cutoff (required, used) =   100.000   100.127 Ry
ExtMesh (bp) on 0 =    58 x    45 x    49 =      127890
New grid distribution:   2
           1       6:   10    1:    9    1:    5
           2       6:   10    1:    9    6:    9
           3       1:    5    1:    9    1:    5
           4       1:    5    1:    9    6:    9
New grid distribution:   3
           1       6:   10    1:    9    1:    5
           2       6:   10    1:    9    6:    9
           3       1:    5    1:    9    1:    5
           4       1:    5    1:    9    6:    9
Setting up quadratic distribution...
ExtMesh (bp) on 0 =    53 x    49 x    49 =      127253
PhiOnMesh: Number of (b)points on node 0 =                  225
PhiOnMesh: nlist on node 0 =                 8072

siesta: Eharris(eV) =    -212.784908


siesta: Eharris(eV) =    -212.784908

:!: SCF did not converge in maximum number of steps.

Using DM_out to compute the final energy and forces

siesta: Atomic forces (eV/Ang):
----------------------------------------
   Tot    0.001294    0.007408   -0.036893
----------------------------------------
   Max    0.762605
   Res    0.496259    sqrt( Sum f_i^2 / 3N )
----------------------------------------
   Max    0.762605    constrained

Stress-tensor-Voigt (kbar):     -266.31     -265.91     -268.12       98.50       83.07      142.06
(Free)E + p*V (eV/cell)     -206.9732
Target enthalpy (eV/cell)     -204.0911

siesta: Stress tensor (static) (eV/Ang**3):
        -0.165563    0.060737    0.088936
         0.060737   -0.165124    0.051542
         0.088936    0.051542   -0.167233

siesta: Pressure (static):        265.92152042  kBar

siesta: Stress tensor (total) (eV/Ang**3):
        -0.166219    0.061479    0.088664
         0.061479   -0.165963    0.051850
         0.088664    0.051850   -0.167346

siesta: Pressure (total):        266.78010420  kBar
 Anneal: Kinetic Energy=   1.875577009015866E-003
 Anneal: Velocity scale factor =    1.03998196931759     
 Anneal: Cell scale factor =   0.994712108023123     

siesta: Temp_ion =     213.532 K

                     ====================================
                        Begin MD step =      9
                     ====================================

superc: Internal auxiliary supercell:     5 x     5 x     5  =     125
superc: Number of atoms, orbitals, and projectors:    250   1000   2250

outcell: Unit cell vectors (Ang):
        2.514994    2.636485    0.000000
        0.000000    2.514834    2.642431
        2.620705    0.000000    2.515199

outcell: Cell vector modules (Ang)   :    3.643658    3.647853    3.632399
outcell: Cell angles (23,13,12) (deg):     59.8950     60.1326     60.0768
outcell: Cell volume (Ang**3)        :     34.1659
New_DM. Step:     9
Initializing Density Matrix...
New grid distribution:   1
           1       1:    9    1:    5    1:    5
           2       1:    9    1:    5    6:    9
           3       1:    9    6:    9    1:    5
           4       1:    9    6:    9    6:    9

InitMesh: MESH =    18 x    18 x    18 =        5832
InitMesh: (bp) =     9 x     9 x     9 =         729
InitMesh: Mesh cutoff (required, used) =   100.000   100.801 Ry
ExtMesh (bp) on 0 =    53 x    49 x    49 =      127253
New grid distribution:   2
           1       1:    9    1:    5    1:    5
           2       1:    9    1:    5    6:    9
           3       1:    9    6:    9    1:    5
           4       1:    9    6:    9    6:    9
New grid distribution:   3
           1       1:    9    1:    5    1:    5
           2       1:    9    1:    5    6:    9
           3       1:    9    6:    9    1:    5
           4       1:    9    6:    9    6:    9
Setting up quadratic distribution...
ExtMesh (bp) on 0 =    53 x    49 x    49 =      127253
PhiOnMesh: Number of (b)points on node 0 =                  225
PhiOnMesh: nlist on node 0 =                 7753

siesta: Eharris(eV) =    -212.633477


siesta: Eharris(eV) =    -212.633477

:!: SCF did not converge in maximum number of steps.

Using DM_out to compute the final energy and forces

siesta: Atomic forces (eV/Ang):
----------------------------------------
   Tot   -0.004994    0.024321    0.015619
----------------------------------------
   Max    0.831707
   Res    0.554844    sqrt( Sum f_i^2 / 3N )
----------------------------------------
   Max    0.831707    constrained

Stress-tensor-Voigt (kbar):     -293.92     -292.73     -294.56      102.05       80.49      151.40
(Free)E + p*V (eV/cell)     -206.3327
Target enthalpy (eV/cell)     -204.0667

siesta: Stress tensor (static) (eV/Ang**3):
        -0.182778    0.062967    0.094794
         0.062967   -0.181922    0.049920
         0.094794    0.049920   -0.183716

siesta: Pressure (static):        292.88947451  kBar

siesta: Stress tensor (total) (eV/Ang**3):
        -0.183451    0.063693    0.094497
         0.063693   -0.182704    0.050240
         0.094497    0.050240   -0.183847

siesta: Pressure (total):        293.73647918  kBar
 Anneal: Kinetic Energy=   1.789429928916568E-003
 Anneal: Velocity scale factor =    1.04279182084105     
 Anneal: Cell scale factor =   0.995774934304403     

siesta: Temp_ion =     204.827 K

                     ====================================
                        Begin MD step =     10
                     ====================================

superc: Internal auxiliary supercell:     5 x     5 x     5  =     125
superc: Number of atoms, orbitals, and projectors:    250   1000   2250

outcell: Unit cell vectors (Ang):
        2.504301    2.625705    0.000000
        0.000000    2.504009    2.633907
        2.604790    0.000000    2.504572

outcell: Cell vector modules (Ang)   :    3.628478    3.634216    3.613560
outcell: Cell angles (23,13,12) (deg):     59.8458     60.1648     60.0930
outcell: Cell volume (Ang**3)        :     33.7200
New_DM. Step:    10
Initializing Density Matrix...
New grid distribution:   1
           1       1:    9    1:    5    1:    5
           2       1:    9    1:    5    6:    9
           3       1:    9    6:    9    1:    5
           4       1:    9    6:    9    6:    9

InitMesh: MESH =    18 x    18 x    18 =        5832
InitMesh: (bp) =     9 x     9 x     9 =         729
InitMesh: Mesh cutoff (required, used) =   100.000   101.548 Ry
ExtMesh (bp) on 0 =    53 x    49 x    49 =      127253
New grid distribution:   2
           1       1:    9    1:    5    1:    5
           2       1:    9    1:    5    6:    9
           3       1:    9    6:    9    1:    5
           4       1:    9    6:    9    6:    9
New grid distribution:   3
           1       1:    9    1:    5    1:    5
           2       1:    9    1:    5    6:    9
           3       1:    9    6:    9    1:    5
           4       1:    9    6:    9    6:    9
Setting up quadratic distribution...
ExtMesh (bp) on 0 =    53 x    49 x    49 =      127253
PhiOnMesh: Number of (b)points on node 0 =                  225
PhiOnMesh: nlist on node 0 =                 7865

siesta: Eharris(eV) =    -212.487136


siesta: Eharris(eV) =    -212.487136

:!: SCF did not converge in maximum number of steps.

Using DM_out to compute the final energy and forces

siesta: Atomic forces (eV/Ang):
----------------------------------------
   Tot   -0.001517   -0.007022   -0.001995
----------------------------------------
   Max    0.905724
   Res    0.631925    sqrt( Sum f_i^2 / 3N )
----------------------------------------
   Max    0.905724    constrained

Stress-tensor-Voigt (kbar):     -318.99     -316.93     -319.06      106.22       78.88      156.01
(Free)E + p*V (eV/cell)     -205.7531
Target enthalpy (eV/cell)     -204.0343

siesta: Stress tensor (static) (eV/Ang**3):
        -0.198422    0.065603    0.097698
         0.065603   -0.197101    0.048900
         0.097698    0.048900   -0.198988

siesta: Pressure (static):        317.50690812  kBar

siesta: Stress tensor (total) (eV/Ang**3):
        -0.199098    0.066296    0.097376
         0.066296   -0.197813    0.049231
         0.097376    0.049231   -0.199142

siesta: Pressure (total):        318.33046778  kBar
 Anneal: Kinetic Energy=   1.673991081910448E-003
 Anneal: Velocity scale factor =    1.04699634052517     
 Anneal: Cell scale factor =   0.996759119006908     

siesta: Temp_ion =     193.161 K

                     ====================================
                        Begin MD step =     11
                     ====================================

superc: Internal auxiliary supercell:     5 x     5 x     5  =     125
superc: Number of atoms, orbitals, and projectors:    250   1000   2250

outcell: Unit cell vectors (Ang):
        2.496172    2.614533    0.000000
        0.000000    2.495663    2.625582
        2.588488    0.000000    2.496455

outcell: Cell vector modules (Ang)   :    3.614783    3.622432    3.596187
outcell: Cell angles (23,13,12) (deg):     59.7907     60.1953     60.1119
outcell: Cell volume (Ang**3)        :     33.3210
New_DM. Step:    11
Initializing Density Matrix...
New grid distribution:   1
           1       1:    9    1:    5    1:    5
           2       1:    9    1:    5    6:    9
           3       1:    9    6:    9    1:    5
           4       1:    9    6:    9    6:    9

InitMesh: MESH =    18 x    18 x    18 =        5832
InitMesh: (bp) =     9 x     9 x     9 =         729
InitMesh: Mesh cutoff (required, used) =   100.000   102.215 Ry
ExtMesh (bp) on 0 =    53 x    49 x    49 =      127253
New grid distribution:   2
           1       1:    9    1:    5    1:    5
           2       1:    9    1:    5    6:    9
           3       1:    9    6:    9    1:    5
           4       1:    9    6:    9    6:    9
New grid distribution:   3
           1       1:    9    1:    5    1:    5
           2       1:    9    1:    5    6:    9
           3       1:    9    6:    9    1:    5
           4       1:    9    6:    9    6:    9
Setting up quadratic distribution...
ExtMesh (bp) on 0 =    53 x    49 x    49 =      127253
PhiOnMesh: Number of (b)points on node 0 =                  225
PhiOnMesh: nlist on node 0 =                 7975

siesta: Eharris(eV) =    -212.347050


siesta: Eharris(eV) =    -212.347050

:!: SCF did not converge in maximum number of steps.

Using DM_out to compute the final energy and forces

siesta: Atomic forces (eV/Ang):
----------------------------------------
   Tot   -0.015785    0.015363   -0.009969
----------------------------------------
   Max    1.000534
   Res    0.704491    sqrt( Sum f_i^2 / 3N )
----------------------------------------
   Max    1.000534    constrained

Stress-tensor-Voigt (kbar):     -342.07     -342.21     -342.08      106.23       78.32      163.17
(Free)E + p*V (eV/cell)     -205.1997
Target enthalpy (eV/cell)     -203.9960

siesta: Stress tensor (static) (eV/Ang**3):
        -0.212843    0.065657    0.102190
         0.065657   -0.212959    0.048544
         0.102190    0.048544   -0.213323

siesta: Pressure (static):        341.33428923  kBar

siesta: Stress tensor (total) (eV/Ang**3):
        -0.213502    0.066302    0.101843
         0.066302   -0.213590    0.048883
         0.101843    0.048883   -0.213505

siesta: Pressure (total):        342.12068372  kBar
 Anneal: Kinetic Energy=   1.535632290251063E-003
 Anneal: Velocity scale factor =    1.05284040991129     
 Anneal: Cell scale factor =   0.997682518238475     

siesta: Temp_ion =     179.180 K

                     ====================================
                        Begin MD step =     12
                     ====================================

superc: Internal auxiliary supercell:     5 x     5 x     5  =     125
superc: Number of atoms, orbitals, and projectors:    250   1000   2250

outcell: Unit cell vectors (Ang):
        2.490377    2.603410    0.000000
        0.000000    2.489873    2.617343
        2.571542    0.000000    2.490669

outcell: Cell vector modules (Ang)   :    3.602738    3.612472    3.579981
outcell: Cell angles (23,13,12) (deg):     59.7303     60.2293     60.1282
outcell: Cell volume (Ang**3)        :     32.9665
New_DM. Step:    12
Initializing Density Matrix...
New grid distribution:   1
           1       1:    9    1:    5    1:    5
           2       1:    9    1:    5    6:    9
           3       1:    9    6:    9    1:    5
           4       1:    9    6:    9    6:    9

InitMesh: MESH =    18 x    18 x    18 =        5832
InitMesh: (bp) =     9 x     9 x     9 =         729
InitMesh: Mesh cutoff (required, used) =   100.000   102.792 Ry
ExtMesh (bp) on 0 =    53 x    49 x    49 =      127253
New grid distribution:   2
           1       1:    9    1:    5    1:    5
           2       1:    9    1:    5    6:    9
           3       1:    9    6:    9    1:    5
           4       1:    9    6:    9    6:    9
New grid distribution:   3
           1       1:    9    1:    5    1:    5
           2       1:    9    1:    5    6:    9
           3       1:    9    6:    9    1:    5
           4       1:    9    6:    9    6:    9
Setting up quadratic distribution...
ExtMesh (bp) on 0 =    53 x    49 x    49 =      127253
PhiOnMesh: Number of (b)points on node 0 =                  225
PhiOnMesh: nlist on node 0 =                 8070

siesta: Eharris(eV) =    -212.214421


siesta: Eharris(eV) =    -212.214421

:!: SCF did not converge in maximum number of steps.

Using DM_out to compute the final energy and forces

siesta: Atomic forces (eV/Ang):
----------------------------------------
   Tot   -0.031995    0.002261   -0.003899
----------------------------------------
   Max    1.043467
   Res    0.752176    sqrt( Sum f_i^2 / 3N )
----------------------------------------
   Max    1.043467    constrained

Stress-tensor-Voigt (kbar):     -369.37     -366.50     -366.88      105.19       75.75      168.91
(Free)E + p*V (eV/cell)     -204.6206
Target enthalpy (eV/cell)     -203.9537

siesta: Stress tensor (static) (eV/Ang**3):
        -0.229911    0.065076    0.105790
         0.065076   -0.228213    0.046941
         0.105790    0.046941   -0.228772

siesta: Pressure (static):        366.84724110  kBar

siesta: Stress tensor (total) (eV/Ang**3):
        -0.230539    0.065657    0.105422
         0.065657   -0.228751    0.047281
         0.105422    0.047281   -0.228988

siesta: Pressure (total):        367.58494363  kBar
 Anneal: Kinetic Energy=   1.398658195914055E-003
 Anneal: Velocity scale factor =    1.05972319682843     
 Anneal: Cell scale factor =   0.998677200248113     

siesta: Temp_ion =     165.338 K

                     ====================================
                        Begin MD step =     13
                     ====================================

superc: Internal auxiliary supercell:     5 x     5 x     5  =     125
superc: Number of atoms, orbitals, and projectors:    250   1000   2250

outcell: Unit cell vectors (Ang):
        2.487319    2.592444    0.000000
        0.000000    2.486519    2.609401
        2.554113    0.000000    2.487375

outcell: Cell vector modules (Ang)   :    3.592704    3.604407    3.565182
outcell: Cell angles (23,13,12) (deg):     59.6629     60.2653     60.1461
outcell: Cell volume (Ang**3)        :     32.6617
New_DM. Step:    13
Initializing Density Matrix...
New grid distribution:   1
           1       1:    9    1:    5    1:    5
           2       1:    9    1:    5    6:    9
           3       1:    9    6:    9    1:    5
           4       1:    9    6:    9    6:    9

InitMesh: MESH =    18 x    18 x    18 =        5832
InitMesh: (bp) =     9 x     9 x     9 =         729
InitMesh: Mesh cutoff (required, used) =   100.000   103.250 Ry
ExtMesh (bp) on 0 =    53 x    49 x    49 =      127253
New grid distribution:   2
           1       1:    9    1:    5    1:    5
           2       1:    9    1:    5    6:    9
           3       1:    9    6:    9    1:    5
           4       1:    9    6:    9    6:    9
New grid distribution:   3
           1       1:    9    1:    5    1:    5
           2       1:    9    1:    5    6:    9
           3       1:    9    6:    9    1:    5
           4       1:    9    6:    9    6:    9
Setting up quadratic distribution...
ExtMesh (bp) on 0 =    53 x    49 x    49 =      127253
PhiOnMesh: Number of (b)points on node 0 =                  225
PhiOnMesh: nlist on node 0 =                 8155

siesta: Eharris(eV) =    -212.093660


siesta: Eharris(eV) =    -212.093660

:!: SCF did not converge in maximum number of steps.

Using DM_out to compute the final energy and forces

siesta: Atomic forces (eV/Ang):
----------------------------------------
   Tot   -0.023745    0.004246   -0.008356
----------------------------------------
   Max    1.070219
   Res    0.785784    sqrt( Sum f_i^2 / 3N )
----------------------------------------
   Max    1.070219    constrained

Stress-tensor-Voigt (kbar):     -392.61     -388.12     -387.51      106.67       72.92      176.46
(Free)E + p*V (eV/cell)     -204.1262
Target enthalpy (eV/cell)     -203.9104

siesta: Stress tensor (static) (eV/Ang**3):
        -0.244455    0.066068    0.110526
         0.066068   -0.241805    0.045178
         0.110526    0.045178   -0.241606

siesta: Pressure (static):        388.72728951  kBar

siesta: Stress tensor (total) (eV/Ang**3):
        -0.245043    0.066577    0.110136
         0.066577   -0.242245    0.045516
         0.110136    0.045516   -0.241865

siesta: Pressure (total):        389.41476066  kBar
 Anneal: Kinetic Energy=   1.281915616196030E-003
 Anneal: Velocity scale factor =    1.06670459045835     
 Anneal: Cell scale factor =   0.999504209971397     

siesta: Temp_ion =     153.541 K

                     ====================================
                        Begin MD step =     14
                     ====================================

superc: Internal auxiliary supercell:     5 x     5 x     5  =     125
superc: Number of atoms, orbitals, and projectors:    250   1000   2250

outcell: Unit cell vectors (Ang):
        2.486577    2.581371    0.000000
        0.000000    2.485322    2.601779
        2.536026    0.000000    2.486141

outcell: Cell vector modules (Ang)   :    3.584207    3.598066    3.551384
outcell: Cell angles (23,13,12) (deg):     59.5884     60.3032     60.1669
outcell: Cell volume (Ang**3)        :     32.3966
New_DM. Step:    14
Initializing Density Matrix...
New grid distribution:   1
           1       1:    9    1:    5    1:    5
           2       1:    9    1:    5    6:    9
           3       1:    9    6:    9    1:    5
           4       1:    9    6:    9    6:    9

InitMesh: MESH =    18 x    18 x    18 =        5832
InitMesh: (bp) =     9 x     9 x     9 =         729
InitMesh: Mesh cutoff (required, used) =   100.000   103.612 Ry
ExtMesh (bp) on 0 =    53 x    49 x    49 =      127253
New grid distribution:   2
           1       1:    9    1:    5    1:    5
           2       1:    9    1:    5    6:    9
           3       1:    9    6:    9    1:    5
           4       1:    9    6:    9    6:    9
New grid distribution:   3
           1       1:    9    1:    5    1:    5
           2       1:    9    1:    5    6:    9
           3       1:    9    6:    9    1:    5
           4       1:    9    6:    9    6:    9
Setting up quadratic distribution...
ExtMesh (bp) on 0 =    53 x    49 x    49 =      127253
PhiOnMesh: Number of (b)points on node 0 =                  225
PhiOnMesh: nlist on node 0 =                 8209

siesta: Eharris(eV) =    -211.983936


siesta: Eharris(eV) =    -211.983936

:!: SCF did not converge in maximum number of steps.

Using DM_out to compute the final energy and forces

siesta: Atomic forces (eV/Ang):
----------------------------------------
   Tot   -0.010875   -0.002148   -0.006879
----------------------------------------
   Max    1.066370
   Res    0.802540    sqrt( Sum f_i^2 / 3N )
----------------------------------------
   Max    1.066370    constrained

Stress-tensor-Voigt (kbar):     -408.64     -408.30     -404.63      106.94       71.39      182.08
(Free)E + p*V (eV/cell)     -203.7227
Target enthalpy (eV/cell)     -203.8681

siesta: Stress tensor (static) (eV/Ang**3):
        -0.254507    0.066315    0.114058
         0.066315   -0.254494    0.044224
         0.114058    0.044224   -0.252229

siesta: Pressure (static):        406.54618197  kBar

siesta: Stress tensor (total) (eV/Ang**3):
        -0.255049    0.066747    0.113642
         0.066747   -0.254839    0.044556
         0.113642    0.044556   -0.252548

siesta: Pressure (total):        407.19010182  kBar
 Anneal: Kinetic Energy=   1.195723716351319E-003
 Anneal: Velocity scale factor =    1.07269723229206     
 Anneal: Cell scale factor =    1.00019026510441     

siesta: Temp_ion =     144.831 K

                     ====================================
                        Begin MD step =     15
                     ====================================

superc: Internal auxiliary supercell:     5 x     5 x     5  =     125
superc: Number of atoms, orbitals, and projectors:    250   1000   2250

outcell: Unit cell vectors (Ang):
        2.487430    2.570317    0.000000
        0.000000    2.486133    2.594341
        2.517493    0.000000    2.486614

outcell: Cell vector modules (Ang)   :    3.576847    3.593253    3.538506
outcell: Cell angles (23,13,12) (deg):     59.5110     60.3458     60.1857
outcell: Cell volume (Ang**3)        :     32.1648
New_DM. Step:    15
Initializing Density Matrix...
New grid distribution:   1
           1       1:    9    1:    5    1:    5
           2       1:    9    1:    5    6:    9
           3       1:    9    6:    9    1:    5
           4       1:    9    6:    9    6:    9

InitMesh: MESH =    18 x    18 x    18 =        5832
InitMesh: (bp) =     9 x     9 x     9 =         729
InitMesh: Mesh cutoff (required, used) =   100.000   103.906 Ry
ExtMesh (bp) on 0 =    53 x    49 x    49 =      127253
New grid distribution:   2
           1       1:    9    1:    5    1:    5
           2       1:    9    1:    5    6:    9
           3       1:    9    6:    9    1:    5
           4       1:    9    6:    9    6:    9
New grid distribution:   3
           1       1:    9    1:    5    1:    5
           2       1:    9    1:    5    6:    9
           3       1:    9    6:    9    1:    5
           4       1:    9    6:    9    6:    9
Setting up quadratic distribution...
ExtMesh (bp) on 0 =    53 x    49 x    49 =      127253
PhiOnMesh: Number of (b)points on node 0 =                  225
PhiOnMesh: nlist on node 0 =                 8300

siesta: Eharris(eV) =    -211.884715


siesta: Eharris(eV) =    -211.884715

:!: SCF did not converge in maximum number of steps.

Using DM_out to compute the final energy and forces

siesta: Atomic forces (eV/Ang):
----------------------------------------
   Tot   -0.003818   -0.008150    0.004204
----------------------------------------
   Max    1.081244
   Res    0.828557    sqrt( Sum f_i^2 / 3N )
----------------------------------------
   Max    1.081244    constrained

Stress-tensor-Voigt (kbar):     -430.56     -427.90     -421.53      107.03       68.80      187.81
(Free)E + p*V (eV/cell)     -203.2924
Target enthalpy (eV/cell)     -203.8277

siesta: Stress tensor (static) (eV/Ang**3):
        -0.268238    0.066451    0.117665
         0.066451   -0.266820    0.042621
         0.117665    0.042621   -0.262697

siesta: Pressure (static):        426.05236689  kBar

siesta: Stress tensor (total) (eV/Ang**3):
        -0.268731    0.066805    0.117222
         0.066805   -0.267074    0.042940
         0.117222    0.042940   -0.263096

siesta: Pressure (total):        426.66451894  kBar
 Anneal: Kinetic Energy=   1.142143417551000E-003
 Anneal: Velocity scale factor =    1.07685863189531     
 Anneal: Cell scale factor =    1.00086750288469     

siesta: Temp_ion =     139.417 K

                     ====================================
                        Begin MD step =     16
                     ====================================

superc: Internal auxiliary supercell:     5 x     5 x     5  =     125
superc: Number of atoms, orbitals, and projectors:    250   1000   2250

outcell: Unit cell vectors (Ang):
        2.490461    2.559302    0.000000
        0.000000    2.488893    2.587196
        2.498514    0.000000    2.488772

outcell: Cell vector modules (Ang)   :    3.571053    3.590010    3.526550
outcell: Cell angles (23,13,12) (deg):     59.4300     60.3896     60.2074
outcell: Cell volume (Ang**3)        :     31.9703
New_DM. Step:    16
Initializing Density Matrix...
New grid distribution:   1
           1       1:    9    1:    5    1:    5
           2       1:    9    1:    5    6:    9
           3       1:    9    6:    9    1:    5
           4       1:    9    6:    9    6:    9

InitMesh: MESH =    18 x    18 x    18 =        5832
InitMesh: (bp) =     9 x     9 x     9 =         729
InitMesh: Mesh cutoff (required, used) =   100.000   104.102 Ry
ExtMesh (bp) on 0 =    53 x    49 x    49 =      127253
New grid distribution:   2
           1       1:    9    1:    5    1:    5
           2       1:    9    1:    5    6:    9
           3       1:    9    6:    9    1:    5
           4       1:    9    6:    9    6:    9
New grid distribution:   3
           1       1:    9    1:    5    1:    5
           2       1:    9    1:    5    6:    9
           3       1:    9    6:    9    1:    5
           4       1:    9    6:    9    6:    9
Setting up quadratic distribution...
ExtMesh (bp) on 0 =    53 x    49 x    49 =      127253
PhiOnMesh: Number of (b)points on node 0 =                  225
PhiOnMesh: nlist on node 0 =                 8346

siesta: Eharris(eV) =    -211.799195


siesta: Eharris(eV) =    -211.799195

:!: SCF did not converge in maximum number of steps.

Using DM_out to compute the final energy and forces

siesta: Atomic forces (eV/Ang):
----------------------------------------
   Tot   -0.009477    0.005450    0.009681
----------------------------------------
   Max    1.056581
   Res    0.838055    sqrt( Sum f_i^2 / 3N )
----------------------------------------
   Max    1.056581    constrained

Stress-tensor-Voigt (kbar):     -447.51     -443.38     -433.90      108.09       66.50      189.24
(Free)E + p*V (eV/cell)     -202.9614
Target enthalpy (eV/cell)     -203.7915

siesta: Stress tensor (static) (eV/Ang**3):
        -0.278876    0.067194    0.118580
         0.067194   -0.276564    0.041214
         0.118580    0.041214   -0.270313

siesta: Pressure (static):        441.00562813  kBar

siesta: Stress tensor (total) (eV/Ang**3):
        -0.279312    0.067466    0.118111
         0.067466   -0.276735    0.041508
         0.118111    0.041508   -0.270817

siesta: Pressure (total):        441.59892111  kBar
 Anneal: Kinetic Energy=   1.122013926553549E-003
 Anneal: Velocity scale factor =    1.07852022544356     
 Anneal: Cell scale factor =    1.00136352410193     

siesta: Temp_ion =     137.383 K

                     ====================================
                        Begin MD step =     17
                     ====================================

superc: Internal auxiliary supercell:     5 x     5 x     5  =     125
superc: Number of atoms, orbitals, and projectors:    250   1000   2250

outcell: Unit cell vectors (Ang):
        2.495181    2.548225    0.000000
        0.000000    2.493197    2.580312
        2.479533    0.000000    2.492165

outcell: Cell vector modules (Ang)   :    3.566424    3.588041    3.515533
outcell: Cell angles (23,13,12) (deg):     59.3494     60.4321     60.2324
outcell: Cell volume (Ang**3)        :     31.8072
New_DM. Step:    17
Initializing Density Matrix...
New grid distribution:   1
           1       1:    9    1:    5    1:    5
           2       1:    9    1:    5    6:    9
           3       1:    9    6:    9    1:    5
           4       1:    9    6:    9    6:    9

InitMesh: MESH =    18 x    18 x    18 =        5832
InitMesh: (bp) =     9 x     9 x     9 =         729
InitMesh: Mesh cutoff (required, used) =   100.000   104.228 Ry
ExtMesh (bp) on 0 =    53 x    49 x    49 =      127253
New grid distribution:   2
           1       1:    9    1:    5    1:    5
           2       1:    9    1:    5    6:    9
           3       1:    9    6:    9    1:    5
           4       1:    9    6:    9    6:    9
New grid distribution:   3
           1       1:    9    1:    5    1:    5
           2       1:    9    1:    5    6:    9
           3       1:    9    6:    9    1:    5
           4       1:    9    6:    9    6:    9
Setting up quadratic distribution...
ExtMesh (bp) on 0 =    53 x    49 x    49 =      127253
PhiOnMesh: Number of (b)points on node 0 =                  225
PhiOnMesh: nlist on node 0 =                 8406

siesta: Eharris(eV) =    -211.726500


siesta: Eharris(eV) =    -211.726500

:!: SCF did not converge in maximum number of steps.

Using DM_out to compute the final energy and forces

siesta: Atomic forces (eV/Ang):
----------------------------------------
   Tot   -0.018016    0.007407   -0.002449
----------------------------------------
   Max    1.027269
   Res    0.839335    sqrt( Sum f_i^2 / 3N )
----------------------------------------
   Max    1.027269    constrained

Stress-tensor-Voigt (kbar):     -461.33     -457.28     -444.23      107.66       65.29      189.43
(Free)E + p*V (eV/cell)     -202.6826
Target enthalpy (eV/cell)     -203.7602

siesta: Stress tensor (static) (eV/Ang**3):
        -0.287566    0.067006    0.118715
         0.067006   -0.285313    0.040505
         0.118715    0.040505   -0.276624

siesta: Pressure (static):        453.68997244  kBar

siesta: Stress tensor (total) (eV/Ang**3):
        -0.287935    0.067195    0.118231
         0.067195   -0.285409    0.040752
         0.118231    0.040752   -0.277261

siesta: Pressure (total):        454.27822294  kBar
 Anneal: Kinetic Energy=   1.141617327968019E-003
 Anneal: Velocity scale factor =    1.07690134446674     
 Anneal: Cell scale factor =    1.00177749319020     

siesta: Temp_ion =     139.364 K

                     ====================================
                        Begin MD step =     18
                     ====================================

superc: Internal auxiliary supercell:     5 x     5 x     5  =     125
superc: Number of atoms, orbitals, and projectors:    250   1000   2250

outcell: Unit cell vectors (Ang):
        2.501283    2.537241    0.000000
        0.000000    2.498894    2.573576
        2.460674    0.000000    2.496595

outcell: Cell vector modules (Ang)   :    3.562866    3.587167    3.505410
outcell: Cell angles (23,13,12) (deg):     59.2716     60.4746     60.2585
outcell: Cell volume (Ang**3)        :     31.6725
New_DM. Step:    18
Initializing Density Matrix...
New grid distribution:   1
           1       1:    9    1:    5    1:    5
           2       1:    9    1:    5    6:    9
           3       1:    9    6:    9    1:    5
           4       1:    9    6:    9    6:    9

InitMesh: MESH =    18 x    18 x    18 =        5832
InitMesh: (bp) =     9 x     9 x     9 =         729
InitMesh: Mesh cutoff (required, used) =   100.000   104.293 Ry
ExtMesh (bp) on 0 =    53 x    49 x    49 =      127253
New grid distribution:   2
           1       1:    9    1:    5    1:    5
           2       1:    9    1:    5    6:    9
           3       1:    9    6:    9    1:    5
           4       1:    9    6:    9    6:    9
New grid distribution:   3
           1       1:    9    1:    5    1:    5
           2       1:    9    1:    5    6:    9
           3       1:    9    6:    9    1:    5
           4       1:    9    6:    9    6:    9
Setting up quadratic distribution...
ExtMesh (bp) on 0 =    53 x    49 x    49 =      127253
PhiOnMesh: Number of (b)points on node 0 =                  225
PhiOnMesh: nlist on node 0 =                 8461

siesta: Eharris(eV) =    -211.666656


siesta: Eharris(eV) =    -211.666656

:!: SCF did not converge in maximum number of steps.

Using DM_out to compute the final energy and forces

siesta: Atomic forces (eV/Ang):
----------------------------------------
   Tot   -0.015394    0.008305    0.003707
----------------------------------------
   Max    1.035449
   Res    0.834060    sqrt( Sum f_i^2 / 3N )
----------------------------------------
   Max    1.035449    constrained

Stress-tensor-Voigt (kbar):     -474.51     -471.45     -452.60      105.69       62.79      188.15
(Free)E + p*V (eV/cell)     -202.4261
Target enthalpy (eV/cell)     -203.7345

siesta: Stress tensor (static) (eV/Ang**3):
        -0.295868    0.065861    0.117917
         0.065861   -0.294217    0.039017
         0.117917    0.039017   -0.281697

siesta: Pressure (static):        465.58823478  kBar

siesta: Stress tensor (total) (eV/Ang**3):
        -0.296161    0.065966    0.117435
         0.065966   -0.294255    0.039190
         0.117435    0.039190   -0.282490

siesta: Pressure (total):        466.18830054  kBar
 Anneal: Kinetic Energy=   1.201147125666600E-003
 Anneal: Velocity scale factor =    1.07229585393828     
 Anneal: Cell scale factor =    1.00211298993335     

siesta: Temp_ion =     145.379 K

                     ====================================
                        Begin MD step =     19
                     ====================================

superc: Internal auxiliary supercell:     5 x     5 x     5  =     125
superc: Number of atoms, orbitals, and projectors:    250   1000   2250

outcell: Unit cell vectors (Ang):
        2.508715    2.526504    0.000000
        0.000000    2.506021    2.567122
        2.442080    0.000000    2.501870

outcell: Cell vector modules (Ang)   :    3.560459    3.587514    3.496156
outcell: Cell angles (23,13,12) (deg):     59.1984     60.5168     60.2851
outcell: Cell volume (Ang**3)        :     31.5679
New_DM. Step:    19
Initializing Density Matrix...
New grid distribution:   1
           1       1:    9    1:    5    1:    5
           2       1:    9    1:    5    6:    9
           3       1:    9    6:    9    1:    5
           4       1:    9    6:    9    6:    9

InitMesh: MESH =    18 x    18 x    18 =        5832
InitMesh: (bp) =     9 x     9 x     9 =         729
InitMesh: Mesh cutoff (required, used) =   100.000   104.293 Ry
ExtMesh (bp) on 0 =    53 x    49 x    49 =      127253
New grid distribution:   2
           1       1:    9    1:    5    1:    5
           2       1:    9    1:    5    6:    9
           3       1:    9    6:    9    1:    5
           4       1:    9    6:    9    6:    9
New grid distribution:   3
           1       1:    9    1:    5    1:    5
           2       1:    9    1:    5    6:    9
           3       1:    9    6:    9    1:    5
           4       1:    9    6:    9    6:    9
Setting up quadratic distribution...
ExtMesh (bp) on 0 =    53 x    49 x    49 =      127253
PhiOnMesh: Number of (b)points on node 0 =                  225
PhiOnMesh: nlist on node 0 =                 8473

siesta: Eharris(eV) =    -211.621382


siesta: Eharris(eV) =    -211.621382

:!: SCF did not converge in maximum number of steps.

Using DM_out to compute the final energy and forces

siesta: Atomic forces (eV/Ang):
----------------------------------------
   Tot   -0.010117    0.010482    0.001565
----------------------------------------
   Max    1.028188
   Res    0.815671    sqrt( Sum f_i^2 / 3N )
----------------------------------------
   Max    1.028188    constrained

Stress-tensor-Voigt (kbar):     -482.99     -480.16     -455.64      103.68       61.58      185.50
(Free)E + p*V (eV/cell)     -202.2789
Target enthalpy (eV/cell)     -203.7159

siesta: Stress tensor (static) (eV/Ang**3):
        -0.301244    0.064679    0.116230
         0.064679   -0.299684    0.038371
         0.116230    0.038371   -0.283422

siesta: Pressure (static):        472.30074319  kBar

siesta: Stress tensor (total) (eV/Ang**3):
        -0.301454    0.064709    0.115781
         0.064709   -0.299689    0.038435
         0.115781    0.038435   -0.284387

siesta: Pressure (total):        472.92973977  kBar
 Anneal: Kinetic Energy=   1.298458750634055E-003
 Anneal: Velocity scale factor =    1.06564189961435     
 Anneal: Cell scale factor =    1.00223410910466     

siesta: Temp_ion =     155.213 K

                     ====================================
                        Begin MD step =     20
                     ====================================

superc: Internal auxiliary supercell:     5 x     5 x     5  =     125
superc: Number of atoms, orbitals, and projectors:    250   1000   2250

outcell: Unit cell vectors (Ang):
        2.517016    2.516014    0.000000
        0.000000    2.514043    2.560814
        2.423882    0.000000    2.507460

outcell: Cell vector modules (Ang)   :    3.558889    3.588618    3.487486
outcell: Cell angles (23,13,12) (deg):     59.1318     60.5573     60.3123
outcell: Cell volume (Ang**3)        :     31.4841
New_DM. Step:    20
Initializing Density Matrix...
New grid distribution:   1
           1       1:    9    1:    5    1:    5
           2       1:    9    1:    5    6:    9
           3       1:    9    6:    9    1:    5
           4       1:    9    6:    9    6:    9

InitMesh: MESH =    18 x    18 x    18 =        5832
InitMesh: (bp) =     9 x     9 x     9 =         729
InitMesh: Mesh cutoff (required, used) =   100.000   104.249 Ry
ExtMesh (bp) on 0 =    53 x    49 x    49 =      127253
New grid distribution:   2
           1       1:    9    1:    5    1:    5
           2       1:    9    1:    5    6:    9
           3       1:    9    6:    9    1:    5
           4       1:    9    6:    9    6:    9
New grid distribution:   3
           1       1:    9    1:    5    1:    5
           2       1:    9    1:    5    6:    9
           3       1:    9    6:    9    1:    5
           4       1:    9    6:    9    6:    9
Setting up quadratic distribution...
ExtMesh (bp) on 0 =    53 x    49 x    49 =      127253
PhiOnMesh: Number of (b)points on node 0 =                  225
PhiOnMesh: nlist on node 0 =                 8483

siesta: Eharris(eV) =    -211.587276


siesta: Eharris(eV) =    -211.587276

:!: SCF did not converge in maximum number of steps.

Using DM_out to compute the final energy and forces

siesta: Atomic forces (eV/Ang):
----------------------------------------
   Tot   -0.005550    0.006137   -0.001279
----------------------------------------
   Max    1.007027
   Res    0.792156    sqrt( Sum f_i^2 / 3N )
----------------------------------------
   Max    1.007027    constrained

Stress-tensor-Voigt (kbar):     -489.01     -486.16     -456.63       98.58       60.39      181.16
(Free)E + p*V (eV/cell)     -202.1849
Target enthalpy (eV/cell)     -203.7032

siesta: Stress tensor (static) (eV/Ang**3):
        -0.305083    0.061554    0.113445
         0.061554   -0.303430    0.037772
         0.113445    0.037772   -0.283870

siesta: Pressure (static):        476.59040713  kBar

siesta: Stress tensor (total) (eV/Ang**3):
        -0.305210    0.061529    0.113067
         0.061529   -0.303436    0.037694
         0.113067    0.037694   -0.285000

siesta: Pressure (total):        477.26469036  kBar
 Anneal: Kinetic Energy=   1.426923659881317E-003
 Anneal: Velocity scale factor =    1.05819855305082     
 Anneal: Cell scale factor =    1.00227172766325     

siesta: Temp_ion =     168.195 K

                     ====================================
                        Begin MD step =     21
                     ====================================

superc: Internal auxiliary supercell:     5 x     5 x     5  =     125
superc: Number of atoms, orbitals, and projectors:    250   1000   2250

outcell: Unit cell vectors (Ang):
        2.525951    2.506077    0.000000
        0.000000    2.522699    2.554647
        2.406238    0.000000    2.513156

outcell: Cell vector modules (Ang)   :    3.558208    3.590297    3.479358
outcell: Cell angles (23,13,12) (deg):     59.0727     60.5973     60.3383
outcell: Cell volume (Ang**3)        :     31.4194
New_DM. Step:    21
Initializing Density Matrix...
New grid distribution:   1
           1       1:    9    1:    5    1:    5
           2       1:    9    1:    5    6:    9
           3       1:    9    6:    9    1:    5
           4       1:    9    6:    9    6:    9

InitMesh: MESH =    18 x    18 x    18 =        5832
InitMesh: (bp) =     9 x     9 x     9 =         729
InitMesh: Mesh cutoff (required, used) =   100.000   104.160 Ry
ExtMesh (bp) on 0 =    53 x    49 x    49 =      127253
New grid distribution:   2
           1       1:    9    1:    5    1:    5
           2       1:    9    1:    5    6:    9
           3       1:    9    6:    9    1:    5
           4       1:    9    6:    9    6:    9
New grid distribution:   3
           1       1:    9    1:    5    1:    5
           2       1:    9    1:    5    6:    9
           3       1:    9    6:    9    1:    5
           4       1:    9    6:    9    6:    9
Setting up quadratic distribution...
ExtMesh (bp) on 0 =    53 x    49 x    49 =      127253
PhiOnMesh: Number of (b)points on node 0 =                  225
PhiOnMesh: nlist on node 0 =                 8485

siesta: Eharris(eV) =    -211.563567


siesta: Eharris(eV) =    -211.563567

:!: SCF did not converge in maximum number of steps.

Using DM_out to compute the final energy and forces

siesta: Atomic forces (eV/Ang):
----------------------------------------
   Tot    0.011784    0.010582    0.006103
----------------------------------------
   Max    0.975556
   Res    0.766903    sqrt( Sum f_i^2 / 3N )
----------------------------------------
   Max    0.975556    constrained

Stress-tensor-Voigt (kbar):     -494.93     -492.95     -457.03       93.64       61.09      175.84
(Free)E + p*V (eV/cell)     -202.0953
Target enthalpy (eV/cell)     -203.6961

siesta: Stress tensor (static) (eV/Ang**3):
        -0.308850    0.058499    0.110016
         0.058499   -0.307622    0.038372
         0.110016    0.038372   -0.283981

siesta: Pressure (static):        480.90002138  kBar

siesta: Stress tensor (total) (eV/Ang**3):
        -0.308907    0.058448    0.109748
         0.058448   -0.307669    0.038128
         0.109748    0.038128   -0.285250

siesta: Pressure (total):        481.63314342  kBar
 Anneal: Kinetic Energy=   1.572848384301990E-003
 Anneal: Velocity scale factor =    1.05117069172126     
 Anneal: Cell scale factor =    1.00228459768967     

siesta: Temp_ion =     182.941 K

                     ====================================
                        Begin MD step =     22
                     ====================================

superc: Internal auxiliary supercell:     5 x     5 x     5  =     125
superc: Number of atoms, orbitals, and projectors:    250   1000   2250

outcell: Unit cell vectors (Ang):
        2.535517    2.496670    0.000000
        0.000000    2.532074    2.548425
        2.389232    0.000000    2.518897

outcell: Cell vector modules (Ang)   :    3.558399    3.592474    3.471783
outcell: Cell angles (23,13,12) (deg):     59.0240     60.6356     60.3615
outcell: Cell volume (Ang**3)        :     31.3733
New_DM. Step:    22
Initializing Density Matrix...
New grid distribution:   1
           1       1:    9    1:    5    1:    5
           2       1:    9    1:    5    6:    9
           3       1:    9    6:    9    1:    5
           4       1:    9    6:    9    6:    9

InitMesh: MESH =    18 x    18 x    18 =        5832
InitMesh: (bp) =     9 x     9 x     9 =         729
InitMesh: Mesh cutoff (required, used) =   100.000   104.032 Ry
ExtMesh (bp) on 0 =    53 x    49 x    49 =      127253
New grid distribution:   2
           1       1:    9    1:    5    1:    5
           2       1:    9    1:    5    6:    9
           3       1:    9    6:    9    1:    5
           4       1:    9    6:    9    6:    9
New grid distribution:   3
           1       1:    9    1:    5    1:    5
           2       1:    9    1:    5    6:    9
           3       1:    9    6:    9    1:    5
           4       1:    9    6:    9    6:    9
Setting up quadratic distribution...
ExtMesh (bp) on 0 =    53 x    49 x    49 =      127253
PhiOnMesh: Number of (b)points on node 0 =                  225
PhiOnMesh: nlist on node 0 =                 8504

siesta: Eharris(eV) =    -211.549874


siesta: Eharris(eV) =    -211.549874

:!: SCF did not converge in maximum number of steps.

Using DM_out to compute the final energy and forces

siesta: Atomic forces (eV/Ang):
----------------------------------------
   Tot   -0.004033    0.013486   -0.007235
----------------------------------------
   Max    0.924815
   Res    0.745472    sqrt( Sum f_i^2 / 3N )
----------------------------------------
   Max    0.924815    constrained

Stress-tensor-Voigt (kbar):     -500.19     -498.53     -456.69       88.22       61.44      168.45
(Free)E + p*V (eV/cell)     -202.0273
Target enthalpy (eV/cell)     -203.6945

siesta: Stress tensor (static) (eV/Ang**3):
        -0.312178    0.055098    0.105262
         0.055098   -0.311026    0.038765
         0.105262    0.038765   -0.283687

siesta: Pressure (static):        484.33839793  kBar

siesta: Stress tensor (total) (eV/Ang**3):
        -0.312190    0.055060    0.105136
         0.055060   -0.311155    0.038348
         0.105136    0.038348   -0.285043

[...]
New_DM. Step:    95
Initializing Density Matrix...
New grid distribution:   1
           1       1:   10    1:    5    1:    5
           2       1:   10    1:    5    6:    9
           3       1:   10    6:    9    1:    5
           4       1:   10    6:    9    6:    9

InitMesh: MESH =    20 x    18 x    18 =        6480
InitMesh: (bp) =    10 x     9 x     9 =         810
InitMesh: Mesh cutoff (required, used) =   100.000   101.153 Ry
ExtMesh (bp) on 0 =    58 x    49 x    49 =      139258
New grid distribution:   2
           1       1:    5    1:    9    1:    5
           2       6:   10    1:    9    5:    9
           3       6:   10    1:    9    1:    4
           4       1:    5    1:    9    6:    9
New grid distribution:   3
           1       6:   10    1:    9    1:    5
           2       6:   10    1:    9    6:    9
           3       1:    5    1:    9    1:    5
           4       1:    5    1:    9    6:    9
Setting up quadratic distribution...
ExtMesh (bp) on 0 =    53 x    53 x    49 =      137641
PhiOnMesh: Number of (b)points on node 0 =                  225
PhiOnMesh: nlist on node 0 =                 8287

siesta: Eharris(eV) =    -212.511827


siesta: Eharris(eV) =    -212.511827

:!: SCF did not converge in maximum number of steps.

Using DM_out to compute the final energy and forces

siesta: Atomic forces (eV/Ang):
----------------------------------------
   Tot    0.006406   -0.009816   -0.001560
----------------------------------------
   Max    0.701974
   Res    0.469621    sqrt( Sum f_i^2 / 3N )
----------------------------------------
   Max    0.701974    constrained

Stress-tensor-Voigt (kbar):     -412.33     -375.95     -414.88       22.72       63.73       27.56
(Free)E + p*V (eV/cell)     -204.5307
Target enthalpy (eV/cell)     -204.5515

siesta: Stress tensor (static) (eV/Ang**3):
        -0.256055    0.014576    0.018957
         0.014576   -0.233408    0.040427
         0.018957    0.040427   -0.256553

siesta: Pressure (static):        398.42057446  kBar

siesta: Stress tensor (total) (eV/Ang**3):
        -0.257352    0.014180    0.017200
         0.014180   -0.234648    0.039775
         0.017200    0.039775   -0.258944

siesta: Pressure (total):        401.05252720  kBar
 Anneal: Kinetic Energy=   5.860430510753021E-003
 Anneal: Velocity scale factor =   0.999452330797170     
 Anneal: Cell scale factor =    1.00060733958767     

siesta: Temp_ion =     616.212 K

                     ====================================
                        Begin MD step =     96
                     ====================================

superc: Internal auxiliary supercell:     5 x     5 x     5  =     125
superc: Number of atoms, orbitals, and projectors:    250   1000   2250

outcell: Unit cell vectors (Ang):
        2.958232    2.059585    0.000000
        0.000000    2.855497    2.082672
        2.029175    0.000000    2.729464

outcell: Cell vector modules (Ang)   :    3.604584    3.534315    3.401107
outcell: Cell angles (23,13,12) (deg):     61.7771     60.6831     62.5072
outcell: Cell volume (Ang**3)        :     31.7604
New_DM. Step:    96
Initializing Density Matrix...
New grid distribution:   1
           1       1:   10    1:    5    1:    5
           2       1:   10    1:    5    6:    9
           3       1:   10    6:    9    1:    5
           4       1:   10    6:    9    6:    9

InitMesh: MESH =    20 x    18 x    18 =        6480
InitMesh: (bp) =    10 x     9 x     9 =         810
InitMesh: Mesh cutoff (required, used) =   100.000   101.434 Ry
ExtMesh (bp) on 0 =    58 x    49 x    49 =      139258
New grid distribution:   2
           1       1:    5    1:    9    1:    5
           2       6:   10    1:    9    5:    9
           3       6:   10    1:    9    1:    4
           4       1:    5    1:    9    6:    9
New grid distribution:   3
           1       6:   10    1:    9    1:    5
           2       6:   10    1:    9    6:    9
           3       1:    5    1:    9    1:    5
           4       1:    5    1:    9    6:    9
Setting up quadratic distribution...
ExtMesh (bp) on 0 =    53 x    53 x    49 =      137641
PhiOnMesh: Number of (b)points on node 0 =                  225
PhiOnMesh: nlist on node 0 =                 8304

siesta: Eharris(eV) =    -212.500732


siesta: Eharris(eV) =    -212.500732

:!: SCF did not converge in maximum number of steps.

Using DM_out to compute the final energy and forces

siesta: Atomic forces (eV/Ang):
----------------------------------------
   Tot    0.008819   -0.000512    0.013661
----------------------------------------
   Max    0.741544
   Res    0.449213    sqrt( Sum f_i^2 / 3N )
----------------------------------------
   Max    0.741544    constrained

Stress-tensor-Voigt (kbar):     -411.51     -378.30     -417.57       32.55       67.53       31.75
(Free)E + p*V (eV/cell)     -204.5007
Target enthalpy (eV/cell)     -204.5495

siesta: Stress tensor (static) (eV/Ang**3):
        -0.255726    0.020655    0.021489
         0.020655   -0.234823    0.042903
         0.021489    0.042903   -0.258056

siesta: Pressure (static):        399.80381683  kBar

siesta: Stress tensor (total) (eV/Ang**3):
        -0.256839    0.020313    0.019814
         0.020313   -0.236116    0.042151
         0.019814    0.042151   -0.260625

siesta: Pressure (total):        402.46060762  kBar
 Anneal: Kinetic Energy=   5.830693817851833E-003
 Anneal: Velocity scale factor =   0.999551588398596     
 Anneal: Cell scale factor =    1.00071182729222     

siesta: Temp_ion =     613.207 K

                     ====================================
                        Begin MD step =     97
                     ====================================

superc: Internal auxiliary supercell:     5 x     5 x     5  =     125
superc: Number of atoms, orbitals, and projectors:    250   1000   2250

outcell: Unit cell vectors (Ang):
        2.959561    2.056892    0.000000
        0.000000    2.853025    2.077047
        2.026583    0.000000    2.731407

outcell: Cell vector modules (Ang)   :    3.604138    3.529005    3.401121
outcell: Cell angles (23,13,12) (deg):     61.7922     60.7059     62.5235
outcell: Cell volume (Ang**3)        :     31.7213
New_DM. Step:    97
Initializing Density Matrix...
New grid distribution:   1
           1       1:   10    1:    5    1:    5
           2       1:   10    1:    5    6:    9
           3       1:   10    6:    9    1:    5
           4       1:   10    6:    9    6:    9

InitMesh: MESH =    20 x    18 x    18 =        6480
InitMesh: (bp) =    10 x     9 x     9 =         810
InitMesh: Mesh cutoff (required, used) =   100.000   101.706 Ry
ExtMesh (bp) on 0 =    58 x    49 x    49 =      139258
New grid distribution:   2
           1       1:    5    1:    9    1:    5
           2       6:   10    1:    9    5:    9
           3       6:   10    1:    9    1:    4
           4       1:    5    1:    9    6:    9
New grid distribution:   3
           1       6:   10    1:    9    1:    5
           2       6:   10    1:    9    6:    9
           3       1:    5    1:    9    1:    5
           4       1:    5    1:    9    6:    9
Setting up quadratic distribution...
ExtMesh (bp) on 0 =    53 x    53 x    49 =      137641
PhiOnMesh: Number of (b)points on node 0 =                  225
PhiOnMesh: nlist on node 0 =                 8314

siesta: Eharris(eV) =    -212.487854


siesta: Eharris(eV) =    -212.487854

:!: SCF did not converge in maximum number of steps.

Using DM_out to compute the final energy and forces

siesta: Atomic forces (eV/Ang):
----------------------------------------
   Tot    0.017710    0.006876    0.020962
----------------------------------------
   Max    0.762835
   Res    0.439230    sqrt( Sum f_i^2 / 3N )
----------------------------------------
   Max    0.762835    constrained

Stress-tensor-Voigt (kbar):     -411.49     -381.95     -419.80       41.76       69.17       36.84
(Free)E + p*V (eV/cell)     -204.4589
Target enthalpy (eV/cell)     -204.5463

siesta: Stress tensor (static) (eV/Ang**3):
        -0.255889    0.026323    0.024551
         0.026323   -0.237070    0.043985
         0.024551    0.043985   -0.259322

siesta: Pressure (static):        401.76687924  kBar

siesta: Stress tensor (total) (eV/Ang**3):
        -0.256827    0.026061    0.022995
         0.026061   -0.238392    0.043170
         0.022995    0.043170   -0.262018

siesta: Pressure (total):        404.41368160  kBar
 Anneal: Kinetic Energy=   5.722750773281348E-003
 Anneal: Velocity scale factor =   0.999920471504192     
 Anneal: Cell scale factor =    1.00079742939642     

siesta: Temp_ion =     602.299 K

                     ====================================
                        Begin MD step =     98
                     ====================================

superc: Internal auxiliary supercell:     5 x     5 x     5  =     125
superc: Number of atoms, orbitals, and projectors:    250   1000   2250

outcell: Unit cell vectors (Ang):
        2.960893    2.053441    0.000000
        0.000000    2.850967    2.071297
        2.023576    0.000000    2.733585

outcell: Cell vector modules (Ang)   :    3.603263    3.523959    3.401081
outcell: Cell angles (23,13,12) (deg):     61.8086     60.7310     62.5451
outcell: Cell volume (Ang**3)        :     31.6822
New_DM. Step:    98
Initializing Density Matrix...
New grid distribution:   1
           1       1:   10    1:    5    1:    5
           2       1:   10    1:    5    6:    9
           3       1:   10    6:    9    1:    5
           4       1:   10    6:    9    6:    9

InitMesh: MESH =    20 x    18 x    18 =        6480
InitMesh: (bp) =    10 x     9 x     9 =         810
InitMesh: Mesh cutoff (required, used) =   100.000   101.955 Ry
ExtMesh (bp) on 0 =    58 x    49 x    49 =      139258
New grid distribution:   2
           1       1:    5    1:    9    1:    5
           2       6:   10    1:    9    5:    9
           3       6:   10    1:    9    1:    4
           4       1:    5    1:    9    6:    9
New grid distribution:   3
           1       6:   10    1:    9    1:    5
           2       6:   10    1:    9    6:    9
           3       1:    5    1:    9    1:    5
           4       1:    5    1:    9    6:    9
Setting up quadratic distribution...
ExtMesh (bp) on 0 =    53 x    53 x    49 =      137641
PhiOnMesh: Number of (b)points on node 0 =                  225
PhiOnMesh: nlist on node 0 =                 8335

siesta: Eharris(eV) =    -212.474140


siesta: Eharris(eV) =    -212.474140

:!: SCF did not converge in maximum number of steps.

Using DM_out to compute the final energy and forces

siesta: Atomic forces (eV/Ang):
----------------------------------------
   Tot    0.017946    0.002159    0.010081
----------------------------------------
   Max    0.764397
   Res    0.442939    sqrt( Sum f_i^2 / 3N )
----------------------------------------
   Max    0.764397    constrained

Stress-tensor-Voigt (kbar):     -411.68     -386.08     -421.48       51.04       70.66       41.29
(Free)E + p*V (eV/cell)     -204.4154
Target enthalpy (eV/cell)     -204.5422

siesta: Stress tensor (static) (eV/Ang**3):
        -0.256169    0.032020    0.027177
         0.032020   -0.239641    0.044942
         0.027177    0.044942   -0.260297

siesta: Pressure (static):        403.80984937  kBar

siesta: Stress tensor (total) (eV/Ang**3):
        -0.256949    0.031854    0.025769
         0.031854   -0.240968    0.044102
         0.025769    0.044102   -0.263063

siesta: Pressure (total):        406.41265806  kBar
 Anneal: Kinetic Energy=   5.547830829299192E-003
 Anneal: Velocity scale factor =    1.00054840550456     
 Anneal: Cell scale factor =    1.00086087942162     

siesta: Temp_ion =     584.623 K

                     ====================================
                        Begin MD step =     99
                     ====================================

superc: Internal auxiliary supercell:     5 x     5 x     5  =     125
superc: Number of atoms, orbitals, and projectors:    250   1000   2250

outcell: Unit cell vectors (Ang):
        2.962252    2.049231    0.000000
        0.000000    2.849377    2.065434
        2.020211    0.000000    2.735939

outcell: Cell vector modules (Ang)   :    3.601983    3.519228    3.400973
outcell: Cell angles (23,13,12) (deg):     61.8270     60.7573     62.5723
outcell: Cell volume (Ang**3)        :     31.6435
New_DM. Step:    99
Initializing Density Matrix...
New grid distribution:   1
           1       1:   10    1:    5    1:    5
           2       1:   10    1:    5    6:    9
           3       1:   10    6:    9    1:    5
           4       1:   10    6:    9    6:    9

InitMesh: MESH =    20 x    18 x    18 =        6480
InitMesh: (bp) =    10 x     9 x     9 =         810
InitMesh: Mesh cutoff (required, used) =   100.000   102.177 Ry
ExtMesh (bp) on 0 =    58 x    49 x    49 =      139258
New grid distribution:   2
           1       1:    5    1:    9    1:    5
           2       6:   10    1:    9    5:    9
           3       6:   10    1:    9    1:    4
           4       1:    5    1:    9    6:    9
New grid distribution:   3
           1       6:   10    1:    9    1:    5
           2       6:   10    1:    9    6:    9
           3       1:    5    1:    9    1:    5
           4       1:    5    1:    9    6:    9
Setting up quadratic distribution...
ExtMesh (bp) on 0 =    53 x    53 x    49 =      137641
PhiOnMesh: Number of (b)points on node 0 =                  225
PhiOnMesh: nlist on node 0 =                 8352

siesta: Eharris(eV) =    -212.459850


siesta: Eharris(eV) =    -212.459850

:!: SCF did not converge in maximum number of steps.

Using DM_out to compute the final energy and forces

siesta: Atomic forces (eV/Ang):
----------------------------------------
   Tot    0.018462    0.017053    0.007046
----------------------------------------
   Max    0.757126
   Res    0.462113    sqrt( Sum f_i^2 / 3N )
----------------------------------------
   Max    0.757126    constrained

Stress-tensor-Voigt (kbar):     -411.18     -392.20     -424.42       60.36       70.93       44.71
(Free)E + p*V (eV/cell)     -204.3545
Target enthalpy (eV/cell)     -204.5375

siesta: Stress tensor (static) (eV/Ang**3):
        -0.255988    0.037733    0.029152
         0.037733   -0.243479    0.045098
         0.029152    0.045098   -0.262117

siesta: Pressure (static):        406.73475884  kBar

siesta: Stress tensor (total) (eV/Ang**3):
        -0.256634    0.037671    0.027907
         0.037671   -0.244787    0.044271
         0.027907    0.044271   -0.264899

siesta: Pressure (total):        409.26428410  kBar
 Anneal: Kinetic Energy=   5.318454070755789E-003
 Anneal: Velocity scale factor =    1.00143375571758     
 Anneal: Cell scale factor =    1.00097515782834     

siesta: Temp_ion =     561.444 K

                     ====================================
                        Begin MD step =    100
                     ====================================

superc: Internal auxiliary supercell:     5 x     5 x     5  =     125
superc: Number of atoms, orbitals, and projectors:    250   1000   2250

outcell: Unit cell vectors (Ang):
        2.963556    2.044263    0.000000
        0.000000    2.848482    2.059560
        2.016574    0.000000    2.738607

outcell: Cell vector modules (Ang)   :    3.600233    3.515059    3.400961
outcell: Cell angles (23,13,12) (deg):     61.8480     60.7852     62.6041
outcell: Cell volume (Ang**3)        :     31.6087
New_DM. Step:   100
Initializing Density Matrix...
New grid distribution:   1
           1       1:   10    1:    5    1:    5
           2       1:   10    1:    5    6:    9
           3       1:   10    6:    9    1:    5
           4       1:   10    6:    9    6:    9

InitMesh: MESH =    20 x    18 x    18 =        6480
InitMesh: (bp) =    10 x     9 x     9 =         810
InitMesh: Mesh cutoff (required, used) =   100.000   102.359 Ry
ExtMesh (bp) on 0 =    58 x    49 x    49 =      139258
New grid distribution:   2
           1       1:    5    1:    9    1:    5
           2       6:   10    1:    9    5:    9
           3       6:   10    1:    9    1:    4
           4       1:    5    1:    9    6:    9
New grid distribution:   3
           1       6:   10    1:    9    1:    5
           2       6:   10    1:    9    6:    9
           3       1:    5    1:    9    1:    5
           4       1:    5    1:    9    6:    9
Setting up quadratic distribution...
ExtMesh (bp) on 0 =    53 x    53 x    49 =      137641
PhiOnMesh: Number of (b)points on node 0 =                  225
PhiOnMesh: nlist on node 0 =                 8366

siesta: Eharris(eV) =    -212.446346


siesta: Eharris(eV) =    -212.446346

:!: SCF did not converge in maximum number of steps.

Using DM_out to compute the final energy and forces

siesta: Atomic forces (eV/Ang):
----------------------------------------
   Tot    0.025771   -0.011435    0.023542
----------------------------------------
   Max    0.736666
   Res    0.489857    sqrt( Sum f_i^2 / 3N )
----------------------------------------
   Max    0.736666    constrained

Stress-tensor-Voigt (kbar):     -412.48     -397.85     -427.64       70.12       70.82       46.80
(Free)E + p*V (eV/cell)     -204.2829
Target enthalpy (eV/cell)     -204.5326

siesta: Stress tensor (static) (eV/Ang**3):
        -0.256908    0.043717    0.030283
         0.043717   -0.247044    0.044978
         0.030283    0.044978   -0.264163

siesta: Pressure (static):        410.22294171  kBar

siesta: Stress tensor (total) (eV/Ang**3):
        -0.257446    0.043765    0.029208
         0.043765   -0.248313    0.044202
         0.029208    0.044202   -0.266910

siesta: Pressure (total):        412.65529059  kBar
 Anneal: Kinetic Energy=   5.043456699939025E-003
 Anneal: Velocity scale factor =    1.00260014703644     
 Anneal: Cell scale factor =    1.00110081454010     

siesta: Temp_ion =     533.655 K

siesta: Program's energy decomposition (eV):
siesta: Ebs     =       -81.512549
siesta: Eions   =       380.802124
siesta: Ena     =       111.787696
siesta: Ekin    =        86.942062
siesta: Enl     =        32.643083
siesta: DEna    =         4.321198
siesta: DUscf   =         0.096087
siesta: DUext   =         0.000000
siesta: Exc     =       -67.411919
siesta: eta*DQ  =         0.000000
siesta: Emadel  =         0.000000
siesta: Emeta   =         0.000000
siesta: Emolmec =         0.000000
siesta: Ekinion =         0.068978
siesta: Eharris =      -212.377368
siesta: Etot    =      -212.354939
siesta: FreeEng =      -212.354939

siesta: Final energy (eV):
siesta:  Band Struct. =     -81.512549
siesta:       Kinetic =      86.942062
siesta:       Hartree =       8.956083
siesta:    Ext. field =       0.000000
siesta:   Exch.-corr. =     -67.411919
siesta:  Ion-electron =     -98.887072
siesta:       Ion-ion =    -142.023070
siesta:       Ekinion =       0.068978
siesta:         Total =    -212.354939

siesta: Atomic forces (eV/Ang):
siesta:      1    0.736666    0.306540    0.325109
siesta:      2   -0.710894   -0.317975   -0.301567
siesta: ----------------------------------------
siesta:    Tot    0.025771   -0.011435    0.023542

siesta: Stress tensor (static) (eV/Ang**3):
siesta:    -0.256908    0.043717    0.030283
siesta:     0.043717   -0.247044    0.044978
siesta:     0.030283    0.044978   -0.264163

siesta: Cell volume =         31.608670 Ang**3

siesta: Pressure (static):
siesta:                Solid            Molecule  Units
siesta:           0.00278858          0.00298705  Ry/Bohr**3
siesta:           0.25603825          0.27426037  eV/Ang**3
siesta:         410.22294171        439.41829873  kBar
(Free)E+ p_basis*V_orbitals  =        -211.847216
(Free)Eharris+ p_basis*V_orbitals  =        -211.869646
>> End of run:  29-SEP-2015  15:40:07
