Siesta Version:                                        siesta-3.0-rc2
Architecture  : macosx-openmpi
Compiler flags: /opt/openmpi.gcc.gfortran/bin/mpif90 -O2
PARALLEL version

* Running on    2 nodes in parallel
>> Start of run:  30-JUN-2010  16:51:31

                           ***********************       
                           *  WELCOME TO SIESTA  *       
                           ***********************       

reinit: Reading from standard input
************************** Dump of input data file ****************************
#
# MgCO3 in primitive cell. SZ. Nose-Parrinello-Rahman. Harris
#
SystemName	MgCo3 R-3c Harris -- SZ, 50 R -- NPR at 10 Gpa, 500K
SystemLabel	md_npr
NumberOfSpecies		3
NumberOfAtoms	       10
%block ChemicalSpeciesLabel
      1      12     Mg
      2       6     C
      3       8     O
%endblock ChemicalSpeciesLabel
PAO.BasisSize  SZ
Diag.Divide-and-Conquer F
# Rhombohedral primitive cell
# (HEX 3-fold cell had A=4.635 and C=15.023, so alpha=48.179 degrees
#  and a=5.67783 Ang)
LatticeConstant     5.67783 Ang
%block LatticeParameters
1.0 1.0 1.0 48.179 48.179 48.179
%endblock LatticeParameters
AtomicCoordinatesFormat    Fractional
%block AtomicCoordinatesAndAtomicSpecies
  0.0         0.0         0.0      1
  0.5         0.5         0.5      1
  0.25        0.25        0.25     2
 -0.25       -0.25       -0.25     2
  0.5274     -0.0274      0.25     3
  0.25        0.5274     -0.0274   3
 -0.0274      0.25        0.5274   3
 -0.5274      0.0274     -0.25     3
 -0.25       -0.5274      0.0274   3
  0.0274     -0.25       -0.5274   3
%endblock AtomicCoordinatesAndAtomicSpecies
kgrid_cutoff 2.0 Ang
Solution.Method       diagon
MeshCutoff             50 Ry
DM.NumberBroyden       4
DM.UseSaveDM           T
DM.MixingWeight        0.1         # New DM amount for next SCF cycle
DM.Tolerance           1.d-3       # Tolerance in maximum difference
                                   # between input and output DM
MaxSCFIterations       20
WriteCoorStep      .true.
WriteForces        .true.
HarrisFunctional T
WriteMDHistory     .true.
MD.UseSaveXV       T
MD.TypeOfRun         NoseParrinelloRahman
MD.Target-pressure   10.0 GPa
MD.Target-temperature   500 K
MD.Initial-temperature   300 K
MD.Initial.Time.Step      1
MD.Final.Time.Step        10
MD.Length.Time.Step       0.3 fs
************************** End of input data file *****************************

reinit: -----------------------------------------------------------------------
reinit: System Name: MgCo3 R-3c Harris -- SZ, 50 R -- NPR at 10 Gpa, 500K
reinit: -----------------------------------------------------------------------
reinit: System Label: md_npr                                                      
reinit: -----------------------------------------------------------------------

initatom: Reading input for the pseudopotentials and atomic orbitals ----------
 Species number:            1  Label: Mg Atomic number:          12
 Species number:            2  Label: C Atomic number:           6
 Species number:            3  Label: O Atomic number:           8
Ground state valence configuration:   3s02
Reading pseudopotential information in formatted form from Mg.psf

Valence configuration for pseudopotential generation:
3s( 2.00) rc: 2.59
3p( 0.00) rc: 2.59
3d( 0.00) rc: 2.59
4f( 0.00) rc: 2.59
Ground state valence configuration:   2s02  2p02
Reading pseudopotential information in formatted form from C.psf

Valence configuration for pseudopotential generation:
2s( 2.00) rc: 1.49
2p( 2.00) rc: 1.52
3d( 0.00) rc: 1.58
Ground state valence configuration:   2s02  2p04
Reading pseudopotential information in formatted form from O.psf

Valence configuration for pseudopotential generation:
2s( 2.00) rc: 1.14
2p( 4.00) rc: 1.14
3d( 0.00) rc: 1.14
4f( 0.00) rc: 1.14
For Mg, standard SIESTA heuristics set lmxkb to 1
 (one more than the basis l, including polarization orbitals).
Use PS.lmax or PS.KBprojectors blocks to override.
For C, standard SIESTA heuristics set lmxkb to 2
 (one more than the basis l, including polarization orbitals).
Use PS.lmax or PS.KBprojectors blocks to override.
For O, standard SIESTA heuristics set lmxkb to 2
 (one more than the basis l, including polarization orbitals).
Use PS.lmax or PS.KBprojectors blocks to override.

<basis_specs>
===============================================================================
Mg                   Z=  12    Mass=  24.310        Charge= 0.17977+309
Lmxo=0 Lmxkb=1     BasisType=split      Semic=F
L=0  Nsemic=0  Cnfigmx=3
          n=1  nzeta=1  polorb=0
            splnorm:   0.15000    
               vcte:    0.0000    
               rinn:    0.0000    
                rcs:    0.0000    
            lambdas:    1.0000    
-------------------------------------------------------------------------------
L=0  Nkbl=1  erefs: 0.17977+309
L=1  Nkbl=1  erefs: 0.17977+309
===============================================================================
</basis_specs>

atom: Called for Mg                    (Z =  12)

read_vps: Pseudopotential generation method:
read_vps: ATM3      Troullier-Martins                       
Total valence charge:    2.00000

xc_check: Exchange-correlation functional:
xc_check: Ceperley-Alder
V l=0 = -2*Zval/r beyond r=  3.5878
V l=1 = -2*Zval/r beyond r=  3.5878
All V_l potentials equal beyond r=  2.5600
This should be close to max(r_c) in ps generation
All pots = -2*Zval/r beyond r=  3.5878
Using large-core scheme for Vlocal

atom: Estimated core radius    3.58779

atom: Including non-local core corrections could be a good idea
atom: Maximum radius for 4*pi*r*r*local-pseudopot. charge    3.91588
atom: Maximum radius for r*vlocal+2*Zval:    3.63292
GHOST: No ghost state for L =  0
GHOST: No ghost state for L =  1

KBgen: Kleinman-Bylander projectors: 
   l= 0   rc=  2.657845   el= -0.351328   Ekb=  2.184400   kbcos=  0.257081
   l= 1   rc=  2.657845   el= -0.101748   Ekb=  0.525536   kbcos=  0.270508

KBgen: Total number of  Kleinman-Bylander projectors:    4
atom: -------------------------------------------------------------------------

atom: SANKEY-TYPE ORBITALS:

SPLIT: Orbitals with angular momentum L= 0

SPLIT: Basis orbitals for state 3s

SPLIT: PAO cut-off radius determined from an
SPLIT: energy shift=  0.020000 Ry

   izeta = 1
                 lambda =    1.000000
                     rc =    6.619780
                 energy =   -0.332103
                kinetic =    0.289627
    potential(screened) =   -0.621729
       potential(ionic) =   -1.387191
atom: Total number of Sankey-type orbitals:  1

atm_pop: Valence configuration (for local Pseudopot. screening):
 3s( 2.00)                                                            
Vna: chval, zval:    2.00000   2.00000

Vna:  Cut-off radius for the neutral-atom potential:   6.619780

atom: _________________________________________________________________________

<basis_specs>
===============================================================================
C                    Z=   6    Mass=  12.010        Charge= 0.17977+309
Lmxo=1 Lmxkb=2     BasisType=split      Semic=F
L=0  Nsemic=0  Cnfigmx=2
          n=1  nzeta=1  polorb=0
            splnorm:   0.15000    
               vcte:    0.0000    
               rinn:    0.0000    
                rcs:    0.0000    
            lambdas:    1.0000    
L=1  Nsemic=0  Cnfigmx=2
          n=1  nzeta=1  polorb=0
            splnorm:   0.15000    
               vcte:    0.0000    
               rinn:    0.0000    
                rcs:    0.0000    
            lambdas:    1.0000    
-------------------------------------------------------------------------------
L=0  Nkbl=1  erefs: 0.17977+309
L=1  Nkbl=1  erefs: 0.17977+309
L=2  Nkbl=1  erefs: 0.17977+309
===============================================================================
</basis_specs>

atom: Called for C                     (Z =   6)

read_vps: Pseudopotential generation method:
read_vps: ATM3      Troullier-Martins                       
Total valence charge:    4.00000

xc_check: Exchange-correlation functional:
xc_check: Ceperley-Alder
V l=0 = -2*Zval/r beyond r=  1.4666
V l=1 = -2*Zval/r beyond r=  1.5038
V l=2 = -2*Zval/r beyond r=  1.5612
All V_l potentials equal beyond r=  1.5612
This should be close to max(r_c) in ps generation
All pots = -2*Zval/r beyond r=  1.5612

VLOCAL1: 99.0% of the norm of Vloc inside     17.809 Ry
VLOCAL1: 99.9% of the norm of Vloc inside     40.586 Ry
atom: Maximum radius for 4*pi*r*r*local-pseudopot. charge    1.88329
atom: Maximum radius for r*vlocal+2*Zval:    1.62091
GHOST: No ghost state for L =  0
GHOST: No ghost state for L =  1
GHOST: No ghost state for L =  2

KBgen: Kleinman-Bylander projectors: 
   l= 0   rc=  1.747182   el= -1.001947   Ekb=  5.181700   kbcos=  0.300603
   l= 1   rc=  1.747182   el= -0.398598   Ekb= -4.328763   kbcos= -0.367074
   l= 2   rc=  1.955272   el=  0.002326   Ekb= -1.016175   kbcos= -0.009979

KBgen: Total number of  Kleinman-Bylander projectors:    9
atom: -------------------------------------------------------------------------

atom: SANKEY-TYPE ORBITALS:

SPLIT: Orbitals with angular momentum L= 0

SPLIT: Basis orbitals for state 2s

SPLIT: PAO cut-off radius determined from an
SPLIT: energy shift=  0.020000 Ry

   izeta = 1
                 lambda =    1.000000
                     rc =    4.191849
                 energy =   -0.983897
                kinetic =    0.886956
    potential(screened) =   -1.870853
       potential(ionic) =   -5.479661

SPLIT: Orbitals with angular momentum L= 1

SPLIT: Basis orbitals for state 2p

SPLIT: PAO cut-off radius determined from an
SPLIT: energy shift=  0.020000 Ry

   izeta = 1
                 lambda =    1.000000
                     rc =    4.870301
                 energy =   -0.379093
                kinetic =    2.545357
    potential(screened) =   -2.924450
       potential(ionic) =   -6.433151
atom: Total number of Sankey-type orbitals:  4

atm_pop: Valence configuration (for local Pseudopot. screening):
 2s( 2.00)                                                            
 2p( 2.00)                                                            
Vna: chval, zval:    4.00000   4.00000

Vna:  Cut-off radius for the neutral-atom potential:   4.870301

atom: _________________________________________________________________________

<basis_specs>
===============================================================================
O                    Z=   8    Mass=  16.000        Charge= 0.17977+309
Lmxo=1 Lmxkb=2     BasisType=split      Semic=F
L=0  Nsemic=0  Cnfigmx=2
          n=1  nzeta=1  polorb=0
            splnorm:   0.15000    
               vcte:    0.0000    
               rinn:    0.0000    
                rcs:    0.0000    
            lambdas:    1.0000    
L=1  Nsemic=0  Cnfigmx=2
          n=1  nzeta=1  polorb=0
            splnorm:   0.15000    
               vcte:    0.0000    
               rinn:    0.0000    
                rcs:    0.0000    
            lambdas:    1.0000    
-------------------------------------------------------------------------------
L=0  Nkbl=1  erefs: 0.17977+309
L=1  Nkbl=1  erefs: 0.17977+309
L=2  Nkbl=1  erefs: 0.17977+309
===============================================================================
</basis_specs>

atom: Called for O                     (Z =   8)

read_vps: Pseudopotential generation method:
read_vps: ATM3      Troullier-Martins                       
Total valence charge:    6.00000

xc_check: Exchange-correlation functional:
xc_check: Ceperley-Alder
V l=0 = -2*Zval/r beyond r=  1.1278
V l=1 = -2*Zval/r beyond r=  1.1278
V l=2 = -2*Zval/r beyond r=  1.1278
All V_l potentials equal beyond r=  1.1278
This should be close to max(r_c) in ps generation
All pots = -2*Zval/r beyond r=  1.1278

VLOCAL1: 99.0% of the norm of Vloc inside     34.126 Ry
VLOCAL1: 99.9% of the norm of Vloc inside     77.774 Ry
atom: Maximum radius for 4*pi*r*r*local-pseudopot. charge    1.37759
atom: Maximum radius for r*vlocal+2*Zval:    1.18566
GHOST: No ghost state for L =  0
GHOST: No ghost state for L =  1
GHOST: No ghost state for L =  2

KBgen: Kleinman-Bylander projectors: 
   l= 0   rc=  1.294105   el= -1.742414   Ekb=  9.135903   kbcos=  0.326910
   l= 1   rc=  1.294105   el= -0.676589   Ekb= -8.124878   kbcos= -0.395047
   l= 2   rc=  1.448233   el=  0.002386   Ekb= -2.039267   kbcos= -0.003484

KBgen: Total number of  Kleinman-Bylander projectors:    9
atom: -------------------------------------------------------------------------

atom: SANKEY-TYPE ORBITALS:

SPLIT: Orbitals with angular momentum L= 0

SPLIT: Basis orbitals for state 2s

SPLIT: PAO cut-off radius determined from an
SPLIT: energy shift=  0.020000 Ry

   izeta = 1
                 lambda =    1.000000
                     rc =    3.305093
                 energy =   -1.723766
                kinetic =    1.614911
    potential(screened) =   -3.338677
       potential(ionic) =  -11.304675

SPLIT: Orbitals with angular momentum L= 1

SPLIT: Basis orbitals for state 2p

SPLIT: PAO cut-off radius determined from an
SPLIT: energy shift=  0.020000 Ry

   izeta = 1
                 lambda =    1.000000
                     rc =    3.937239
                 energy =   -0.658841
                kinetic =    5.005986
    potential(screened) =   -5.664827
       potential(ionic) =  -13.452360
atom: Total number of Sankey-type orbitals:  4

atm_pop: Valence configuration (for local Pseudopot. screening):
 2s( 2.00)                                                            
 2p( 4.00)                                                            
Vna: chval, zval:    6.00000   6.00000

Vna:  Cut-off radius for the neutral-atom potential:   3.937239

atom: _________________________________________________________________________

prinput: Basis input ----------------------------------------------------------

PAO.BasisType split     

%block ChemicalSpeciesLabel
    1   12 Mg                      # Species index, atomic number, species label
    2    6 C                       # Species index, atomic number, species label
    3    8 O                       # Species index, atomic number, species label
%endblock ChemicalSpeciesLabel

%block PAO.Basis                 # Define Basis set
Mg                    1                    # Species label, number of l-shells
 n=3   0   1                         # n, l, Nzeta 
   6.620   
   1.000   
C                     2                    # Species label, number of l-shells
 n=2   0   1                         # n, l, Nzeta 
   4.192   
   1.000   
 n=2   1   1                         # n, l, Nzeta 
   4.870   
   1.000   
O                     2                    # Species label, number of l-shells
 n=2   0   1                         # n, l, Nzeta 
   3.305   
   1.000   
 n=2   1   1                         # n, l, Nzeta 
   3.937   
   1.000   
%endblock PAO.Basis

prinput: ----------------------------------------------------------------------

coor:   Atomic-coordinates input format  =     Fractional

siesta: WARNING: XV file not found

siesta: Atomic coordinates (Bohr) and species
siesta:      0.00000   0.00000   0.00000  1        1
siesta:     12.51930   5.59740   3.66414  1        2
siesta:      6.25965   2.79870   1.83207  2        3
siesta:     -6.25965  -2.79870  -1.83207  2        4
siesta:      7.25136   0.58061   1.83207  3        5
siesta:      6.25965   4.12944  -0.20079  3        6
siesta:      5.26794   3.68605   3.86493  3        7
siesta:     -7.25136  -0.58061  -1.83207  3        8
siesta:     -6.25965  -4.12944   0.20079  3        9
siesta:     -5.26794  -3.68605  -3.86493  3       10

siesta: System type = bulk      

initatomlists: Number of atoms, orbitals, and projectors:     10    34    80

siesta: ******************** Simulation parameters ****************************
siesta:
siesta: The following are some of the parameters of the simulation.
siesta: A complete list of the parameters used, including default values,
siesta: can be found in file out.fdf
siesta:
redata: Non-Collinear-spin run           =     F
redata: SpinPolarized (Up/Down) run      =     F
redata: Number of spin components        =     1
redata: Long output                      =     F
redata: Number of Atomic Species         =        3
redata: Charge density info will appear in .RHO file
redata: Write Mulliken Pop.              =     NO
redata: Mesh Cutoff                      =    50.0000  Ry
redata: Net charge of the system         =     0.0000 |e|
redata: Max. number of SCF Iter          =       20
redata: Broyden mixing with     4 saved histories.
redata: Mix DM in first SCF step ?       =     F
redata: Write Pulay info on disk?        =     F
redata: Discard 1st Pulay DM after  kick =     F
redata: New DM Mixing Weight             =     0.1000
redata: New DM Occupancy tolerance       = 0.000000000001
redata: No kicks to SCF
redata: DM Mixing Weight for Kicks       =     0.5000
redata: DM Tolerance for SCF             =     0.001000
redata: Require Energy convergence for SCF =     F
redata: DM Energy tolerance for SCF      =     0.000100 eV
redata: Require Harris convergence for SCF =     F
redata: DM Harris energy tolerance for SCF =     0.000100 eV
redata: Using Saved Data (generic)   =     F
redata: Use continuation files for DM    =     T
redata: Neglect nonoverlap interactions  =     F
redata: Method of Calculation            =     Diagonalization
redata: Divide and Conquer               =     F
redata: Electronic Temperature           =     0.0019  Ry
redata: Fix the spin of the system       =     F
redata: Dynamics option                  =     Nose-Parrinello-Rahman MD run
redata: Initial MD time step             =        1
redata:   Final MD time step             =       10
redata: Length of MD time step           =     0.3000  fs
redata: Initial Temperature of MD run    =   300.0000  K
redata: Perform a MD quench              =     F
redata: Nose mass                        =   100.0000  Ry/fs**2
redata: Parrinello-Rahman mass           =   100.0000  Ry/fs**2
redata: Target Temperature               =   500.0000  Kelvin
redata: Target Pressure                  =     0.0007  Ry/Bohr**3
redata: ***********************************************************************
Total number of electrons:    48.000000
Total ionic charge:    48.000000

* ProcessorY, Blocksize:    1  17

 Kpoints in:            1 . Kpoints trimmed:            1

siesta: k-grid: Number of k-points =     1
siesta: k-grid: Cutoff (effective) =     2.317 Ang
siesta: k-grid: Supercell and displacements
siesta: k-grid:    1   0   0      0.000
siesta: k-grid:    0   1   0      0.000
siesta: k-grid:    0   0   1      0.000

* Maximum dynamic memory allocated =     3 MB

siesta:                 ==============================
                            Begin MD step =      1
                        ==============================

outcoor: Atomic coordinates (fractional):                   
    0.00000000    0.00000000    0.00000000   1       1  Mg
    0.50000000    0.50000000    0.50000000   1       2  Mg
    0.25000000    0.25000000    0.25000000   2       3  C
   -0.25000000   -0.25000000   -0.25000000   2       4  C
    0.52740000   -0.02740000    0.25000000   3       5  O
    0.25000000    0.52740000   -0.02740000   3       6  O
   -0.02740000    0.25000000    0.52740000   3       7  O
   -0.52740000    0.02740000   -0.25000000   3       8  O
   -0.25000000   -0.52740000    0.02740000   3       9  O
    0.02740000   -0.25000000   -0.52740000   3      10  O

outcell: Unit cell vectors (Ang):
        5.677830    0.000000    0.000000
        3.786009    4.231299    0.000000
        3.786009    1.692731    3.877957

outcell: Cell vector modules (Ang)   :    5.677830    5.677830    5.677830
outcell: Cell angles (23,13,12) (deg):     48.1790     48.1790     48.1790
outcell: Cell volume (Ang**3)        :     93.1663

NOTE: orbital pair      1     1 (at least) is multiply connected.
NOTE: Harmless for Gamma calculations, except if a COHP analysis is intended.
New_DM. Step:     1
Initializing Density Matrix...

InitMesh: MESH =    24 x    24 x    24 =       13824
InitMesh: Mesh cutoff (required, used) =    50.000    63.482 Ry

* Maximum dynamic memory allocated =     3 MB

stepf: Fermi-Dirac step function
 Broyden: No of relevant DM elements:         1156
 maxit for broyden:            4
 cycle on maxit:  T
 variable weight:  T
 initial alpha:   0.10000000000000001     

siesta: Program's energy decomposition (eV):
siesta: Ebs     =      -718.671436
siesta: Eions   =      5228.674091
siesta: Ena     =      1092.429444
siesta: Ekin    =      2069.792750
siesta: Enl     =      -254.036133
siesta: DEna    =        15.961142
siesta: DUscf   =         0.158223
siesta: DUext   =         0.000000
siesta: Exc     =      -679.402762
siesta: eta*DQ  =         0.000000
siesta: Emadel  =         0.000000
siesta: Emeta   =         0.000000
siesta: Emolmec =         0.000000
siesta: Ekinion =         0.000000
siesta: Eharris =     -2966.596225
siesta: Etot    =     -2983.771427
siesta: FreeEng =     -2983.771427

siesta: Eharris(eV) =   -2966.596225


siesta: Eharris(eV) =   -2966.596225

timer: Routine,Calls,Time,% = IterSCF        1       0.896  43.91
elaps: Routine,Calls,Wall,% = IterSCF        1       0.463  44.22

siesta: E_KS - E_eggbox =     -2945.6640

siesta: Atomic forces (eV/Ang):
     1   -0.000000   -0.000000   -0.000000
     2   -0.000000   -0.000000    0.000000
     3    0.000001   -0.000002   -0.000005
     4   -0.000002    0.000002    0.000006
     5    2.998817   -6.707233   -0.000007
     6   -0.000012    4.024018   -6.147139
     7   -2.998821    2.683236    6.147162
     8   -2.998814    6.707234    0.000008
     9    0.000012   -4.024016    6.147141
    10    2.998822   -2.683237   -6.147164
----------------------------------------
   Tot    0.000002    0.000001    0.000001
----------------------------------------
   Max    6.707234
   Res    3.285729    sqrt( Sum f_i^2 / 3N )
----------------------------------------
   Max    6.707234    constrained

Stress-tensor-Voigt (kbar):      718.92      461.37      422.95      144.10       40.04       94.00
(Free)E + p*V (eV/cell)    -2976.7397
Target enthalpy (eV/cell)    -2939.8491

siesta: Stress tensor (static) (eV/Ang**3):
         0.449996    0.089162    0.058367
         0.089162    0.290438    0.026096
         0.058367    0.026096    0.267656

siesta: Pressure (static):       -538.38529971  kBar

siesta: Stress tensor (total) (eV/Ang**3):
         0.448710    0.089938    0.058672
         0.089938    0.287963    0.024988
         0.058672    0.024988    0.263979

siesta: Pressure (total):       -534.41308597  kBar

siesta: Temp_ion =     300.018 K
 iupos on opening:           16
 iupos on writing:           16
 istep, xa, va :            1  1.84061451678511098E-003 -3.46908055480797846E-003  5.84246458674322878E-004   12.518532581992728        5.5979599074469313        3.6638586054992506        6.2606700869207161        2.7971573299969528        1.8299333329726231       -6.2602261862294757       -2.7968274050597213       -1.8290648514867234        7.2497228234789421       0.58226114027901454        1.8291675791880386        6.2573824766930359        4.1314473727083003      -0.19533937265396295        5.2682826864646088        3.6884437450225551        3.8653115362254984       -7.2533346837481378      -0.58253003907426870       -1.8348224207739490       -6.2580814650151364       -4.1309143249346132       0.19854051651027177       -5.2661878661139774       -3.6846474842689538       -3.8640425748752674       6.13520376862720408E-003 -1.15632147640850492E-002  1.94743009220065791E-003 -2.00463323942035596E-003  2.11213927645243632E-003 -7.78495031874595770E-004  3.67685071371268678E-003 -5.01914480430511699E-003 -7.04226291510217338E-003 -2.19718954942047309E-003  6.11887699704987201E-003  9.93711878640579811E-003 -5.53089673730040171E-003  6.39644360985007401E-003 -9.59322246855778306E-003 -7.28124401455783332E-003  6.34341909037277642E-003  1.89691080313968974E-002  1.76921045747605791E-003  7.80245248497329728E-003  6.28801602446646618E-004 -6.50850190068090213E-003 -7.29286020230845121E-003 -9.25571121284260792E-003  4.95138141791722289E-003 -4.56664021492235363E-003 -8.29896930430114484E-003  5.21349451786803225E-003  4.85142657386673521E-003  3.60099145617252337E-003

* Maximum dynamic memory allocated =     3 MB

siesta:                 ==============================
                            Begin MD step =      2
                        ==============================

outcoor: Atomic coordinates (fractional):                   
    0.00042897   -0.00046577    0.00007973   1       1  Mg
    0.49990385    0.50009200    0.49996813   1       2  Mg
    0.25034373    0.24992701    0.24971169   2       3  C
   -0.25037729   -0.24993316   -0.24959317   2       4  C
    0.52728513   -0.02704558    0.24960725   3       5  O
    0.24932700    0.52737004   -0.02666610   3       6  O
   -0.02759875    0.25028246    0.52746845   3       7  O
   -0.52729063    0.02732066   -0.25037893   3       8  O
   -0.24961137   -0.52747813    0.02710294   3       9  O
    0.02740812   -0.24987695   -0.52729528   3      10  O

outcell: Unit cell vectors (Ang):
        5.677710    0.000072    0.000047
        3.785983    4.231160    0.000048
        3.785983    1.692720    3.877812

outcell: Cell vector modules (Ang)   :    5.677710    5.677709    5.677710
outcell: Cell angles (23,13,12) (deg):     48.1775     48.1775     48.1775
outcell: Cell volume (Ang**3)        :     93.1559
New_DM. Step:     2
Initializing Density Matrix...

InitMesh: MESH =    24 x    24 x    24 =       13824
InitMesh: Mesh cutoff (required, used) =    50.000    63.484 Ry

siesta: Eharris(eV) =   -2966.568674


siesta: Eharris(eV) =   -2966.568674


siesta: Atomic forces (eV/Ang):
     1   -0.007316    0.008267   -0.007406
     2   -0.000512    0.003792    0.000083
     3   -0.098862    0.078825    0.225314
     4    0.071540   -0.079675   -0.141953
     5    3.035532   -6.847640    0.091169
     6    0.054446    4.046422   -6.360243
     7   -2.960049    2.608469    6.094464
     8   -3.064733    6.822428    0.077672
     9   -0.036176   -4.023547    6.286288
    10    2.970279   -2.666434   -6.085895
----------------------------------------
   Tot   -0.035852   -0.049093    0.179492
----------------------------------------
   Max    6.847640
   Res    3.318491    sqrt( Sum f_i^2 / 3N )
----------------------------------------
   Max    6.847640    constrained

Stress-tensor-Voigt (kbar):      717.21      452.68      415.55      146.36       43.78       94.27
(Free)E + p*V (eV/cell)    -2976.3724
Target enthalpy (eV/cell)    -2939.8309

siesta: Stress tensor (static) (eV/Ang**3):
         0.448930    0.090570    0.058533
         0.090570    0.285011    0.028434
         0.058534    0.028433    0.263041

siesta: Pressure (static):       -532.45235756  kBar

siesta: Stress tensor (total) (eV/Ang**3):
         0.447644    0.091347    0.058838
         0.091347    0.282535    0.027326
         0.058840    0.027326    0.259363

siesta: Pressure (total):       -528.47980979  kBar

siesta: Temp_ion =     277.682 K
 iupos on opening:           17
 iupos on writing:           17
 istep, xa, va :            2  3.68074947743199290E-003 -6.93759807185532346E-003  1.16800016799708519E-003   12.517604764949667        5.5984480736853088        3.6635301126347897        6.2615965786125090        2.7955893567335592        1.8278036803723114       -6.2607124600116624       -2.7949296119747795       -1.8260554035431429        7.2482640002603924       0.58328742917889398        1.8262512262207060        6.2550399731451733        4.1337628604685781      -0.19045581036478609        5.2682947119130414        3.6910266134769261        3.8661856374292189       -7.2554908426258544      -0.58382786064140579       -1.8375437551069058       -6.2564360741738811       -4.1326944302629878       0.19685056809306914       -5.2641039149326030       -3.6834399459833804       -3.8636468104432882       6.13458246238665281E-003 -1.15626634530922069E-002  1.94666694666180873E-003 -2.00475431122497209E-003  2.11263093713692524E-003 -7.78510848920154711E-004  3.65461640718130112E-003 -5.00148471325639367E-003 -6.99154866626493145E-003 -2.18108540577012684E-003  6.10105931122324665E-003  9.90534338154608687E-003 -4.50704625719064965E-003  4.09639178300705287E-003 -9.57805941996126876E-003 -7.27223640421383391E-003  7.71317243686820385E-003  1.68472133542453099E-002  7.58047684748892111E-004  8.70070317988800614E-003  2.70622034725826952E-003 -7.53769101857963263E-003 -4.99711088719335256E-003 -9.24282205703834750E-003  4.94540135636886702E-003 -5.93245542754999074E-003 -6.18928380710696401E-003  6.22661394931531796E-003  3.94374264268801747E-003  1.52515796262565635E-003

* Maximum dynamic memory allocated =     3 MB

siesta:                 ==============================
                            Begin MD step =      3
                        ==============================

outcoor: Atomic coordinates (fractional):                   
    0.00085795   -0.00093154    0.00015940   1       1  Mg
    0.49980766    0.50018406    0.49993625   1       2  Mg
    0.25068372    0.24985368    0.24942749   2       3  C
   -0.25075179   -0.24986662   -0.24918889   2       4  C
    0.52725671   -0.02677879    0.24921569   3       5  O
    0.24865539    0.52742697   -0.02602044   3       6  O
   -0.02788168    0.25056431    0.52762159   3       7  O
   -0.52726869    0.02732778   -0.25075684   3       8  O
   -0.24922378   -0.52764247    0.02689318   3       9  O
    0.02750091   -0.24975401   -0.52727513   3      10  O

outcell: Unit cell vectors (Ang):
        5.677469    0.000216    0.000141
        3.785930    4.230886    0.000142
        3.785931    1.692697    3.877523

outcell: Cell vector modules (Ang)   :    5.677469    5.677470    5.677471
outcell: Cell angles (23,13,12) (deg):     48.1746     48.1746     48.1746
outcell: Cell volume (Ang**3)        :     93.1350
New_DM. Step:     3
Initializing Density Matrix...

InitMesh: MESH =    24 x    24 x    24 =       13824
InitMesh: Mesh cutoff (required, used) =    50.000    63.487 Ry

siesta: Eharris(eV) =   -2966.557237


siesta: Eharris(eV) =   -2966.557237


siesta: Atomic forces (eV/Ang):
     1   -0.008574    0.020179   -0.010313
     2    0.004597   -0.001578   -0.000252
     3   -0.194451    0.154888    0.443545
     4    0.139433   -0.157204   -0.278165
     5    3.060381   -6.926368    0.149826
     6    0.095337    4.059503   -6.497937
     7   -2.910131    2.516454    6.025427
     8   -3.086302    6.879688    0.122855
     9   -0.061705   -4.012216    6.347036
    10    2.933717   -2.643353   -6.010873
----------------------------------------
   Tot   -0.027699   -0.110008    0.291149
----------------------------------------
   Max    6.926368
   Res    3.329386    sqrt( Sum f_i^2 / 3N )
----------------------------------------
   Max    6.926368    constrained

Stress-tensor-Voigt (kbar):      717.81      449.37      417.46      146.50       47.26       92.28
(Free)E + p*V (eV/cell)    -2976.3376
Target enthalpy (eV/cell)    -2939.8198

siesta: Stress tensor (static) (eV/Ang**3):
         0.449367    0.090577    0.057374
         0.090577    0.282886    0.030687
         0.057376    0.030686    0.263677

siesta: Pressure (static):       -531.89127257  kBar

siesta: Stress tensor (total) (eV/Ang**3):
         0.448017    0.091440    0.057591
         0.091439    0.280471    0.029499
         0.057594    0.029499    0.260556

siesta: Pressure (total):       -528.21395921  kBar

siesta: Temp_ion =     269.097 K
 iupos on opening:           17
 iupos on writing:           17
 istep, xa, va :            3  5.52030762871011643E-003 -1.04047032644991738E-002  1.75106529427575285E-003   12.516514202215523        5.5988633739970330        3.6631541484437418        6.2624151417401670        2.7940060419843871        1.8257105028967309       -6.2610982273787146       -2.7930167759705395       -1.8230599960209743        7.2469865754506495       0.58367948685418491        1.8233277437654538        6.2526249246732650        4.1363916888627488      -0.18615846540325129        5.2679784014914040        3.6937854975048841        3.8675490028099730       -7.2578312908818505      -0.58449632973092791       -1.8402301950985529       -6.2547146731064407       -4.1347830592444978       0.19573142881574943       -5.2616890241546450       -3.6824212963445326       -3.8637387830422560       6.13346982475646008E-003 -1.15608406805181516E-002  1.94490335237656846E-003 -2.00449206231736619E-003  2.11313870397387407E-003 -7.78609191761928804E-004  3.58874079601221186E-003 -4.94921386576410022E-003 -6.84112939434288608E-003 -2.13373545256331613E-003  6.04816240026536962E-003  9.81147035026752427E-003 -3.47294327822316937E-003  1.75950711322641132E-003 -9.53821856651933253E-003 -7.24768254019588637E-003  9.08960770550893901E-003  1.46671219467697980E-002 -2.38179134218453013E-004  9.57132756657359113E-003  4.76320910756819916E-003 -8.58202646161549537E-003 -2.67229403637047344E-003 -9.20974881582698086E-003  4.92934520935208592E-003 -7.29680205756281716E-003 -4.04613954618977985E-003  7.22898825807264094E-003  3.04302568912141920E-003 -5.27542144302841471E-004

* Maximum dynamic memory allocated =     3 MB

siesta:                 ==============================
                            Begin MD step =      4
                        ==============================

outcoor: Atomic coordinates (fractional):                   
    0.00128695   -0.00139725    0.00023901   1       1  Mg
    0.49971148    0.50027613    0.49990437   1       2  Mg
    0.25101633    0.24977967    0.24915141   2       3  C
   -0.25112083   -0.24980066   -0.24878964   2       4  C
    0.52731533   -0.02660098    0.24882610   3       5  O
    0.24798610    0.52757175   -0.02546488   3       6  O
   -0.02824720    0.25084480    0.52785853   3       7  O
   -0.52733514    0.02742188   -0.25113315   3       8  O
   -0.24883786   -0.52789326    0.02677156   3       9  O
    0.02767744   -0.24963129   -0.52733852   3      10  O

outcell: Unit cell vectors (Ang):
        5.677109    0.000429    0.000283
        3.785850    4.230477    0.000282
        3.785853    1.692660    3.877091

outcell: Cell vector modules (Ang)   :    5.677110    5.677112    5.677113
outcell: Cell angles (23,13,12) (deg):     48.1703     48.1703     48.1703
outcell: Cell volume (Ang**3)        :     93.1039
New_DM. Step:     4
Initializing Density Matrix...

InitMesh: MESH =    24 x    24 x    24 =       13824
InitMesh: Mesh cutoff (required, used) =    50.000    63.492 Ry

siesta: Eharris(eV) =   -2966.562257


siesta: Eharris(eV) =   -2966.562257


siesta: Atomic forces (eV/Ang):
     1   -0.017965    0.028883   -0.014796
     2    0.009285   -0.006900    0.003466
     3   -0.287829    0.232027    0.659195
     4    0.210166   -0.233667   -0.413429
     5    3.078207   -6.984919    0.205844
     6    0.136735    4.060238   -6.604016
     7   -2.855081    2.423995    5.944524
     8   -3.099414    6.915607    0.166249
     9   -0.091097   -3.978329    6.390538
    10    2.891062   -2.614520   -5.921311
----------------------------------------
   Tot   -0.025931   -0.157582    0.416264
----------------------------------------
   Max    6.984919
   Res    3.331771    sqrt( Sum f_i^2 / 3N )
----------------------------------------
   Max    6.984919    constrained

Stress-tensor-Voigt (kbar):      718.25      447.19      420.76      146.68       50.13       90.24
(Free)E + p*V (eV/cell)    -2976.3517
Target enthalpy (eV/cell)    -2939.8160

siesta: Stress tensor (static) (eV/Ang**3):
         0.449743    0.090541    0.056154
         0.090541    0.281616    0.032526
         0.056158    0.032525    0.265328

siesta: Pressure (static):       -532.29542949  kBar

siesta: Stress tensor (total) (eV/Ang**3):
         0.448291    0.091551    0.056317
         0.091551    0.279109    0.031290
         0.056321    0.031289    0.262614

siesta: Pressure (total):       -528.73091755  kBar

siesta: Temp_ion =     274.647 K
 iupos on opening:           17
 iupos on writing:           17
 istep, xa, va :            4  7.35864738398392219E-003 -1.38697644977515931E-002  2.33314268518642048E-003   12.515261334085148        5.5992054823569912        3.6627309566576081        6.2631131485977001        2.7924178923067835        1.8236830897826874       -6.2613739148269625       -2.7910993066256484       -1.8200970175893472        7.2458924767593569       0.58343065060006183        1.8204037082890516        6.2501412150510642        4.1393349148193934      -0.18245809941785560        5.2673398330950150        3.6967106861366519        3.8693924199609264       -7.2603575819958621      -0.58453114429639552       -1.8428781550934588       -6.2529198962628438       -4.1371777476179732       0.19518744216845860       -5.2589479213478452       -3.6815883019513658       -3.8643083866453347       6.13163976512315963E-003 -1.15577032417044697E-002  1.94246242790146822E-003 -2.00326780438298208E-003  2.11264559061596566E-003 -7.78383935314581107E-004  3.48045654918321609E-003 -4.86270984062211684E-003 -6.59317369698164939E-003 -2.05531655966481423E-003  5.96091111890743180E-003  9.65700925055425381E-003 -2.43162443120603818E-003 -6.00713026761624282E-004 -9.47966612201273096E-003 -7.20980405082613518E-003  1.04692889638271398E-002  1.24466510871324987E-002 -1.21687147850630274E-003  1.04114753508132291E-002  6.79533051011937950E-003 -9.63273125152826031E-003 -3.31481009592988086E-004 -9.16231222175768398E-003  4.90436926239105897E-003 -8.65424321159350037E-003 -1.88541759317958045E-003  8.21839818249162253E-003  2.15117119030618781E-003 -2.55264688733550455E-003

* Maximum dynamic memory allocated =     3 MB

siesta:                 ==============================
                            Begin MD step =      5
                        ==============================

outcoor: Atomic coordinates (fractional):                   
    0.00171592   -0.00186289    0.00031851   1       1  Mg
    0.49961534    0.50036818    0.49987250   1       2  Mg
    0.25133794    0.24970468    0.24888741   2       3  C
   -0.25148167   -0.24973559   -0.24839786   2       4  C
    0.52746142   -0.02651321    0.24843920   3       5  O
    0.24732003    0.52780506   -0.02500088   3       6  O
   -0.02869368    0.25112323    0.52817820   3       7  O
   -0.52749070    0.02760323   -0.25150729   3       8  O
   -0.24845438   -0.52823040    0.02673873   3       9  O
    0.02793662   -0.24950892   -0.52748428   3      10  O

outcell: Unit cell vectors (Ang):
        5.676629    0.000714    0.000474
        3.785742    4.229935    0.000467
        3.785750    1.692610    3.876513

outcell: Cell vector modules (Ang)   :    5.676630    5.676636    5.676635
outcell: Cell angles (23,13,12) (deg):     48.1646     48.1644     48.1646
outcell: Cell volume (Ang**3)        :     93.0624
New_DM. Step:     5
Initializing Density Matrix...

InitMesh: MESH =    24 x    24 x    24 =       13824
InitMesh: Mesh cutoff (required, used) =    50.000    63.499 Ry

siesta: Eharris(eV) =   -2966.583755


siesta: Eharris(eV) =   -2966.583755


siesta: Atomic forces (eV/Ang):
     1   -0.026276    0.044977   -0.018088
     2    0.011322   -0.000855   -0.001565
     3   -0.377125    0.304185    0.859826
     4    0.274036   -0.304680   -0.535449
     5    3.084369   -7.022808    0.265426
     6    0.179208    4.039757   -6.683085
     7   -2.794517    2.326988    5.845824
     8   -3.099712    6.925287    0.214919
     9   -0.115375   -3.941730    6.413087
    10    2.840898   -2.581484   -5.820292
----------------------------------------
   Tot   -0.023171   -0.210362    0.540603
----------------------------------------
   Max    7.022808
   Res    3.324914    sqrt( Sum f_i^2 / 3N )
----------------------------------------
   Max    7.022808    constrained

Stress-tensor-Voigt (kbar):      719.02      446.53      425.88      146.08       52.86       88.16
(Free)E + p*V (eV/cell)    -2976.4407
Target enthalpy (eV/cell)    -2939.8198

siesta: Stress tensor (static) (eV/Ang**3):
         0.450368    0.089956    0.054874
         0.089955    0.281453    0.034248
         0.054879    0.034247    0.268275

siesta: Pressure (static):       -534.11616081  kBar

siesta: Stress tensor (total) (eV/Ang**3):
         0.448775    0.091175    0.055016
         0.091174    0.278698    0.032994
         0.055022    0.032993    0.265809

siesta: Pressure (total):       -530.47683425  kBar

siesta: Temp_ion =     294.400 K
 iupos on opening:           17
 iupos on writing:           17
 istep, xa, va :            5  9.19519496666175613E-003 -1.73316478141380889E-002  2.91401371692560831E-003   12.513846466067104        5.5994748751029366        3.6622601289280232        6.2636785407543147        2.7908347653983538        1.8217486723717917       -6.2615308963765441       -2.7891869023467595       -1.8171830410127723        7.2449822737237914       0.58253676484540595        1.8174860101957568        6.2475929612671903        4.1425912372303575      -0.17936241722600330        5.2663857663541940        3.6997918451440004        3.8717044916818573       -7.2630697884615927      -0.58393107496453334       -1.8454834455103641       -6.2510539780760448       -4.1398755597654873       0.19522049995702545       -5.2558862219431601       -3.6809371503908315       -3.8653439804532703       6.12829780307000416E-003 -1.15527680358507630E-002  1.93929430642095029E-003 -2.00142256154922692E-003  2.11242341097554916E-003 -7.78357959594794062E-004  3.33116248697443249E-003 -4.74283384870177391E-003 -6.25160742357728887E-003 -1.94672188949563188E-003  5.84075656162408308E-003  9.44513262360474441E-003 -1.38608251391448938E-003 -2.97773690708119133E-003 -9.40222676215114565E-003 -7.15832071455069739E-003  1.18467412930597562E-002  1.01953712682716687E-002 -2.17638394665552876E-003  1.12204261315158264E-002  8.79788621358043241E-003 -1.06863622701428834E-002  2.01764224656783304E-003 -9.09990289947776483E-003  4.87067649460393159E-003 -1.00007060406278846E-002  2.86758938421533970E-004  9.19269378296319953E-003  1.26971742729290772E-003 -4.54607858375181105E-003

* Maximum dynamic memory allocated =     3 MB

siesta:                 ==============================
                            Begin MD step =      6
                        ==============================

outcoor: Atomic coordinates (fractional):                   
    0.00214479   -0.00232836    0.00039788   1       1  Mg
    0.49951923    0.50046028    0.49984061   1       2  Mg
    0.25164516    0.24962844    0.24863918   2       3  C
   -0.25183186   -0.24967169   -0.24801578   2       4  C
    0.52769512   -0.02651634    0.24805578   3       5  O
    0.24665811    0.52812716   -0.02462953   3       6  O
   -0.02921927    0.25139894    0.52857933   3       7  O
   -0.52773579    0.02787179   -0.25187862   3       8  O
   -0.24807394   -0.52865365    0.02679505   3       9  O
    0.02827723   -0.24938702   -0.52771109   3      10  O

outcell: Unit cell vectors (Ang):
        5.676029    0.001069    0.000716
        3.785607    4.229260    0.000696
        3.785623    1.692545    3.875791

outcell: Cell vector modules (Ang)   :    5.676029    5.676043    5.676038
outcell: Cell angles (23,13,12) (deg):     48.1575     48.1571     48.1575
outcell: Cell volume (Ang**3)        :     93.0107
New_DM. Step:     6
Initializing Density Matrix...

InitMesh: MESH =    24 x    24 x    24 =       13824
InitMesh: Mesh cutoff (required, used) =    50.000    63.507 Ry

siesta: Eharris(eV) =   -2966.621779


siesta: Eharris(eV) =   -2966.621779


siesta: Atomic forces (eV/Ang):
     1   -0.026021    0.054635   -0.021036
     2    0.007485   -0.003510    0.004896
     3   -0.460816    0.371347    1.045207
     4    0.335878   -0.373143   -0.655579
     5    3.079071   -7.030053    0.328167
     6    0.216458    4.014945   -6.744018
     7   -2.691748    2.179887    5.701357
     8   -3.091948    6.921158    0.257297
     9   -0.140006   -3.890259    6.415017
    10    2.784458   -2.541851   -5.709706
----------------------------------------
   Tot    0.012811   -0.296842    0.621603
----------------------------------------
   Max    7.030053
   Res    3.306256    sqrt( Sum f_i^2 / 3N )
----------------------------------------
   Max    7.030053    constrained

Stress-tensor-Voigt (kbar):      721.52      447.61      431.83      144.34       56.58       85.01
(Free)E + p*V (eV/cell)    -2976.6158
Target enthalpy (eV/cell)    -2939.8311

siesta: Stress tensor (static) (eV/Ang**3):
         0.452100    0.088604    0.052896
         0.088604    0.282532    0.036550
         0.052903    0.036548    0.271900

siesta: Pressure (static):       -537.55349716  kBar

siesta: Stress tensor (total) (eV/Ang**3):
         0.450330    0.090093    0.053052
         0.090092    0.279373    0.035313
         0.053059    0.035312    0.269522

siesta: Pressure (total):       -533.65060586  kBar

siesta: Temp_ion =     328.219 K
 iupos on opening:           17
 iupos on writing:           17
 istep, xa, va :            6  1.10299396520974671E-002 -2.07896336036445216E-002  3.49348500058537393E-003   12.512269385752322        5.5996714688659504        3.6617421047149570        6.2640999461857216        2.7892658659244898        1.8199324702380877       -6.2615607486995506       -2.7872889425980967       -1.8143344423502075        7.2442548955888224       0.58099728360359271        1.8145822410989239        6.2449836365088593        4.1461588913370253      -0.17687725121403902        5.2651276778720213        3.7030130758253197        3.8744688441986757       -7.2659666766499935      -0.58269678266516745       -1.8480428678950491       -6.2491190697443955       -4.1428720290141596       0.19583034935442759       -5.2525106057196469       -3.6804629131983484       -3.8668326422224859       6.12450111332742304E-003 -1.15458887845037196E-002  1.93556091585193424E-003 -1.99990185351783985E-003  2.11276252720810640E-003 -7.78221758736643340E-004  3.14300706188436023E-003 -4.59180154572620854E-003 -5.82318544278616953E-003 -1.80993293642894675E-003  5.68946443480083941E-003  9.17919277353942097E-003 -3.40064668482154345E-004 -5.36324082184106918E-003 -9.30472121538286449E-003 -7.09390397792779726E-003  1.32178151275752463E-002  7.92054597469332711E-003 -3.10876657449306142E-003  1.19889992734364369E-002  1.07603929833725593E-002 -1.17395169658900331E-002  4.36865494595775096E-003 -9.02265184342330995E-003  4.82905079873997140E-003 -1.13333894144841858E-002  2.46368914299560518E-003  1.01496668401922854E-002  4.00349185420970609E-004 -6.50458110809832169E-003

* Maximum dynamic memory allocated =     3 MB

siesta:                 ==============================
                            Begin MD step =      7
                        ==============================

outcoor: Atomic coordinates (fractional):                   
    0.00257357   -0.00279363    0.00047711   1       1  Mg
    0.49942310    0.50055241    0.49980874   1       2  Mg
    0.25193481    0.24955071    0.24841015   2       3  C
   -0.25216898   -0.24960924   -0.24764558   2       4  C
    0.52801618   -0.02661091    0.24767667   3       5  O
    0.24600116    0.52853819   -0.02435172   3       6  O
   -0.02982109    0.25167089    0.52906005   3       7  O
   -0.52807065    0.02822738   -0.25224660   3       8  O
   -0.24769719   -0.52916248    0.02694064   3       9  O
    0.02869789   -0.24926569   -0.52801752   3      10  O

outcell: Unit cell vectors (Ang):
        5.675307    0.001495    0.001011
        3.785445    4.228452    0.000971
        3.785472    1.692465    3.874921

outcell: Cell vector modules (Ang)   :    5.675308    5.675333    5.675319
outcell: Cell angles (23,13,12) (deg):     48.1489     48.1482     48.1490
outcell: Cell volume (Ang**3)        :     92.9485
New_DM. Step:     7
Initializing Density Matrix...

InitMesh: MESH =    24 x    24 x    24 =       13824
InitMesh: Mesh cutoff (required, used) =    50.000    63.517 Ry

siesta: Eharris(eV) =   -2966.676012


siesta: Eharris(eV) =   -2966.676012


siesta: Atomic forces (eV/Ang):
     1   -0.033163    0.074495   -0.020950
     2    0.008400   -0.007228    0.005348
     3   -0.533710    0.435525    1.217688
     4    0.391461   -0.436598   -0.763655
     5    3.063209   -7.016090    0.383810
     6    0.248574    3.979010   -6.776175
     7   -2.622187    2.073371    5.584448
     8   -3.067684    6.886765    0.304220
     9   -0.163859   -3.830295    6.401977
    10    2.714422   -2.497418   -5.571682
----------------------------------------
   Tot    0.005463   -0.338462    0.765028
----------------------------------------
   Max    7.016090
   Res    3.281677    sqrt( Sum f_i^2 / 3N )
----------------------------------------
   Max    7.016090    constrained

Stress-tensor-Voigt (kbar):      722.99      448.49      438.24      143.21       59.03       82.33
(Free)E + p*V (eV/cell)    -2976.7789
Target enthalpy (eV/cell)    -2939.8493

siesta: Stress tensor (static) (eV/Ang**3):
         0.453234    0.087566    0.051175
         0.087565    0.283640    0.038029
         0.051183    0.038027    0.275975

siesta: Pressure (static):       -540.92679341  kBar

siesta: Stress tensor (total) (eV/Ang**3):
         0.451250    0.089382    0.051377
         0.089381    0.279921    0.036848
         0.051385    0.036846    0.273526

siesta: Pressure (total):       -536.57306534  kBar

siesta: Temp_ion =     375.850 K
 iupos on opening:           17
 iupos on writing:           17
 istep, xa, va :            7  1.28623640807512558E-002 -2.42422970884966713E-002  4.07156260253437128E-003   12.510530340153464        5.5997950929379883        3.6611769240341934        6.2643675181627376        2.7877199974845630        1.8182579715920570       -6.2614559610449065       -2.7854141335862401       -1.8115659871365339        7.2437085039208089       0.57881370412715516        1.8116989690882392        6.2423162891358217        4.1500347307042205      -0.17500527781926534        5.2635734850245450        3.7063629192492327        3.8776719629013034       -7.2690456191897921      -0.58083189217456288       -1.8505524179069828       -6.2471173359735941       -4.1461615776378942       0.19701496249810777       -5.2488289716595311       -3.6801605052878910       -3.8687587179546239       6.12034976083700166E-003 -1.15365832677374897E-002  1.93162344571618850E-003 -1.99882083123706367E-003  2.11256175548470105E-003 -7.77358173586686929E-004  2.91964455449880266E-003 -4.41136390478442941E-003 -5.31415686830677154E-003 -1.64678825414893079E-003  5.50868596748949405E-003  8.86224615796622761E-003  7.02860035529606630E-004 -7.74877451678760223E-003 -9.18776009484480530E-003 -7.01826485372797348E-003  1.45800315807500282E-002  5.62974296891888791E-003 -4.01262333448942389E-003  1.27156373164872081E-002  1.26800186988374752E-002 -1.27881316197552934E-002  6.71441854935411406E-003 -8.93078819650646068E-003  4.77952973961145913E-003 -1.26484702625778208E-002  4.63965898964184640E-003  1.10860433018896819E-002 -4.55139648340145263E-004 -8.42214843890793687E-003

* Maximum dynamic memory allocated =     3 MB

siesta:                 ==============================
                            Begin MD step =      8
                        ==============================

outcoor: Atomic coordinates (fractional):                   
    0.00300216   -0.00325860    0.00055621   1       1  Mg
    0.49932697    0.50064454    0.49977690   1       2  Mg
    0.25220400    0.24947128    0.24820349   2       3  C
   -0.25249084   -0.24954851   -0.24728924   2       4  C
    0.52842419   -0.02679714    0.24730259   3       5  O
    0.24534990    0.52903803   -0.02416796   3       6  O
   -0.03049709    0.25193840    0.52961886   3       7  O
   -0.52849515    0.02866945   -0.25261059   3       8  O
   -0.24732474   -0.52975623    0.02717542   3       9  O
    0.02919692   -0.24914514   -0.52840178   3      10  O

outcell: Unit cell vectors (Ang):
        5.674464    0.001993    0.001359
        3.785255    4.227513    0.001289
        3.785298    1.692368    3.873902

outcell: Cell vector modules (Ang)   :    5.674464    5.674507    5.674479
outcell: Cell angles (23,13,12) (deg):     48.1389     48.1377     48.1391
outcell: Cell volume (Ang**3)        :     92.8759
New_DM. Step:     8
Initializing Density Matrix...

InitMesh: MESH =    24 x    24 x    24 =       13824
InitMesh: Mesh cutoff (required, used) =    50.000    63.529 Ry

siesta: Eharris(eV) =   -2966.746061


siesta: Eharris(eV) =   -2966.746061


siesta: Atomic forces (eV/Ang):
     1   -0.044825    0.087728   -0.015654
     2    0.014593   -0.012168    0.001232
     3   -0.601603    0.494076    1.370027
     4    0.440631   -0.497077   -0.862324
     5    3.039373   -6.984609    0.437092
     6    0.282822    3.923130   -6.784243
     7   -2.537870    1.958898    5.395358
     8   -3.031772    6.832287    0.350313
     9   -0.196836   -3.699599    6.328894
    10    2.644206   -2.449391   -5.428444
----------------------------------------
   Tot    0.008719   -0.346727    0.792252
----------------------------------------
   Max    6.984609
   Res    3.240428    sqrt( Sum f_i^2 / 3N )
----------------------------------------
   Max    6.984609    constrained

Stress-tensor-Voigt (kbar):      725.35      452.34      448.58      141.86       59.72       79.17
(Free)E + p*V (eV/cell)    -2977.0945
Target enthalpy (eV/cell)    -2939.8739

siesta: Stress tensor (static) (eV/Ang**3):
         0.454954    0.086344    0.049127
         0.086342    0.286754    0.038366
         0.049136    0.038364    0.282657

siesta: Pressure (static):       -547.07695022  kBar

siesta: Stress tensor (total) (eV/Ang**3):
         0.452721    0.088545    0.049407
         0.088544    0.282324    0.037278
         0.049417    0.037276    0.279978

siesta: Pressure (total):       -542.08799736  kBar

siesta: Temp_ion =     436.821 K
 iupos on opening:           17
 iupos on writing:           17
 istep, xa, va :            8  1.46916304576949069E-002 -2.76886201201294313E-002  4.64859378351012865E-003   12.508629838241644        5.5998453879897152        3.6605643497501359        6.2644720292725102        2.7862051641079475        1.8167459674436612       -6.2612098358015809       -2.7835707440607549       -1.8088912112499413        7.2433402618488056       0.57598995504252792        1.8088422247115521        6.2395940905882172        4.1542127325475091      -0.17374570132733269        5.2617327761725754        3.7098290928421154        3.8812922678953412       -7.2723025886125292      -0.57834272464739500       -1.8530078138128045       -6.2450517673517973       -4.1497305833655149       0.19876513995534262       -5.2448494217370811       -3.6800244991852082       -3.8711053182965047       6.11446896354071040E-003 -1.15243651403666107E-002  1.92838235344301723E-003 -1.99704497824643558E-003  2.11155008417069322E-003 -7.76941326245790434E-004  2.66458223332647313E-003 -4.20340113225580944E-003 -4.73185555408341726E-003 -1.46011033303352668E-003  5.30015302904101714E-003  8.49902161207463820E-003  1.73969438845131101E-003 -1.01280565015277775E-002 -9.05287106735651673E-003 -6.93184849825130133E-003  1.59282013666603300E-002  3.33156232856826563E-003 -4.89118447890457726E-003  1.34058825291511301E-002  1.45493781502209468E-002 -1.38274896672943501E-002  9.04667265351813757E-003 -8.82358911522487799E-003  4.72064965956987131E-003 -1.39325871379195956E-002  6.80221638853797765E-003  1.19995416624142509E-002 -1.29544855083764746E-003 -1.02934566444583941E-002

* Maximum dynamic memory allocated =     3 MB

siesta:                 ==============================
                            Begin MD step =      9
                        ==============================

outcoor: Atomic coordinates (fractional):                   
    0.00343044   -0.00372321    0.00063522   1       1  Mg
    0.49923091    0.50073666    0.49974505   1       2  Mg
    0.25245006    0.24939002    0.24802204   2       3  C
   -0.25279542   -0.24948978   -0.24694855   2       4  C
    0.52891850   -0.02707505    0.24693425   3       5  O
    0.24470510    0.52962615   -0.02407845   3       6  O
   -0.03124461    0.25220108    0.53025330   3       7  O
   -0.52900888    0.02919721   -0.25296998   3       8  O
   -0.24695760   -0.53043298    0.02749852   3       9  O
    0.02977261   -0.24902553   -0.52886202   3      10  O

outcell: Unit cell vectors (Ang):
        5.673497    0.002564    0.001763
        3.785039    4.226440    0.001654
        3.785103    1.692255    3.872731

outcell: Cell vector modules (Ang)   :    5.673498    5.673563    5.673516
outcell: Cell angles (23,13,12) (deg):     48.1275     48.1256     48.1277
outcell: Cell volume (Ang**3)        :     92.7927
New_DM. Step:     9
Initializing Density Matrix...

InitMesh: MESH =    24 x    24 x    24 =       13824
InitMesh: Mesh cutoff (required, used) =    50.000    63.542 Ry

siesta: Eharris(eV) =   -2966.831042


siesta: Eharris(eV) =   -2966.831042


siesta: Atomic forces (eV/Ang):
     1   -0.053164    0.103659   -0.027232
     2    0.017989   -0.025652    0.008805
     3   -0.660182    0.545546    1.504270
     4    0.481423   -0.546574   -0.945307
     5    3.004225   -6.925419    0.490195
     6    0.311159    3.858414   -6.768423
     7   -2.392720    1.759406    5.206096
     8   -2.970294    6.687877    0.420739
     9   -0.222658   -3.602723    6.270000
    10    2.568652   -2.397538   -5.285299
----------------------------------------
   Tot    0.084430   -0.543002    0.873843
----------------------------------------
   Max    6.925419
   Res    3.187123    sqrt( Sum f_i^2 / 3N )
----------------------------------------
   Max    6.925419    constrained

Stress-tensor-Voigt (kbar):      728.94      460.10      458.12      137.98       61.83       75.92
(Free)E + p*V (eV/cell)    -2977.4946
Target enthalpy (eV/cell)    -2939.9040

siesta: Stress tensor (static) (eV/Ang**3):
         0.457475    0.083481    0.046984
         0.083480    0.292457    0.039550
         0.046994    0.039548    0.289000

siesta: Pressure (static):       -554.85653632  kBar

siesta: Stress tensor (total) (eV/Ang**3):
         0.454961    0.086122    0.047374
         0.086120    0.287170    0.038594
         0.047384    0.038592    0.285935

siesta: Pressure (total):       -549.05365926  kBar

siesta: Temp_ion =     510.296 K
 iupos on opening:           17
 iupos on writing:           17
 istep, xa, va :            9  1.65170946858409287E-002 -3.11273514380189520E-002  5.22379400986831919E-003   12.506568208270721        5.5998214839836464        3.6599048788362918        6.2644055020348128        2.7847284672980637        1.8154147849963749       -6.2608168009361664       -2.7817656161586335       -1.8063215278089664        7.2431454746895145       0.57253400174449065        1.8060183526825471        6.2368199610234205        4.1586856946445803      -0.17309566742648352        5.2596217374939691        3.7133897367855244        3.8853080873140247       -7.2757302099246521      -0.57524597030097735       -1.8554025697676133       -6.2429249653354972       -4.1535686008564303       0.20107346443895213       -5.2405810201002190       -3.6800482068209943       -3.8738555071812502       6.10666640091136852E-003 -1.15095623187590878E-002  1.92451527510693562E-003 -1.99427810850926184E-003  2.10861638030348554E-003 -7.76168440248111336E-004  2.38098540534960497E-003 -3.97070826826892084E-003 -4.08477965094650695E-003 -1.25319683225157130E-003  5.06693442542233662E-003  8.09505355997209783E-003  2.76728393642324509E-003 -1.24936199026797930E-002 -8.90039387808439983E-003 -6.83521432472773520E-003  1.72574521828280543E-002  1.03381708891166473E-003 -5.73168792669759633E-003  1.40439115967714110E-002  1.63563062238371651E-002 -1.48512800709256557E-002  1.13469536696904263E-002 -8.69695755211681576E-003  4.65201573484634416E-003 -1.51794943524368505E-002  8.94379902077662228E-003  1.28892320753104840E-002 -2.11941382902916357E-003 -1.21177858121840638E-002

* Maximum dynamic memory allocated =     3 MB

siesta:                 ==============================
                            Begin MD step =     10
                        ==============================

outcoor: Atomic coordinates (fractional):                   
    0.00385835   -0.00418735    0.00071405   1       1  Mg
    0.49913498    0.50082863    0.49971326   1       2  Mg
    0.25267068    0.24930678    0.24786830   2       3  C
   -0.25308103   -0.24943329   -0.24662506   2       4  C
    0.52949816   -0.02744435    0.24657237   3       5  O
    0.24406744    0.53030183   -0.02408311   3       6  O
   -0.03205972    0.25245745    0.53096091   3       7  O
   -0.52961061    0.02980861   -0.25332382   3       8  O
   -0.24659646   -0.53119134    0.02790928   3       9  O
    0.03042316   -0.24890699   -0.52939643   3      10  O

outcell: Unit cell vectors (Ang):
        5.672406    0.003210    0.002225
        3.784795    4.225233    0.002064
        3.784887    1.692124    3.871407

outcell: Cell vector modules (Ang)   :    5.672408    5.672502    5.672429
outcell: Cell angles (23,13,12) (deg):     48.1147     48.1118     48.1149
outcell: Cell volume (Ang**3)        :     92.6988
New_DM. Step:    10
Initializing Density Matrix...

InitMesh: MESH =    24 x    24 x    24 =       13824
InitMesh: Mesh cutoff (required, used) =    50.000    63.557 Ry

siesta: Eharris(eV) =   -2966.930108


siesta: Eharris(eV) =   -2966.930108


siesta: Atomic forces (eV/Ang):
     1   -0.054113    0.115384   -0.031613
     2    0.020871   -0.029050    0.010482
     3   -0.707869    0.589385    1.613781
     4    0.515498   -0.588740   -1.015065
     5    2.959499   -6.835792    0.540127
     6    0.340843    3.759697   -6.718833
     7   -2.308447    1.641420    5.047500
     8   -2.870634    6.543956    0.430774
     9   -0.251797   -3.474022    6.183274
    10    2.447404   -2.298688   -5.098714
----------------------------------------
   Tot    0.091254   -0.576450    0.961712
----------------------------------------
   Max    6.835792
   Res    3.123419    sqrt( Sum f_i^2 / 3N )
----------------------------------------
   Max    6.835792    constrained

Stress-tensor-Voigt (kbar):      733.07      467.71      468.24      133.98       64.19       72.08
(Free)E + p*V (eV/cell)    -2977.9126
Target enthalpy (eV/cell)    -2939.9383

siesta: Stress tensor (static) (eV/Ang**3):
         0.460368    0.080497    0.044449
         0.080496    0.298199    0.040852
         0.044461    0.040849    0.295851

siesta: Pressure (static):       -563.12690431  kBar

siesta: Stress tensor (total) (eV/Ang**3):
         0.457544    0.083625    0.044978
         0.083624    0.291917    0.040067
         0.044990    0.040064    0.292251

siesta: Pressure (total):       -556.34180747  kBar

siesta: Temp_ion =     595.419 K
 iupos on opening:           17
 iupos on writing:           17
 istep, xa, va :           10  1.83385812700836356E-002 -3.45574740995675395E-002  5.79685690761864731E-003   12.504345692302699        5.5997231979548969        3.6591986689857117        6.2641613978972979        2.7832959980541219        1.8142794348687121       -6.2602721586136481       -2.7800046275468779       -1.8038666144807380        7.2431183252212215       0.56845699268064620        1.8032335547162335        6.2339968579387337        4.1634429369797576      -0.17304874284434288        5.2572505584227098        3.7170311752197485        3.8897005917694147       -7.2793170313313453      -0.57155834829563235       -1.8577364583296583       -6.2407397568344116       -4.1576619401459318       0.20392950157755629       -5.2360377091291879       -3.6802200861985375       -3.8769876640583103       6.09807188219113703E-003 -1.14922184917141817E-002  1.91891802181106395E-003 -1.99086758366860943E-003  2.10390979025658299E-003 -7.74383782574434632E-004  2.07335073195033916E-003 -3.71653156615499389E-003 -3.38246558006293765E-003 -1.02941522946157268E-003  4.81307954794566849E-003  7.65672926609968323E-003  3.78216789770241708E-003 -1.48357161309191667E-002 -8.73079222219378184E-003 -6.72904591305033013E-003  1.85604591360326553E-002 -1.25397413845583440E-003 -6.53416849264048735E-003  1.46290392949708602E-002  1.81059956987932869E-002 -1.58486317494809029E-002  1.36002024470965009E-002 -8.55688679293983845E-003  4.57421081922079233E-003 -1.63894773418983633E-002  1.10622259544142041E-002  1.37464090736723887E-002 -2.91847946407859920E-003 -1.38878496899533556E-002

* Maximum dynamic memory allocated =     3 MB

outcell: Unit cell vectors (Ang):
        5.671190    0.003933    0.002746
        3.784526    4.223891    0.002520
        3.784650    1.691976    3.869927

outcell: Cell vector modules (Ang)   :    5.671192    5.671322    5.671216
outcell: Cell angles (23,13,12) (deg):     48.1003     48.0963     48.1005
outcell: Cell volume (Ang**3)        :     92.5941

siesta: Program's energy decomposition (eV):
siesta: Ebs     =      -718.033079
siesta: Eions   =      5228.674091
siesta: Ena     =      1092.639312
siesta: Ekin    =      2397.886218
siesta: Enl     =      -404.393775
siesta: DEna    =      -103.574509
siesta: DUscf   =        24.442243
siesta: DUext   =         0.000000
siesta: Exc     =      -724.049460
siesta: eta*DQ  =         0.000000
siesta: Emadel  =         0.000000
siesta: Emeta   =         0.000000
siesta: Emolmec =         0.000000
siesta: Ekinion =         0.692649
siesta: Eharris =     -2966.237460
siesta: Etot    =     -2945.031414
siesta: FreeEng =     -2945.031414

siesta: Final energy (eV):
siesta:  Band Struct. =    -718.033079
siesta:       Kinetic =    2397.886218
siesta:       Hartree =    1097.134404
siesta:    Ext. field =       0.000000
siesta:   Exch.-corr. =    -724.049460
siesta:  Ion-electron =   -4178.366625
siesta:       Ion-ion =   -1538.328599
siesta:       Ekinion =       0.692649
siesta:         Total =   -2945.031414

siesta: Atomic forces (eV/Ang):
siesta:      1   -0.054113    0.115384   -0.031613
siesta:      2    0.020871   -0.029050    0.010482
siesta:      3   -0.707869    0.589385    1.613781
siesta:      4    0.515498   -0.588740   -1.015065
siesta:      5    2.959499   -6.835792    0.540127
siesta:      6    0.340843    3.759697   -6.718833
siesta:      7   -2.308447    1.641420    5.047500
siesta:      8   -2.870634    6.543956    0.430774
siesta:      9   -0.251797   -3.474022    6.183274
siesta:     10    2.447404   -2.298688   -5.098714
siesta: ----------------------------------------
siesta:    Tot    0.091254   -0.576450    0.961712

siesta: Stress tensor (static) (eV/Ang**3):
siesta:     0.460368    0.080497    0.044449
siesta:     0.080496    0.298199    0.040852
siesta:     0.044461    0.040849    0.295851

siesta: Cell volume =         92.698812 Ang**3

siesta: Pressure (static):
siesta:                Solid            Molecule  Units
siesta:          -0.00382798         -0.00590682  Ry/Bohr**3
siesta:          -0.35147237         -0.54234436  eV/Ang**3
siesta:        -563.12690431       -868.94085590  kBar
(Free)E+ p_basis*V_orbitals  =       -2944.529765
(Free)Eharris+ p_basis*V_orbitals  =       -2927.841742

* Maximum dynamic memory allocated : Node    0 =     3 MB
* Maximum dynamic memory allocated : Node    1 =     3 MB

* Maximum memory occured during ranger                        

timer: CPU execution times:
timer:  Routine       Calls   Time/call    Tot.time        %
timer:  siesta            1       8.005       8.005   100.00
timer:  Setup             1       0.976       0.976    12.19
timer:  bands             1       0.001       0.001     0.01
timer:  writewave         1       0.002       0.002     0.03
timer:  KSV_init          1       0.000       0.000     0.01
timer:  IterMD           10       0.700       7.003    87.48
timer:  hsparse          10       0.029       0.291     3.63
timer:  overlap          10       0.013       0.130     1.62
timer:  IterSCF          10       0.358       3.575    44.66
timer:  kinefsm          20       0.008       0.162     2.02
timer:  nlefsm           20       0.048       0.970    12.11
timer:  DHSCF            20       0.242       4.841    60.47
timer:  DHSCF1           10       0.068       0.685     8.55
timer:  DHSCF2           10       0.138       1.381    17.25
timer:  REORD           180       0.000       0.009     0.11
timer:  POISON           30       0.007       0.196     2.44
timer:  DHSCF3           20       0.056       1.113    13.90
timer:  rhoofd           20       0.026       0.512     6.39
timer:  cellXC           30       0.008       0.253     3.16
timer:  vmat             20       0.013       0.262     3.27
timer:  MolMec           20       0.000       0.000     0.00
timer:  diagon           10       0.005       0.049     0.62
timer:  r-eigvec         10       0.005       0.046     0.57
timer:  r-buildHS        10       0.000       0.000     0.00
timer:  rdiag            10       0.005       0.045     0.57
timer:  rdiag1           10       0.000       0.003     0.04
timer:  rdiag2           10       0.000       0.003     0.04
timer:  rdiag3           10       0.003       0.031     0.38
timer:  rdiag4           10       0.000       0.002     0.03
timer:  r-buildD         10       0.000       0.002     0.02
timer:  DHSCF4           10       0.165       1.654    20.67
timer:  dfscf            10       0.108       1.080    13.50
timer:  overfsm          10       0.005       0.046     0.58
timer:  optical           1       0.014       0.014     0.18
  

elaps: ELAPSED times:
elaps:  Routine       Calls   Time/call    Tot.time        %
elaps:  siesta            1       4.091       4.091   100.00
elaps:  Setup             1       0.498       0.498    12.17
elaps:  bands             1       0.000       0.000     0.00
elaps:  writewave         1       0.001       0.001     0.02
elaps:  KSV_init          1       0.000       0.000     0.00
elaps:  IterMD           10       0.358       3.577    87.44
elaps:  hsparse          10       0.017       0.166     4.06
elaps:  overlap          10       0.008       0.085     2.08
elaps:  IterSCF          10       0.182       1.822    44.54
elaps:  kinefsm          20       0.005       0.100     2.44
elaps:  nlefsm           20       0.027       0.542    13.25
elaps:  DHSCF            20       0.123       2.470    60.38
elaps:  DHSCF1           10       0.035       0.354     8.65
elaps:  DHSCF2           10       0.070       0.700    17.11
elaps:  REORD           180       0.000       0.005     0.12
elaps:  POISON           30       0.003       0.097     2.37
elaps:  DHSCF3           20       0.028       0.564    13.79
elaps:  rhoofd           20       0.013       0.266     6.50
elaps:  cellXC           30       0.004       0.125     3.06
elaps:  vmat             20       0.007       0.136     3.32
elaps:  MolMec           20       0.000       0.000     0.00
elaps:  diagon           10       0.002       0.024     0.59
elaps:  r-eigvec         10       0.002       0.023     0.56
elaps:  r-buildHS        10       0.000       0.000     0.00
elaps:  rdiag            10       0.002       0.023     0.56
elaps:  rdiag1           10       0.000       0.002     0.05
elaps:  rdiag2           10       0.000       0.000     0.00
elaps:  rdiag3           10       0.002       0.016     0.39
elaps:  rdiag4           10       0.000       0.001     0.02
elaps:  r-buildD         10       0.000       0.000     0.00
elaps:  DHSCF4           10       0.085       0.847    20.70
elaps:  dfscf            10       0.056       0.557    13.62
elaps:  overfsm          10       0.003       0.026     0.64
elaps:  optical           1       0.000       0.000     0.00
  
>> End of run:  30-JUN-2010  16:51:35
