Siesta Version:                                        siesta-3.1
Architecture  : ifort11-macosx64
Compiler flags: ifort  -O2
SERIAL version

* Running in serial mode
>> Start of run:  10-JUN-2011  14:35:35

                           ***********************       
                           *  WELCOME TO SIESTA  *       
                           ***********************       

reinit: Reading from standard input
************************** Dump of input data file ****************************
#
# MgCO3 in primitive cell. SZ. Nose-Parrinello-Rahman. Harris
#
SystemName	MgCo3 R-3c Harris -- SZ, 50 R -- NPR at 10 Gpa, 500K
SystemLabel	md_npr
NumberOfSpecies		3
NumberOfAtoms	       10
%block ChemicalSpeciesLabel
      1      12     Mg
      2       6     C
      3       8     O
%endblock ChemicalSpeciesLabel
PAO.BasisSize  SZ
Diag.Divide-and-Conquer F
# Rhombohedral primitive cell
# (HEX 3-fold cell had A=4.635 and C=15.023, so alpha=48.179 degrees
#  and a=5.67783 Ang)
LatticeConstant     5.67783 Ang
%block LatticeParameters
1.0 1.0 1.0 48.179 48.179 48.179
%endblock LatticeParameters
AtomicCoordinatesFormat    Fractional
%block AtomicCoordinatesAndAtomicSpecies
  0.0         0.0         0.0      1
  0.5         0.5         0.5      1
  0.25        0.25        0.25     2
 -0.25       -0.25       -0.25     2
  0.5274     -0.0274      0.25     3
  0.25        0.5274     -0.0274   3
 -0.0274      0.25        0.5274   3
 -0.5274      0.0274     -0.25     3
 -0.25       -0.5274      0.0274   3
  0.0274     -0.25       -0.5274   3
%endblock AtomicCoordinatesAndAtomicSpecies
kgrid_cutoff 2.0 Ang
Solution.Method       diagon
MeshCutoff             50 Ry
DM.NumberBroyden       4
DM.UseSaveDM           T
DM.MixingWeight        0.1         # New DM amount for next SCF cycle
DM.Tolerance           1.d-3       # Tolerance in maximum difference
                                   # between input and output DM
MaxSCFIterations       20
WriteCoorStep      .true.
WriteForces        .true.
HarrisFunctional T
WriteMDHistory     .true.
MD.UseSaveXV       T
MD.TypeOfRun         NoseParrinelloRahman
MD.Target-pressure   10.0 GPa
MD.Target-temperature   500 K
MD.Initial-temperature   300 K
MD.Initial.Time.Step      1
MD.Final.Time.Step        10
MD.Length.Time.Step       0.3 fs
************************** End of input data file *****************************

reinit: -----------------------------------------------------------------------
reinit: System Name: MgCo3 R-3c Harris -- SZ, 50 R -- NPR at 10 Gpa, 500K
reinit: -----------------------------------------------------------------------
reinit: System Label: md_npr                                                      
reinit: -----------------------------------------------------------------------

initatom: Reading input for the pseudopotentials and atomic orbitals ----------
 Species number:            1  Label: Mg Atomic number:          12
 Species number:            2  Label: C Atomic number:           6
 Species number:            3  Label: O Atomic number:           8
Ground state valence configuration:   3s02
Reading pseudopotential information in formatted form from Mg.psf

Valence configuration for pseudopotential generation:
3s( 2.00) rc: 2.59
3p( 0.00) rc: 2.59
3d( 0.00) rc: 2.59
4f( 0.00) rc: 2.59
Ground state valence configuration:   2s02  2p02
Reading pseudopotential information in formatted form from C.psf

Valence configuration for pseudopotential generation:
2s( 2.00) rc: 1.49
2p( 2.00) rc: 1.52
3d( 0.00) rc: 1.58
Ground state valence configuration:   2s02  2p04
Reading pseudopotential information in formatted form from O.psf

Valence configuration for pseudopotential generation:
2s( 2.00) rc: 1.14
2p( 4.00) rc: 1.14
3d( 0.00) rc: 1.14
4f( 0.00) rc: 1.14
For Mg, standard SIESTA heuristics set lmxkb to 1
 (one more than the basis l, including polarization orbitals).
Use PS.lmax or PS.KBprojectors blocks to override.
For C, standard SIESTA heuristics set lmxkb to 2
 (one more than the basis l, including polarization orbitals).
Use PS.lmax or PS.KBprojectors blocks to override.
For O, standard SIESTA heuristics set lmxkb to 2
 (one more than the basis l, including polarization orbitals).
Use PS.lmax or PS.KBprojectors blocks to override.

<basis_specs>
===============================================================================
Mg                   Z=  12    Mass=  24.310        Charge= 0.17977+309
Lmxo=0 Lmxkb=1     BasisType=split      Semic=F
L=0  Nsemic=0  Cnfigmx=3
          n=1  nzeta=1  polorb=0
            splnorm:   0.15000    
               vcte:    0.0000    
               rinn:    0.0000    
                rcs:    0.0000    
            lambdas:    1.0000    
-------------------------------------------------------------------------------
L=0  Nkbl=1  erefs: 0.17977+309
L=1  Nkbl=1  erefs: 0.17977+309
===============================================================================
</basis_specs>

atom: Called for Mg                    (Z =  12)

read_vps: Pseudopotential generation method:
read_vps: ATM3      Troullier-Martins                       
Total valence charge:    2.00000

xc_check: Exchange-correlation functional:
xc_check: Ceperley-Alder
V l=0 = -2*Zval/r beyond r=  3.5878
V l=1 = -2*Zval/r beyond r=  3.5878
All V_l potentials equal beyond r=  2.5600
This should be close to max(r_c) in ps generation
All pots = -2*Zval/r beyond r=  3.5878
Using large-core scheme for Vlocal

atom: Estimated core radius    3.58779

atom: Including non-local core corrections could be a good idea
atom: Maximum radius for 4*pi*r*r*local-pseudopot. charge    3.91588
atom: Maximum radius for r*vlocal+2*Zval:    3.63292
GHOST: No ghost state for L =  0
GHOST: No ghost state for L =  1

KBgen: Kleinman-Bylander projectors: 
   l= 0   rc=  2.657845   el= -0.351328   Ekb=  2.184400   kbcos=  0.257081
   l= 1   rc=  2.657845   el= -0.101748   Ekb=  0.525536   kbcos=  0.270508

KBgen: Total number of  Kleinman-Bylander projectors:    4
atom: -------------------------------------------------------------------------

atom: SANKEY-TYPE ORBITALS:

SPLIT: Orbitals with angular momentum L= 0

SPLIT: Basis orbitals for state 3s

SPLIT: PAO cut-off radius determined from an
SPLIT: energy shift=  0.020000 Ry

   izeta = 1
                 lambda =    1.000000
                     rc =    6.619780
                 energy =   -0.332103
                kinetic =    0.289627
    potential(screened) =   -0.621729
       potential(ionic) =   -1.387191
atom: Total number of Sankey-type orbitals:  1

atm_pop: Valence configuration (for local Pseudopot. screening):
 3s( 2.00)                                                            
Vna: chval, zval:    2.00000   2.00000

Vna:  Cut-off radius for the neutral-atom potential:   6.619780

atom: _________________________________________________________________________

<basis_specs>
===============================================================================
C                    Z=   6    Mass=  12.010        Charge= 0.17977+309
Lmxo=1 Lmxkb=2     BasisType=split      Semic=F
L=0  Nsemic=0  Cnfigmx=2
          n=1  nzeta=1  polorb=0
            splnorm:   0.15000    
               vcte:    0.0000    
               rinn:    0.0000    
                rcs:    0.0000    
            lambdas:    1.0000    
L=1  Nsemic=0  Cnfigmx=2
          n=1  nzeta=1  polorb=0
            splnorm:   0.15000    
               vcte:    0.0000    
               rinn:    0.0000    
                rcs:    0.0000    
            lambdas:    1.0000    
-------------------------------------------------------------------------------
L=0  Nkbl=1  erefs: 0.17977+309
L=1  Nkbl=1  erefs: 0.17977+309
L=2  Nkbl=1  erefs: 0.17977+309
===============================================================================
</basis_specs>

atom: Called for C                     (Z =   6)

read_vps: Pseudopotential generation method:
read_vps: ATM3      Troullier-Martins                       
Total valence charge:    4.00000

xc_check: Exchange-correlation functional:
xc_check: Ceperley-Alder
V l=0 = -2*Zval/r beyond r=  1.4666
V l=1 = -2*Zval/r beyond r=  1.5038
V l=2 = -2*Zval/r beyond r=  1.5612
All V_l potentials equal beyond r=  1.5612
This should be close to max(r_c) in ps generation
All pots = -2*Zval/r beyond r=  1.5612

VLOCAL1: 99.0% of the norm of Vloc inside     17.809 Ry
VLOCAL1: 99.9% of the norm of Vloc inside     40.586 Ry
atom: Maximum radius for 4*pi*r*r*local-pseudopot. charge    1.88329
atom: Maximum radius for r*vlocal+2*Zval:    1.62091
GHOST: No ghost state for L =  0
GHOST: No ghost state for L =  1
GHOST: No ghost state for L =  2

KBgen: Kleinman-Bylander projectors: 
   l= 0   rc=  1.747182   el= -1.001947   Ekb=  5.181700   kbcos=  0.300603
   l= 1   rc=  1.747182   el= -0.398598   Ekb= -4.328763   kbcos= -0.367074
   l= 2   rc=  1.955272   el=  0.002326   Ekb= -1.016175   kbcos= -0.009979

KBgen: Total number of  Kleinman-Bylander projectors:    9
atom: -------------------------------------------------------------------------

atom: SANKEY-TYPE ORBITALS:

SPLIT: Orbitals with angular momentum L= 0

SPLIT: Basis orbitals for state 2s

SPLIT: PAO cut-off radius determined from an
SPLIT: energy shift=  0.020000 Ry

   izeta = 1
                 lambda =    1.000000
                     rc =    4.191849
                 energy =   -0.983897
                kinetic =    0.886956
    potential(screened) =   -1.870853
       potential(ionic) =   -5.479661

SPLIT: Orbitals with angular momentum L= 1

SPLIT: Basis orbitals for state 2p

SPLIT: PAO cut-off radius determined from an
SPLIT: energy shift=  0.020000 Ry

   izeta = 1
                 lambda =    1.000000
                     rc =    4.870301
                 energy =   -0.379093
                kinetic =    2.545357
    potential(screened) =   -2.924450
       potential(ionic) =   -6.433151
atom: Total number of Sankey-type orbitals:  4

atm_pop: Valence configuration (for local Pseudopot. screening):
 2s( 2.00)                                                            
 2p( 2.00)                                                            
Vna: chval, zval:    4.00000   4.00000

Vna:  Cut-off radius for the neutral-atom potential:   4.870301

atom: _________________________________________________________________________

<basis_specs>
===============================================================================
O                    Z=   8    Mass=  16.000        Charge= 0.17977+309
Lmxo=1 Lmxkb=2     BasisType=split      Semic=F
L=0  Nsemic=0  Cnfigmx=2
          n=1  nzeta=1  polorb=0
            splnorm:   0.15000    
               vcte:    0.0000    
               rinn:    0.0000    
                rcs:    0.0000    
            lambdas:    1.0000    
L=1  Nsemic=0  Cnfigmx=2
          n=1  nzeta=1  polorb=0
            splnorm:   0.15000    
               vcte:    0.0000    
               rinn:    0.0000    
                rcs:    0.0000    
            lambdas:    1.0000    
-------------------------------------------------------------------------------
L=0  Nkbl=1  erefs: 0.17977+309
L=1  Nkbl=1  erefs: 0.17977+309
L=2  Nkbl=1  erefs: 0.17977+309
===============================================================================
</basis_specs>

atom: Called for O                     (Z =   8)

read_vps: Pseudopotential generation method:
read_vps: ATM3      Troullier-Martins                       
Total valence charge:    6.00000

xc_check: Exchange-correlation functional:
xc_check: Ceperley-Alder
V l=0 = -2*Zval/r beyond r=  1.1278
V l=1 = -2*Zval/r beyond r=  1.1278
V l=2 = -2*Zval/r beyond r=  1.1278
All V_l potentials equal beyond r=  1.1278
This should be close to max(r_c) in ps generation
All pots = -2*Zval/r beyond r=  1.1278

VLOCAL1: 99.0% of the norm of Vloc inside     34.126 Ry
VLOCAL1: 99.9% of the norm of Vloc inside     77.774 Ry
atom: Maximum radius for 4*pi*r*r*local-pseudopot. charge    1.37759
atom: Maximum radius for r*vlocal+2*Zval:    1.18566
GHOST: No ghost state for L =  0
GHOST: No ghost state for L =  1
GHOST: No ghost state for L =  2

KBgen: Kleinman-Bylander projectors: 
   l= 0   rc=  1.294105   el= -1.742414   Ekb=  9.135903   kbcos=  0.326910
   l= 1   rc=  1.294105   el= -0.676589   Ekb= -8.124878   kbcos= -0.395047
   l= 2   rc=  1.448233   el=  0.002386   Ekb= -2.039267   kbcos= -0.003484

KBgen: Total number of  Kleinman-Bylander projectors:    9
atom: -------------------------------------------------------------------------

atom: SANKEY-TYPE ORBITALS:

SPLIT: Orbitals with angular momentum L= 0

SPLIT: Basis orbitals for state 2s

SPLIT: PAO cut-off radius determined from an
SPLIT: energy shift=  0.020000 Ry

   izeta = 1
                 lambda =    1.000000
                     rc =    3.305093
                 energy =   -1.723766
                kinetic =    1.614911
    potential(screened) =   -3.338677
       potential(ionic) =  -11.304675

SPLIT: Orbitals with angular momentum L= 1

SPLIT: Basis orbitals for state 2p

SPLIT: PAO cut-off radius determined from an
SPLIT: energy shift=  0.020000 Ry

   izeta = 1
                 lambda =    1.000000
                     rc =    3.937239
                 energy =   -0.658841
                kinetic =    5.005986
    potential(screened) =   -5.664827
       potential(ionic) =  -13.452360
atom: Total number of Sankey-type orbitals:  4

atm_pop: Valence configuration (for local Pseudopot. screening):
 2s( 2.00)                                                            
 2p( 4.00)                                                            
Vna: chval, zval:    6.00000   6.00000

Vna:  Cut-off radius for the neutral-atom potential:   3.937239

atom: _________________________________________________________________________

prinput: Basis input ----------------------------------------------------------

PAO.BasisType split     

%block ChemicalSpeciesLabel
    1   12 Mg                      # Species index, atomic number, species label
    2    6 C                       # Species index, atomic number, species label
    3    8 O                       # Species index, atomic number, species label
%endblock ChemicalSpeciesLabel

%block PAO.Basis                 # Define Basis set
Mg                    1                    # Species label, number of l-shells
 n=3   0   1                         # n, l, Nzeta 
   6.620   
   1.000   
C                     2                    # Species label, number of l-shells
 n=2   0   1                         # n, l, Nzeta 
   4.192   
   1.000   
 n=2   1   1                         # n, l, Nzeta 
   4.870   
   1.000   
O                     2                    # Species label, number of l-shells
 n=2   0   1                         # n, l, Nzeta 
   3.305   
   1.000   
 n=2   1   1                         # n, l, Nzeta 
   3.937   
   1.000   
%endblock PAO.Basis

prinput: ----------------------------------------------------------------------

coor:   Atomic-coordinates input format  =     Fractional

siesta: WARNING: XV file not found

siesta: Atomic coordinates (Bohr) and species
siesta:      0.00000   0.00000   0.00000  1        1
siesta:     12.51930   5.59740   3.66414  1        2
siesta:      6.25965   2.79870   1.83207  2        3
siesta:     -6.25965  -2.79870  -1.83207  2        4
siesta:      7.25136   0.58061   1.83207  3        5
siesta:      6.25965   4.12944  -0.20079  3        6
siesta:      5.26794   3.68605   3.86493  3        7
siesta:     -7.25136  -0.58061  -1.83207  3        8
siesta:     -6.25965  -4.12944   0.20079  3        9
siesta:     -5.26794  -3.68605  -3.86493  3       10

siesta: System type = bulk      

initatomlists: Number of atoms, orbitals, and projectors:     10    34    80

siesta: ******************** Simulation parameters ****************************
siesta:
siesta: The following are some of the parameters of the simulation.
siesta: A complete list of the parameters used, including default values,
siesta: can be found in file out.fdf
siesta:
redata: Non-Collinear-spin run           =     F
redata: SpinPolarized (Up/Down) run      =     F
redata: Number of spin components        =     1
redata: Long output                      =     F
redata: Number of Atomic Species         =        3
redata: Charge density info will appear in .RHO file
redata: Write Mulliken Pop.              =     NO
redata: Mesh Cutoff                      =    50.0000  Ry
redata: Net charge of the system         =     0.0000 |e|
redata: Max. number of SCF Iter          =       20
redata: Broyden mixing with     4 saved histories.
redata: Mix DM in first SCF step ?       =     F
redata: Write Pulay info on disk?        =     F
redata: Discard 1st Pulay DM after  kick =     F
redata: New DM Mixing Weight             =     0.1000
redata: New DM Occupancy tolerance       = 0.000000000001
redata: No kicks to SCF
redata: DM Mixing Weight for Kicks       =     0.5000
redata: DM Tolerance for SCF             =     0.001000
redata: Require Energy convergence for SCF =     F
redata: DM Energy tolerance for SCF      =     0.000100 eV
redata: Require Harris convergence for SCF =     F
redata: DM Harris energy tolerance for SCF =     0.000100 eV
redata: Using Saved Data (generic)   =     F
redata: Use continuation files for DM    =     T
redata: Neglect nonoverlap interactions  =     F
redata: Method of Calculation            =     Diagonalization
redata: Divide and Conquer               =     F
redata: Electronic Temperature           =     0.0019  Ry
redata: Fix the spin of the system       =     F
redata: Dynamics option                  =     Nose-Parrinello-Rahman MD run
redata: Initial MD time step             =        1
redata:   Final MD time step             =       10
redata: Length of MD time step           =     0.3000  fs
redata: Initial Temperature of MD run    =   300.0000  K
redata: Perform a MD quench              =     F
redata: Nose mass                        =   100.0000  Ry/fs**2
redata: Parrinello-Rahman mass           =   100.0000  Ry/fs**2
redata: Target Temperature               =   500.0000  Kelvin
redata: Target Pressure                  =     0.0007  Ry/Bohr**3
redata: ***********************************************************************
Total number of electrons:    48.000000
Total ionic charge:    48.000000
 Kpoints in:            1 . Kpoints trimmed:            1

siesta: k-grid: Number of k-points =     1
siesta: k-grid: Cutoff (effective) =     2.317 Ang
siesta: k-grid: Supercell and displacements
siesta: k-grid:    1   0   0      0.000
siesta: k-grid:    0   1   0      0.000
siesta: k-grid:    0   0   1      0.000

* Maximum dynamic memory allocated =     3 MB

siesta:                 ==============================
                            Begin MD step =      1
                        ==============================

outcoor: Atomic coordinates (fractional):                   
    0.00000000    0.00000000    0.00000000   1       1  Mg
    0.50000000    0.50000000    0.50000000   1       2  Mg
    0.25000000    0.25000000    0.25000000   2       3  C
   -0.25000000   -0.25000000   -0.25000000   2       4  C
    0.52740000   -0.02740000    0.25000000   3       5  O
    0.25000000    0.52740000   -0.02740000   3       6  O
   -0.02740000    0.25000000    0.52740000   3       7  O
   -0.52740000    0.02740000   -0.25000000   3       8  O
   -0.25000000   -0.52740000    0.02740000   3       9  O
    0.02740000   -0.25000000   -0.52740000   3      10  O

outcell: Unit cell vectors (Ang):
        5.677830    0.000000    0.000000
        3.786009    4.231299    0.000000
        3.786009    1.692731    3.877957

outcell: Cell vector modules (Ang)   :    5.677830    5.677830    5.677830
outcell: Cell angles (23,13,12) (deg):     48.1790     48.1790     48.1790
outcell: Cell volume (Ang**3)        :     93.1663
New_DM. Step:     1
Initializing Density Matrix...

InitMesh: MESH =    24 x    24 x    24 =       13824
InitMesh: Mesh cutoff (required, used) =    50.000    63.482 Ry

* Maximum dynamic memory allocated =     4 MB

stepf: Fermi-Dirac step function
 Broyden: No of relevant DM elements:         1156
 maxit for broyden:            4
 cycle on maxit:  T
 variable weight:  T
 initial alpha:   0.100000000000000     

siesta: Program's energy decomposition (eV):
siesta: Ebs     =      -718.671235
siesta: Eions   =      5228.674091
siesta: Ena     =      1092.429444
siesta: Ekin    =      2069.792750
siesta: Enl     =      -254.036133
siesta: DEna    =        15.960994
siesta: DUscf   =         0.158221
siesta: DUext   =         0.000000
siesta: Exc     =      -679.402762
siesta: eta*DQ  =         0.000000
siesta: Emadel  =         0.000000
siesta: Emeta   =         0.000000
siesta: Emolmec =         0.000000
siesta: Ekinion =         0.000000
siesta: Eharris =     -2966.596358
siesta: Etot    =     -2983.771576
siesta: FreeEng =     -2983.771576

siesta: Eharris(eV) =   -2966.596358


siesta: Eharris(eV) =   -2966.596358

timer: Routine,Calls,Time,% = IterSCF        1       0.485  46.57
elaps: Routine,Calls,Wall,% = IterSCF        1       0.487  44.88

siesta: E_KS - E_eggbox =     -2945.6642

siesta: Atomic forces (eV/Ang):
     1    0.000000    0.000000    0.000000
     2    0.000000    0.000000    0.000000
     3    0.000001    0.000000   -0.000004
     4   -0.000001   -0.000001    0.000004
     5    2.998811   -6.707232   -0.000003
     6   -0.000006    4.024015   -6.147137
     7   -2.998825    2.683242    6.147168
     8   -2.998810    6.707231    0.000003
     9    0.000007   -4.024013    6.147138
    10    2.998825   -2.683243   -6.147166
----------------------------------------
   Tot    0.000002   -0.000001    0.000003
----------------------------------------
   Max    6.707232
   Res    3.285729    sqrt( Sum f_i^2 / 3N )
----------------------------------------
   Max    6.707232    constrained

Stress-tensor-Voigt (kbar):      718.92      461.37      422.94      144.10       40.04       94.00
(Free)E + p*V (eV/cell)    -2976.7397
Target enthalpy (eV/cell)    -2939.8492

siesta: Stress tensor (static) (eV/Ang**3):
         0.449994    0.089162    0.058367
         0.089162    0.290436    0.026096
         0.058367    0.026096    0.267654

siesta: Pressure (static):       -538.38238024  kBar

siesta: Stress tensor (total) (eV/Ang**3):
         0.448708    0.089938    0.058672
         0.089938    0.287961    0.024988
         0.058672    0.024988    0.263977

siesta: Pressure (total):       -534.41016650  kBar

siesta: Temp_ion =     300.018 K
 iupos on opening:           16
 iupos on writing:           16
 istep, xa, va :            1  1.840614516816140E-003 -3.469080554837703E-003
  5.842464590838774E-004   12.5185325824992        5.59795990766337     
   3.66385860565309        6.26067008717344        2.79715733024282     
   1.82993333316801       -6.26022618644051       -2.79682740532127     
  -1.82906485169509        7.24972282375168       0.582261139809191     
   1.82916757948458        6.25738247726520        4.13144737305575     
 -0.195339373112553        5.26828268620610        3.68844374571546     
   3.86531153722194       -7.25333468409181      -0.582530038686086     
  -1.83482242108297       -6.25808146553373       -4.13091432527551     
  0.198540516875576       -5.26618786591381       -3.68464748494721     
  -3.86404257567231       6.135203769441293E-003 -1.156321476584530E-002
  1.947430092414217E-003 -2.004633239599111E-003  2.112139276819647E-003
 -7.784950319432443E-004  3.676850714347495E-003 -5.019144805041324E-003
 -7.042262916153439E-003 -2.197189550121255E-003  6.118876997835260E-003
  9.937118787808407E-003 -5.530896737608343E-003  6.396443610995545E-003
 -9.593222469811190E-003 -7.281244015783665E-003  6.343419091333122E-003
  1.896910803422899E-002  1.769210457167927E-003  7.802452485882156E-003
  6.288016023941360E-004 -6.508501900384489E-003 -7.292860202863285E-003
 -9.255711213865916E-003  4.951381418626777E-003 -4.566640215650915E-003
 -8.298969305574758E-003  5.213494517791760E-003  4.851426574220369E-003
  3.600991456465819E-003

* Maximum dynamic memory allocated =     4 MB

siesta:                 ==============================
                            Begin MD step =      2
                        ==============================

outcoor: Atomic coordinates (fractional):                   
    0.00042897   -0.00046577    0.00007973   1       1  Mg
    0.49990385    0.50009200    0.49996813   1       2  Mg
    0.25034373    0.24992701    0.24971169   2       3  C
   -0.25037729   -0.24993316   -0.24959317   2       4  C
    0.52728513   -0.02704558    0.24960725   3       5  O
    0.24932700    0.52737004   -0.02666610   3       6  O
   -0.02759875    0.25028246    0.52746845   3       7  O
   -0.52729063    0.02732066   -0.25037893   3       8  O
   -0.24961137   -0.52747813    0.02710294   3       9  O
    0.02740812   -0.24987695   -0.52729528   3      10  O

outcell: Unit cell vectors (Ang):
        5.677710    0.000072    0.000047
        3.785983    4.231160    0.000048
        3.785983    1.692720    3.877812

outcell: Cell vector modules (Ang)   :    5.677710    5.677709    5.677710
outcell: Cell angles (23,13,12) (deg):     48.1775     48.1775     48.1775
outcell: Cell volume (Ang**3)        :     93.1559
New_DM. Step:     2
Initializing Density Matrix...

InitMesh: MESH =    24 x    24 x    24 =       13824
InitMesh: Mesh cutoff (required, used) =    50.000    63.484 Ry

siesta: Eharris(eV) =   -2966.568811


siesta: Eharris(eV) =   -2966.568811


siesta: Atomic forces (eV/Ang):
     1   -0.007316    0.008267   -0.007406
     2   -0.000512    0.003792    0.000083
     3   -0.098863    0.078825    0.225317
     4    0.071538   -0.079672   -0.141954
     5    3.035533   -6.847639    0.091160
     6    0.054445    4.046424   -6.360249
     7   -2.960057    2.608471    6.094455
     8   -3.064733    6.822428    0.077679
     9   -0.036175   -4.023555    6.286289
    10    2.970279   -2.666440   -6.085910
----------------------------------------
   Tot   -0.035861   -0.049100    0.179463
----------------------------------------
   Max    6.847639
   Res    3.318493    sqrt( Sum f_i^2 / 3N )
----------------------------------------
   Max    6.847639    constrained

Stress-tensor-Voigt (kbar):      717.21      452.67      415.55      146.36       43.78       94.27
(Free)E + p*V (eV/cell)    -2976.3724
Target enthalpy (eV/cell)    -2939.8311

siesta: Stress tensor (static) (eV/Ang**3):
         0.448928    0.090570    0.058533
         0.090570    0.285009    0.028434
         0.058534    0.028433    0.263039

siesta: Pressure (static):       -532.44944983  kBar

siesta: Stress tensor (total) (eV/Ang**3):
         0.447643    0.091347    0.058838
         0.091347    0.282534    0.027326
         0.058840    0.027326    0.259361

siesta: Pressure (total):       -528.47690207  kBar

siesta: Temp_ion =     277.682 K
 iupos on opening:           17
 iupos on writing:           17
 istep, xa, va :            2  3.680749482578499E-003 -6.937598066835458E-003
  1.168000168789461E-003   12.5176047664810        5.59844807435428     
   3.66353011308648        6.26159657916734        2.79558935730744     
   1.82780368115383       -6.26071246089101       -2.79492961222922     
  -1.82605540412307        7.24826400147158       0.583287427841933     
   1.82625122593707        6.25503997440900        4.13376286185628     
 -0.190455812426254        5.26829471054845        3.69102661546471     
   3.86618563924693       -7.25549084377838      -0.583827859407533     
  -1.83754375507598       -6.25643607536039       -4.13269443228934     
  0.196850569420833       -5.26410391446420       -3.68343994826376     
  -3.86364681423200       6.134582470964163E-003 -1.156266344472576E-002
  1.946666947982435E-003 -2.004754292435970E-003  2.112630937076853E-003
 -7.785108467258431E-004  3.654616065182295E-003 -5.001484314283292E-003
 -6.991547739047112E-003 -2.181085604630836E-003  6.101059444651606E-003
  9.905342790316962E-003 -4.507047003029100E-003  4.096392263093162E-003
 -9.578060229676928E-003 -7.272235559544701E-003  7.713172271312261E-003
  1.684721255899240E-002  7.580456364371319E-004  8.700704590383248E-003
  2.706219947313379E-003 -7.537690174971055E-003 -4.997111539092408E-003
 -9.242821668504941E-003  4.945400640550783E-003 -5.932456326414513E-003
 -6.189284234695084E-003  6.226614503980121E-003  3.943740744539966E-003
  1.525155077576144E-003

* Maximum dynamic memory allocated =     4 MB

siesta:                 ==============================
                            Begin MD step =      3
                        ==============================

outcoor: Atomic coordinates (fractional):                   
    0.00085795   -0.00093154    0.00015940   1       1  Mg
    0.49980766    0.50018406    0.49993625   1       2  Mg
    0.25068372    0.24985368    0.24942749   2       3  C
   -0.25075179   -0.24986662   -0.24918889   2       4  C
    0.52725671   -0.02677879    0.24921569   3       5  O
    0.24865539    0.52742697   -0.02602044   3       6  O
   -0.02788168    0.25056431    0.52762159   3       7  O
   -0.52726869    0.02732778   -0.25075684   3       8  O
   -0.24922378   -0.52764247    0.02689318   3       9  O
    0.02750091   -0.24975401   -0.52727513   3      10  O

outcell: Unit cell vectors (Ang):
        5.677469    0.000216    0.000141
        3.785930    4.230886    0.000142
        3.785931    1.692697    3.877523

outcell: Cell vector modules (Ang)   :    5.677469    5.677470    5.677471
outcell: Cell angles (23,13,12) (deg):     48.1746     48.1746     48.1746
outcell: Cell volume (Ang**3)        :     93.1350
New_DM. Step:     3
Initializing Density Matrix...

InitMesh: MESH =    24 x    24 x    24 =       13824
InitMesh: Mesh cutoff (required, used) =    50.000    63.487 Ry

siesta: Eharris(eV) =   -2966.557376


siesta: Eharris(eV) =   -2966.557376


siesta: Atomic forces (eV/Ang):
     1   -0.008574    0.020179   -0.010313
     2    0.004597   -0.001578   -0.000252
     3   -0.194451    0.154887    0.443546
     4    0.139433   -0.157204   -0.278163
     5    3.060380   -6.926366    0.149827
     6    0.095340    4.059506   -6.497932
     7   -2.910140    2.516448    6.025429
     8   -3.086304    6.879686    0.122847
     9   -0.061702   -4.012206    6.347034
    10    2.933717   -2.643360   -6.010878
----------------------------------------
   Tot   -0.027702   -0.110007    0.291144
----------------------------------------
   Max    6.926366
   Res    3.329385    sqrt( Sum f_i^2 / 3N )
----------------------------------------
   Max    6.926366    constrained

Stress-tensor-Voigt (kbar):      717.81      449.37      417.46      146.50       47.26       92.28
(Free)E + p*V (eV/cell)    -2976.3376
Target enthalpy (eV/cell)    -2939.8199

siesta: Stress tensor (static) (eV/Ang**3):
         0.449365    0.090577    0.057374
         0.090577    0.282884    0.030687
         0.057376    0.030686    0.263676

siesta: Pressure (static):       -531.88837240  kBar

siesta: Stress tensor (total) (eV/Ang**3):
         0.448015    0.091440    0.057591
         0.091439    0.280470    0.029499
         0.057594    0.029499    0.260555

siesta: Pressure (total):       -528.21105915  kBar

siesta: Temp_ion =     269.097 K
 iupos on opening:           17
 iupos on writing:           17
 istep, xa, va :            3  5.520307641700634E-003 -1.040470326013894E-002
  1.751065293598283E-003   12.5165142052865        5.59886337535618     
   3.66315414935106        6.26241514290990        2.79400604291535     
   1.82571050446480       -6.26109822917468       -2.79301677628652     
  -1.82305999678927        7.24698657797606       0.583679484321443     
   1.82332774309605        6.25262492723835        4.13639169213570     
 -0.186158469071996        5.26797839814348        3.69378550053723     
   3.86754900626446       -7.25783129352066      -0.584496327283777     
  -1.84023019567786       -6.25471467487115       -4.13478306243352     
  0.195731431430242       -5.26168902333667       -3.68242130127601     
  -3.86373879101789       6.133469842616955E-003 -1.156084066437157E-002
  1.944903349373278E-003 -2.004492017223870E-003  2.113138699018606E-003
 -7.786091808594689E-004  3.588740206350089E-003 -4.949213674157335E-003
 -6.841127723963220E-003 -2.133735975786042E-003  6.048163259544197E-003
  9.811470032732923E-003 -3.472944059833998E-003  1.759508147206156E-003
 -9.538220772669527E-003 -7.247681340509037E-003  9.089608374877822E-003
  1.466712098926207E-002 -2.381839616991503E-004  9.571328323706458E-003
  4.763207532816573E-003 -8.582025750796177E-003 -2.672295080224721E-003
 -9.209748658673366E-003  4.929345256841418E-003 -7.296802598958929E-003
 -4.046140198043112E-003  7.228988967899363E-003  3.043021736126158E-003
 -5.275484381703223E-004

* Maximum dynamic memory allocated =     4 MB

siesta:                 ==============================
                            Begin MD step =      4
                        ==============================

outcoor: Atomic coordinates (fractional):                   
    0.00128695   -0.00139725    0.00023901   1       1  Mg
    0.49971148    0.50027613    0.49990437   1       2  Mg
    0.25101633    0.24977967    0.24915141   2       3  C
   -0.25112083   -0.24980066   -0.24878964   2       4  C
    0.52731533   -0.02660098    0.24882610   3       5  O
    0.24798610    0.52757175   -0.02546488   3       6  O
   -0.02824720    0.25084480    0.52785853   3       7  O
   -0.52733514    0.02742188   -0.25113315   3       8  O
   -0.24883786   -0.52789326    0.02677156   3       9  O
    0.02767744   -0.24963129   -0.52733852   3      10  O

outcell: Unit cell vectors (Ang):
        5.677109    0.000429    0.000283
        3.785850    4.230477    0.000282
        3.785853    1.692660    3.877091

outcell: Cell vector modules (Ang)   :    5.677110    5.677112    5.677113
outcell: Cell angles (23,13,12) (deg):     48.1703     48.1703     48.1703
outcell: Cell volume (Ang**3)        :     93.1039
New_DM. Step:     4
Initializing Density Matrix...

InitMesh: MESH =    24 x    24 x    24 =       13824
InitMesh: Mesh cutoff (required, used) =    50.000    63.492 Ry

siesta: Eharris(eV) =   -2966.562395


siesta: Eharris(eV) =   -2966.562395


siesta: Atomic forces (eV/Ang):
     1   -0.017965    0.028883   -0.014796
     2    0.009285   -0.006900    0.003466
     3   -0.287830    0.232030    0.659195
     4    0.210167   -0.233668   -0.413428
     5    3.078211   -6.984918    0.205845
     6    0.136738    4.060236   -6.604018
     7   -2.855084    2.423994    5.944536
     8   -3.099417    6.915610    0.166259
     9   -0.091106   -3.978331    6.390538
    10    2.891066   -2.614519   -5.921310
----------------------------------------
   Tot   -0.025935   -0.157583    0.416286
----------------------------------------
   Max    6.984918
   Res    3.331773    sqrt( Sum f_i^2 / 3N )
----------------------------------------
   Max    6.984918    constrained

Stress-tensor-Voigt (kbar):      718.25      447.18      420.75      146.68       50.13       90.24
(Free)E + p*V (eV/cell)    -2976.3517
Target enthalpy (eV/cell)    -2939.8162

siesta: Stress tensor (static) (eV/Ang**3):
         0.449741    0.090541    0.056154
         0.090541    0.281614    0.032526
         0.056158    0.032525    0.265327

siesta: Pressure (static):       -532.29248760  kBar

siesta: Stress tensor (total) (eV/Ang**3):
         0.448289    0.091551    0.056317
         0.091551    0.279107    0.031290
         0.056321    0.031289    0.262612

siesta: Pressure (total):       -528.72797568  kBar

siesta: Temp_ion =     274.647 K
 iupos on opening:           17
 iupos on writing:           17
 istep, xa, va :            4  7.358647403752026E-003 -1.386976448662828E-002
  2.333142676891152E-003   12.5152613391989        5.59920548462563     
   3.66273095816677        6.26311315056066        2.79241789398809     
   1.82368309217659       -6.26137391763880       -2.79109930734207     
  -1.82009701857090        7.24589248152185       0.583430646322008     
   1.82040370741921        6.25014121947753        4.13933492028396     
 -0.182458105387482        5.26733982734951        3.69671069050588     
   3.86939242692841       -7.26035758699011      -0.584531139809693     
  -1.84287815541192       -6.25291989973738       -4.13717775274206     
  0.195187446628339       -5.25894791973176       -3.68158830980543     
  -3.86430839935704       6.131639779080296E-003 -1.155770320670020E-002
  1.942462409337075E-003 -2.003267752090330E-003  2.112645561388569E-003
 -7.783839141453154E-004  3.480455927190319E-003 -4.862709329954454E-003
 -6.593171866270289E-003 -2.055316810892816E-003  5.960911683641400E-003
  9.657009432979358E-003 -2.431624843731555E-003 -6.007116527954330E-004
 -9.479667951722828E-003 -7.209801745965819E-003  1.046928981429885E-002
  1.244665071094368E-002 -1.216878339841011E-003  1.041147491220220E-002
  6.795331173888054E-003 -9.632731323033888E-003 -3.314818733062518E-004
 -9.162311919697890E-003  4.904368422407090E-003 -8.654242433156701E-003
 -1.885418532292472E-003  8.218399659846201E-003  2.151166291024848E-003
 -2.552653843925663E-003

* Maximum dynamic memory allocated =     4 MB

siesta:                 ==============================
                            Begin MD step =      5
                        ==============================

outcoor: Atomic coordinates (fractional):                   
    0.00171592   -0.00186289    0.00031851   1       1  Mg
    0.49961534    0.50036818    0.49987250   1       2  Mg
    0.25133794    0.24970468    0.24888741   2       3  C
   -0.25148167   -0.24973559   -0.24839786   2       4  C
    0.52746142   -0.02651321    0.24843920   3       5  O
    0.24732003    0.52780506   -0.02500088   3       6  O
   -0.02869368    0.25112323    0.52817820   3       7  O
   -0.52749070    0.02760323   -0.25150729   3       8  O
   -0.24845438   -0.52823040    0.02673873   3       9  O
    0.02793662   -0.24950892   -0.52748429   3      10  O

outcell: Unit cell vectors (Ang):
        5.676629    0.000714    0.000474
        3.785742    4.229935    0.000467
        3.785750    1.692610    3.876514

outcell: Cell vector modules (Ang)   :    5.676630    5.676636    5.676635
outcell: Cell angles (23,13,12) (deg):     48.1646     48.1644     48.1646
outcell: Cell volume (Ang**3)        :     93.0625
New_DM. Step:     5
Initializing Density Matrix...

InitMesh: MESH =    24 x    24 x    24 =       13824
InitMesh: Mesh cutoff (required, used) =    50.000    63.499 Ry

siesta: Eharris(eV) =   -2966.583894


siesta: Eharris(eV) =   -2966.583894


siesta: Atomic forces (eV/Ang):
     1   -0.026276    0.044977   -0.018088
     2    0.011322   -0.000854   -0.001565
     3   -0.377124    0.304187    0.859828
     4    0.274037   -0.304680   -0.535450
     5    3.084368   -7.022809    0.265422
     6    0.179212    4.039750   -6.683093
     7   -2.794515    2.326987    5.845825
     8   -3.099718    6.925285    0.214925
     9   -0.115381   -3.941727    6.413082
    10    2.840892   -2.581484   -5.820293
----------------------------------------
   Tot   -0.023184   -0.210370    0.540592
----------------------------------------
   Max    7.022809
   Res    3.324913    sqrt( Sum f_i^2 / 3N )
----------------------------------------
   Max    7.022809    constrained

Stress-tensor-Voigt (kbar):      719.02      446.53      425.87      146.08       52.86       88.16
(Free)E + p*V (eV/cell)    -2976.4407
Target enthalpy (eV/cell)    -2939.8200

siesta: Stress tensor (static) (eV/Ang**3):
         0.450366    0.089956    0.054874
         0.089955    0.281452    0.034248
         0.054879    0.034247    0.268273

siesta: Pressure (static):       -534.11328614  kBar

siesta: Stress tensor (total) (eV/Ang**3):
         0.448773    0.091175    0.055016
         0.091174    0.278696    0.032994
         0.055022    0.032993    0.265807

siesta: Pressure (total):       -530.47395952  kBar

siesta: Temp_ion =     294.400 K
 iupos on opening:           17
 iupos on writing:           17
 istep, xa, va :            5  9.195194995136036E-003 -1.733164779865915E-002
  2.914013709407995E-003   12.5138464737177        5.59947487851425     
   3.66226013119086        6.26367854387071        2.79083476815939     
   1.82174867594023       -6.26153090029826       -2.78918690362542     
  -1.81718304243056        7.24498228108051       0.582536758157357     
   1.81748600868951        6.24759296825912        4.14259124464248     
 -0.179362426826547        5.26638575830450        3.69979185109047     
   3.87170450288560       -7.26306979694675      -0.583931068025796     
  -1.84548344502743       -6.25105398414581       -4.13987556710210     
  0.195220506304598       -5.25588622011762       -3.68093716155225     
  -3.86534399867068       6.128297808871152E-003 -1.155276796942213E-002
  1.939294288388481E-003 -2.001422527278033E-003  2.112423366696382E-003
 -7.783579134632746E-004  3.331161913652979E-003 -4.742832506686872E-003
 -6.251605169233481E-003 -1.946721613367531E-003  5.840756664730527E-003
  9.445132611758094E-003 -1.386082586392601E-003 -2.977735764306928E-003
 -9.402229239744358E-003 -7.158317164610536E-003  1.184674053278985E-002
  1.019536926445761E-002 -2.176391189147430E-003  1.122042531865235E-002
  8.797888966364683E-003 -1.068636388951607E-002  2.017641646419460E-003
 -9.099899985944234E-003  4.870673161583543E-003 -1.000070529959923E-002
  2.867572354815018E-004  9.192694877637147E-003  1.269712679502768E-003
 -4.546085499512307E-003

* Maximum dynamic memory allocated =     4 MB

siesta:                 ==============================
                            Begin MD step =      6
                        ==============================

outcoor: Atomic coordinates (fractional):                   
    0.00214479   -0.00232836    0.00039788   1       1  Mg
    0.49951923    0.50046028    0.49984061   1       2  Mg
    0.25164516    0.24962844    0.24863918   2       3  C
   -0.25183186   -0.24967169   -0.24801578   2       4  C
    0.52769512   -0.02651634    0.24805578   3       5  O
    0.24665811    0.52812716   -0.02462953   3       6  O
   -0.02921927    0.25139894    0.52857933   3       7  O
   -0.52773579    0.02787179   -0.25187862   3       8  O
   -0.24807394   -0.52865365    0.02679505   3       9  O
    0.02827723   -0.24938702   -0.52771109   3      10  O

outcell: Unit cell vectors (Ang):
        5.676029    0.001069    0.000716
        3.785607    4.229260    0.000696
        3.785623    1.692545    3.875791

outcell: Cell vector modules (Ang)   :    5.676029    5.676043    5.676038
outcell: Cell angles (23,13,12) (deg):     48.1575     48.1571     48.1575
outcell: Cell volume (Ang**3)        :     93.0107
New_DM. Step:     6
Initializing Density Matrix...

InitMesh: MESH =    24 x    24 x    24 =       13824
InitMesh: Mesh cutoff (required, used) =    50.000    63.507 Ry

siesta: Eharris(eV) =   -2966.621919


siesta: Eharris(eV) =   -2966.621919


siesta: Atomic forces (eV/Ang):
     1   -0.026021    0.054635   -0.021036
     2    0.007485   -0.003510    0.004896
     3   -0.460816    0.371347    1.045205
     4    0.335876   -0.373139   -0.655578
     5    3.079068   -7.030049    0.328165
     6    0.216455    4.014959   -6.744016
     7   -2.691746    2.179887    5.701359
     8   -3.091954    6.921152    0.257307
     9   -0.140005   -3.890265    6.415018
    10    2.784452   -2.541863   -5.709714
----------------------------------------
   Tot    0.012794   -0.296846    0.621606
----------------------------------------
   Max    7.030049
   Res    3.306257    sqrt( Sum f_i^2 / 3N )
----------------------------------------
   Max    7.030049    constrained

Stress-tensor-Voigt (kbar):      721.51      447.61      431.82      144.34       56.58       85.01
(Free)E + p*V (eV/cell)    -2976.6158
Target enthalpy (eV/cell)    -2939.8312

siesta: Stress tensor (static) (eV/Ang**3):
         0.452099    0.088604    0.052896
         0.088604    0.282531    0.036550
         0.052903    0.036548    0.271898

siesta: Pressure (static):       -537.55069349  kBar

siesta: Stress tensor (total) (eV/Ang**3):
         0.450328    0.090093    0.053052
         0.090092    0.279371    0.035313
         0.053059    0.035312    0.269521

siesta: Pressure (total):       -533.64780235  kBar

siesta: Temp_ion =     328.219 K
 iupos on opening:           17
 iupos on writing:           17
 istep, xa, va :            6  1.102993968209772E-002 -2.078963359506298E-002
  3.493485004437650E-003   12.5122693964137        5.59967147365427     
   3.66174210787199        6.26409995064224        2.78926586978419     
   1.81993247473258       -6.26156075429556       -2.78728894409550     
  -1.81433444412390        7.24425490578543       0.580997274392207     
   1.81458223887979        6.24498364601995        4.14615890258103     
 -0.176877264754727        5.26512766774712        3.70301308370516     
   3.87446886049873       -7.26596668969967      -0.582696773375133     
  -1.84804286562697       -6.24911907858969       -4.14287203965209     
  0.195830358122178       -5.25251060423008       -3.68046292928600     
  -3.86683266743235       6.124501097994325E-003 -1.154588871126323E-002
  1.935560925593463E-003 -1.999901857311811E-003  2.112762505905316E-003
 -7.782217020433253E-004  3.143006562971664E-003 -4.591799986331800E-003
 -5.823183243405992E-003 -1.809932919744670E-003  5.689465203655660E-003
  9.179192740361648E-003 -3.400654942511926E-004 -5.363239261603812E-003
 -9.304724727126627E-003 -7.093900172191860E-003  1.321781546247900E-002
  7.920542912435890E-003 -3.108773134895812E-003  1.198899820583920E-002
  1.076039614022318E-002 -1.173952050945644E-002  4.368653140679168E-003
 -9.022646171770770E-003  4.829046538709394E-003 -1.133338931513399E-002
  2.463686698100635E-003  1.014966590546146E-002  4.003423254327894E-004
 -6.504589554983622E-003

* Maximum dynamic memory allocated =     4 MB

siesta:                 ==============================
                            Begin MD step =      7
                        ==============================

outcoor: Atomic coordinates (fractional):                   
    0.00257357   -0.00279363    0.00047711   1       1  Mg
    0.49942310    0.50055241    0.49980874   1       2  Mg
    0.25193481    0.24955071    0.24841015   2       3  C
   -0.25216898   -0.24960924   -0.24764558   2       4  C
    0.52801618   -0.02661091    0.24767667   3       5  O
    0.24600117    0.52853819   -0.02435172   3       6  O
   -0.02982109    0.25167089    0.52906005   3       7  O
   -0.52807065    0.02822738   -0.25224659   3       8  O
   -0.24769719   -0.52916248    0.02694064   3       9  O
    0.02869789   -0.24926569   -0.52801752   3      10  O

outcell: Unit cell vectors (Ang):
        5.675307    0.001495    0.001011
        3.785445    4.228452    0.000971
        3.785472    1.692465    3.874921

outcell: Cell vector modules (Ang)   :    5.675308    5.675333    5.675319
outcell: Cell angles (23,13,12) (deg):     48.1489     48.1482     48.1490
outcell: Cell volume (Ang**3)        :     92.9485
New_DM. Step:     7
Initializing Density Matrix...

InitMesh: MESH =    24 x    24 x    24 =       13824
InitMesh: Mesh cutoff (required, used) =    50.000    63.517 Ry

siesta: Eharris(eV) =   -2966.676148


siesta: Eharris(eV) =   -2966.676148


siesta: Atomic forces (eV/Ang):
     1   -0.033163    0.074495   -0.020950
     2    0.008400   -0.007228    0.005349
     3   -0.533711    0.435526    1.217690
     4    0.391462   -0.436597   -0.763657
     5    3.063213   -7.016096    0.383811
     6    0.248568    3.979009   -6.776182
     7   -2.622187    2.073374    5.584449
     8   -3.067685    6.886760    0.304213
     9   -0.163860   -3.830307    6.401984
    10    2.714420   -2.497411   -5.571678
----------------------------------------
   Tot    0.005458   -0.338474    0.765028
----------------------------------------
   Max    7.016096
   Res    3.281679    sqrt( Sum f_i^2 / 3N )
----------------------------------------
   Max    7.016096    constrained

Stress-tensor-Voigt (kbar):      722.99      448.48      438.24      143.21       59.03       82.33
(Free)E + p*V (eV/cell)    -2976.7789
Target enthalpy (eV/cell)    -2939.8494

siesta: Stress tensor (static) (eV/Ang**3):
         0.453233    0.087566    0.051175
         0.087565    0.283638    0.038029
         0.051183    0.038027    0.275973

siesta: Pressure (static):       -540.92375794  kBar

siesta: Stress tensor (total) (eV/Ang**3):
         0.451248    0.089382    0.051377
         0.089381    0.279919    0.036848
         0.051385    0.036846    0.273524

siesta: Pressure (total):       -536.57002993  kBar

siesta: Temp_ion =     375.850 K
 iupos on opening:           17
 iupos on writing:           17
 istep, xa, va :            7  1.286236411799166E-002 -2.424229709414622E-002
  4.071562634083255E-003   12.5105303543583        5.59979509933766     
   3.66117692825866        6.26436752416798        2.78772000264809     
   1.81825797742066       -6.26145596848827       -2.78541413518915     
  -1.81156598967662        7.24370851798167       0.578813691255828     
   1.81169896632638        6.24231630082181        4.15003474616816     
 -0.175005296468144        5.26357347279969        3.70636292974224     
   3.87767198506771       -7.26904563746748      -0.580831880499775     
  -1.85055241455499       -6.24711734796509       -4.14616159333205     
  0.197014974873007       -5.24882897068284       -3.68016052597842     
  -3.86875875038484       6.120349727502110E-003 -1.153658318869301E-002
  1.931623495601522E-003 -1.998820870383536E-003  2.112561746719976E-003
 -7.773580955687989E-004  2.919643843942717E-003 -4.411362337677145E-003
 -5.314154633962800E-003 -1.646788594992841E-003  5.508687863091016E-003
  8.862245798353015E-003  7.028594964878579E-004 -7.748773277767003E-003
 -9.187763636125825E-003 -7.018262544378722E-003  1.458003402181573E-002
  5.629739141766755E-003 -4.012629419049578E-003  1.271563669255892E-002
  1.268002227498624E-002 -1.278813622903856E-002  6.714414856939409E-003
 -8.930781821581486E-003  4.779525417780170E-003 -1.264847322600080E-002
  4.639657679469795E-003  1.108604103453223E-002 -4.551474115461421E-004
 -8.422157452589469E-003

* Maximum dynamic memory allocated =     4 MB

siesta:                 ==============================
                            Begin MD step =      8
                        ==============================

outcoor: Atomic coordinates (fractional):                   
    0.00300216   -0.00325860    0.00055621   1       1  Mg
    0.49932697    0.50064454    0.49977690   1       2  Mg
    0.25220400    0.24947128    0.24820349   2       3  C
   -0.25249084   -0.24954851   -0.24728924   2       4  C
    0.52842419   -0.02679714    0.24730259   3       5  O
    0.24534990    0.52903803   -0.02416796   3       6  O
   -0.03049709    0.25193840    0.52961886   3       7  O
   -0.52849515    0.02866945   -0.25261059   3       8  O
   -0.24732474   -0.52975623    0.02717542   3       9  O
    0.02919692   -0.24914514   -0.52840178   3      10  O

outcell: Unit cell vectors (Ang):
        5.674464    0.001993    0.001359
        3.785255    4.227513    0.001289
        3.785298    1.692368    3.873902

outcell: Cell vector modules (Ang)   :    5.674464    5.674507    5.674479
outcell: Cell angles (23,13,12) (deg):     48.1389     48.1377     48.1391
outcell: Cell volume (Ang**3)        :     92.8759
New_DM. Step:     8
Initializing Density Matrix...

InitMesh: MESH =    24 x    24 x    24 =       13824
InitMesh: Mesh cutoff (required, used) =    50.000    63.529 Ry

siesta: Eharris(eV) =   -2966.746198


siesta: Eharris(eV) =   -2966.746198


siesta: Atomic forces (eV/Ang):
     1   -0.044825    0.087727   -0.015654
     2    0.014593   -0.012167    0.001232
     3   -0.601602    0.494077    1.370031
     4    0.440632   -0.497075   -0.862323
     5    3.039374   -6.984615    0.437093
     6    0.282821    3.923136   -6.784248
     7   -2.537880    1.958902    5.395367
     8   -3.031774    6.832288    0.350314
     9   -0.196845   -3.699596    6.328897
    10    2.644197   -2.449392   -5.428455
----------------------------------------
   Tot    0.008690   -0.346715    0.792254
----------------------------------------
   Max    6.984615
   Res    3.240430    sqrt( Sum f_i^2 / 3N )
----------------------------------------
   Max    6.984615    constrained

Stress-tensor-Voigt (kbar):      725.34      452.33      448.58      141.86       59.72       79.17
(Free)E + p*V (eV/cell)    -2977.0944
Target enthalpy (eV/cell)    -2939.8741

siesta: Stress tensor (static) (eV/Ang**3):
         0.454952    0.086344    0.049127
         0.086342    0.286752    0.038366
         0.049136    0.038364    0.282655

siesta: Pressure (static):       -547.07403720  kBar

siesta: Stress tensor (total) (eV/Ang**3):
         0.452719    0.088545    0.049407
         0.088544    0.282322    0.037278
         0.049417    0.037276    0.279976

siesta: Pressure (total):       -542.08508383  kBar

siesta: Temp_ion =     436.821 K
 iupos on opening:           17
 iupos on writing:           17
 istep, xa, va :            8  1.469163050742353E-002 -2.768862015602614E-002
  4.648593850991187E-003   12.5086298565081        5.59984539624319     
   3.66056435518612        6.26447203709908        2.78620517077959     
   1.81674597520887       -6.26120984519015       -2.78357074554766     
  -1.80889121445753        7.24334028034464       0.575989937316838     
   1.80884222154671        6.23959410458177        4.15421275339945     
 -0.173745726181545        5.26173276072462        3.70982910676991     
   3.88129229752502       -7.27230261280744      -0.578342710003276     
  -1.85300780934546       -6.24505178359281       -4.14973060424843     
  0.198765156727278       -5.24484942215558       -3.68002452485993     
  -3.87110535972265       6.114468929810439E-003 -1.152436505592982E-002
  1.928382438084771E-003 -1.997045005932728E-003  2.111550095567688E-003
 -7.769412207786331E-004  2.664581438767842E-003 -4.203399248355331E-003
 -4.731851864232106E-003 -1.460110238231437E-003  5.300155848507935E-003
  8.499020952739120E-003  1.739694648979769E-003 -1.012805732921114E-002
 -9.052874335226684E-003 -6.931847388914144E-003  1.592820463695805E-002
  3.331556483800114E-003 -4.891192345919648E-003  1.340588313555660E-002
  1.454938336590939E-002 -1.382749467325522E-002  9.046668156782685E-003
 -8.823583556361765E-003  4.720643741113190E-003 -1.393259148696975E-002
  6.802216575340863E-003  1.199953750723961E-002 -1.295455171931477E-003
 -1.029346669993195E-002

* Maximum dynamic memory allocated =     4 MB

siesta:                 ==============================
                            Begin MD step =      9
                        ==============================

outcoor: Atomic coordinates (fractional):                   
    0.00343044   -0.00372321    0.00063522   1       1  Mg
    0.49923091    0.50073666    0.49974505   1       2  Mg
    0.25245006    0.24939002    0.24802204   2       3  C
   -0.25279542   -0.24948978   -0.24694855   2       4  C
    0.52891850   -0.02707505    0.24693425   3       5  O
    0.24470510    0.52962615   -0.02407845   3       6  O
   -0.03124462    0.25220108    0.53025330   3       7  O
   -0.52900889    0.02919721   -0.25296998   3       8  O
   -0.24695760   -0.53043298    0.02749852   3       9  O
    0.02977261   -0.24902553   -0.52886203   3      10  O

outcell: Unit cell vectors (Ang):
        5.673497    0.002564    0.001763
        3.785039    4.226440    0.001654
        3.785103    1.692255    3.872732

outcell: Cell vector modules (Ang)   :    5.673498    5.673563    5.673516
outcell: Cell angles (23,13,12) (deg):     48.1275     48.1256     48.1277
outcell: Cell volume (Ang**3)        :     92.7927
New_DM. Step:     9
Initializing Density Matrix...

InitMesh: MESH =    24 x    24 x    24 =       13824
InitMesh: Mesh cutoff (required, used) =    50.000    63.542 Ry

siesta: Eharris(eV) =   -2966.831182


siesta: Eharris(eV) =   -2966.831182


siesta: Atomic forces (eV/Ang):
     1   -0.053164    0.103660   -0.027232
     2    0.017989   -0.025652    0.008805
     3   -0.660180    0.545545    1.504264
     4    0.481425   -0.546575   -0.945306
     5    3.004227   -6.925416    0.490207
     6    0.311154    3.858424   -6.768418
     7   -2.392730    1.759407    5.206099
     8   -2.970296    6.687874    0.420740
     9   -0.222658   -3.602718    6.269997
    10    2.568645   -2.397532   -5.285295
----------------------------------------
   Tot    0.084414   -0.542982    0.873861
----------------------------------------
   Max    6.925416
   Res    3.187122    sqrt( Sum f_i^2 / 3N )
----------------------------------------
   Max    6.925416    constrained

Stress-tensor-Voigt (kbar):      728.93      460.10      458.12      137.98       61.83       75.92
(Free)E + p*V (eV/cell)    -2977.4946
Target enthalpy (eV/cell)    -2939.9041

siesta: Stress tensor (static) (eV/Ang**3):
         0.457473    0.083481    0.046984
         0.083480    0.292456    0.039550
         0.046995    0.039548    0.288998

siesta: Pressure (static):       -554.85377649  kBar

siesta: Stress tensor (total) (eV/Ang**3):
         0.454959    0.086122    0.047374
         0.086121    0.287168    0.038594
         0.047384    0.038592    0.285933

siesta: Pressure (total):       -549.05089825  kBar

siesta: Temp_ion =     510.296 K
 iupos on opening:           17
 iupos on writing:           17
 istep, xa, va :            9  1.651709474556451E-002 -3.112735150788544E-002
  5.223794110226024E-003   12.5065682310893        5.59982149430914     
   3.65990488560985        6.26440551221307        2.78472847547893     
   1.81541479401872       -6.26081681220795       -2.78176561778078     
  -1.80632153157913        7.24314549836556       0.572533978944140     
   1.80601835034328        6.23681997709281        4.15868572233640     
 -0.173095698446627        5.25962171776624        3.71338975459094     
   3.88530812539782       -7.27573024072919      -0.575245952461370     
  -1.85540256414187       -6.24292498604383       -4.15356862684864     
  0.201073485822814       -5.24058102249977       -3.68004823722166     
  -3.87385555783937       6.106666350450471E-003 -1.150956221657132E-002
  1.924515361732653E-003 -1.994278078489469E-003  2.108616417616710E-003
 -7.761683466649907E-004  2.380985119557539E-003 -3.970706388504412E-003
 -4.084776296539785E-003 -1.253195966258279E-003  5.066937542635822E-003
  8.095053436519360E-003  2.767284617064080E-003 -1.249362131240041E-002
 -8.900395052503410E-003 -6.835214173672831E-003  1.725745812604507E-002
  1.033811139897193E-003 -5.731699256671198E-003  1.404391305170555E-002
  1.635631354359244E-002 -1.485128560716913E-002  1.134694872902471E-002
 -8.696951618513893E-003  4.652008422299972E-003 -1.517949710275545E-002
  8.943799178545380E-003  1.288922531188220E-002 -2.119419433084974E-003
 -1.211779702027397E-002

* Maximum dynamic memory allocated =     4 MB

siesta:                 ==============================
                            Begin MD step =     10
                        ==============================

outcoor: Atomic coordinates (fractional):                   
    0.00385835   -0.00418735    0.00071405   1       1  Mg
    0.49913498    0.50082863    0.49971326   1       2  Mg
    0.25267068    0.24930678    0.24786831   2       3  C
   -0.25308103   -0.24943329   -0.24662506   2       4  C
    0.52949816   -0.02744435    0.24657237   3       5  O
    0.24406744    0.53030184   -0.02408311   3       6  O
   -0.03205972    0.25245745    0.53096091   3       7  O
   -0.52961061    0.02980861   -0.25332382   3       8  O
   -0.24659646   -0.53119135    0.02790928   3       9  O
    0.03042316   -0.24890699   -0.52939643   3      10  O

outcell: Unit cell vectors (Ang):
        5.672406    0.003210    0.002225
        3.784795    4.225233    0.002064
        3.784887    1.692124    3.871407

outcell: Cell vector modules (Ang)   :    5.672408    5.672502    5.672429
outcell: Cell angles (23,13,12) (deg):     48.1147     48.1118     48.1149
outcell: Cell volume (Ang**3)        :     92.6988
New_DM. Step:    10
Initializing Density Matrix...

InitMesh: MESH =    24 x    24 x    24 =       13824
InitMesh: Mesh cutoff (required, used) =    50.000    63.557 Ry

siesta: Eharris(eV) =   -2966.930243


siesta: Eharris(eV) =   -2966.930243


siesta: Atomic forces (eV/Ang):
     1   -0.054113    0.115384   -0.031613
     2    0.020871   -0.029050    0.010482
     3   -0.707869    0.589386    1.613782
     4    0.515499   -0.588742   -1.015066
     5    2.959502   -6.835792    0.540130
     6    0.340844    3.759690   -6.718830
     7   -2.308448    1.641437    5.047505
     8   -2.870635    6.543953    0.430775
     9   -0.251788   -3.474019    6.183278
    10    2.447398   -2.298685   -5.098708
----------------------------------------
   Tot    0.091262   -0.576437    0.961734
----------------------------------------
   Max    6.835792
   Res    3.123419    sqrt( Sum f_i^2 / 3N )
----------------------------------------
   Max    6.835792    constrained

Stress-tensor-Voigt (kbar):      733.07      467.71      468.24      133.98       64.19       72.08
(Free)E + p*V (eV/cell)    -2977.9125
Target enthalpy (eV/cell)    -2939.9385

siesta: Stress tensor (static) (eV/Ang**3):
         0.460366    0.080497    0.044449
         0.080496    0.298197    0.040852
         0.044461    0.040849    0.295849

siesta: Pressure (static):       -563.12404591  kBar

siesta: Stress tensor (total) (eV/Ang**3):
         0.457542    0.083625    0.044978
         0.083624    0.291916    0.040067
         0.044990    0.040064    0.292249

siesta: Pressure (total):       -556.33894729  kBar

siesta: Temp_ion =     595.420 K
 iupos on opening:           17
 iupos on writing:           17
 istep, xa, va :           10  1.833858133952153E-002 -3.455747421869748E-002
  5.796857059145850E-003   12.5043457201830        5.59972321058158     
   3.65919867722412        6.26416141067507        2.78329600807581     
   1.81427944542352       -6.26027217194642       -2.78000462956477     
  -1.80386661899586        7.24311835492166       0.568456964344969     
   1.80323355347748        6.23399687650597        4.16344297133338     
 -0.173048780249996        5.25725053434425        3.71703119900421     
   3.88970063952273       -7.27931706933151      -0.571558327042196     
  -1.85773645144906       -6.24073978132185       -4.15766197150976     
  0.203929528443565       -5.23603771407655       -3.68022012141731     
  -3.87698772400469       6.098071803038735E-003 -1.149221836468337E-002
  1.918918126910668E-003 -1.990867512239293E-003  2.103909834097585E-003
 -7.743837210007484E-004  2.073350910687224E-003 -3.716529474542802E-003
 -3.382463100123561E-003 -1.029413722356528E-003  4.813082156316242E-003
  7.656729202261750E-003  3.782169457412788E-003 -1.483571696201613E-002
 -8.730791025000293E-003 -6.729046262114155E-003  1.856046556973751E-002
 -1.253978754329029E-003 -6.534181510923207E-003  1.462904373119741E-002
  1.810600446608531E-002 -1.584863764746922E-002  1.360019651183848E-002
 -8.556880421129360E-003  4.574205123758982E-003 -1.638947877047432E-002
  1.106222623623172E-002  1.374640020639316E-002 -2.918483571484907E-003
 -1.388785916578873E-002

* Maximum dynamic memory allocated =     4 MB

outcell: Unit cell vectors (Ang):
        5.671190    0.003933    0.002746
        3.784526    4.223891    0.002520
        3.784650    1.691976    3.869927

outcell: Cell vector modules (Ang)   :    5.671192    5.671322    5.671217
outcell: Cell angles (23,13,12) (deg):     48.1003     48.0963     48.1005
outcell: Cell volume (Ang**3)        :     92.5941

siesta: Program's energy decomposition (eV):
siesta: Ebs     =      -718.032884
siesta: Eions   =      5228.674091
siesta: Ena     =      1092.639314
siesta: Ekin    =      2397.886136
siesta: Enl     =      -404.393756
siesta: DEna    =      -103.574609
siesta: DUscf   =        24.442241
siesta: DUext   =         0.000000
siesta: Exc     =      -724.049444
siesta: eta*DQ  =         0.000000
siesta: Emadel  =         0.000000
siesta: Emeta   =         0.000000
siesta: Emolmec =         0.000000
siesta: Ekinion =         0.692649
siesta: Eharris =     -2966.237594
siesta: Etot    =     -2945.031559
siesta: FreeEng =     -2945.031559

siesta: Final energy (eV):
siesta:  Band Struct. =    -718.032884
siesta:       Kinetic =    2397.886136
siesta:       Hartree =    1097.134548
siesta:    Ext. field =       0.000000
siesta:   Exch.-corr. =    -724.049444
siesta:  Ion-electron =   -4178.366871
siesta:       Ion-ion =   -1538.328578
siesta:       Ekinion =       0.692649
siesta:         Total =   -2945.031559

siesta: Atomic forces (eV/Ang):
siesta:      1   -0.054113    0.115384   -0.031613
siesta:      2    0.020871   -0.029050    0.010482
siesta:      3   -0.707869    0.589386    1.613782
siesta:      4    0.515499   -0.588742   -1.015066
siesta:      5    2.959502   -6.835792    0.540130
siesta:      6    0.340844    3.759690   -6.718830
siesta:      7   -2.308448    1.641437    5.047505
siesta:      8   -2.870635    6.543953    0.430775
siesta:      9   -0.251788   -3.474019    6.183278
siesta:     10    2.447398   -2.298685   -5.098708
siesta: ----------------------------------------
siesta:    Tot    0.091262   -0.576437    0.961734

siesta: Stress tensor (static) (eV/Ang**3):
siesta:     0.460366    0.080497    0.044449
siesta:     0.080496    0.298197    0.040852
siesta:     0.044461    0.040849    0.295849

siesta: Cell volume =         92.698815 Ang**3

siesta: Pressure (static):
siesta:                Solid            Molecule  Units
siesta:          -0.00382796         -0.00590680  Ry/Bohr**3
siesta:          -0.35147059         -0.54234259  eV/Ang**3
siesta:        -563.12404591       -868.93801799  kBar
(Free)E+ p_basis*V_orbitals  =       -2944.529911
(Free)Eharris+ p_basis*V_orbitals  =       -2927.841877

* Maximum dynamic memory allocated : Node    0 =     4 MB

* Maximum memory occured during ranger                        

timer: CPU execution times:
timer:  Routine       Calls   Time/call    Tot.time        %
timer:  siesta            1       5.109       5.109   100.00
timer:  Setup             1       0.467       0.467     9.13
timer:  bands             1       0.000       0.000     0.01
timer:  writewave         1       0.001       0.001     0.02
timer:  KSV_init          1       0.000       0.000     0.00
timer:  IterMD           10       0.463       4.634    90.71
timer:  hsparse          10       0.025       0.248     4.85
timer:  overlap          10       0.009       0.088     1.73
timer:  IterSCF          10       0.217       2.170    42.49
timer:  kinefsm          20       0.006       0.117     2.29
timer:  nlefsm           20       0.029       0.577    11.30
timer:  DHSCF            20       0.172       3.436    67.25
timer:  DHSCF1           10       0.021       0.209     4.10
timer:  DHSCF2           10       0.100       1.003    19.64
timer:  REORD           180       0.000       0.007     0.14
timer:  POISON           30       0.002       0.047     0.91
timer:  DHSCF3           20       0.045       0.906    17.73
timer:  rhoofd           20       0.019       0.376     7.35
timer:  cellXC           30       0.007       0.202     3.96
timer:  vmat             20       0.018       0.352     6.89
timer:  MolMec           20       0.000       0.000     0.00
timer:  diagon           10       0.001       0.015     0.29
timer:  r-eigvec         10       0.001       0.013     0.25
timer:  r-buildHS        10       0.000       0.000     0.00
timer:  rdiag            10       0.001       0.013     0.25
timer:  rdiag1           10       0.000       0.000     0.00
timer:  rdiag2           10       0.000       0.001     0.02
timer:  rdiag3           10       0.001       0.010     0.20
timer:  rdiag4           10       0.000       0.000     0.01
timer:  r-buildD         10       0.000       0.001     0.02
timer:  DHSCF4           10       0.131       1.315    25.74
timer:  dfscf            10       0.087       0.866    16.95
timer:  overfsm          10       0.003       0.035     0.68
timer:  optical           1       0.000       0.000     0.00
  

elaps: ELAPSED times:
elaps:  Routine       Calls   Time/call    Tot.time        %
elaps:  siesta            1       5.157       5.157    99.99
elaps:  Setup             1       0.496       0.496     9.62
elaps:  bands             1       0.000       0.000     0.01
elaps:  writewave         1       0.001       0.001     0.02
elaps:  KSV_init          1       0.000       0.000     0.00
elaps:  IterMD           10       0.465       4.653    90.21
elaps:  hsparse          10       0.025       0.248     4.82
elaps:  overlap          10       0.010       0.100     1.93
elaps:  IterSCF          10       0.217       2.175    42.16
elaps:  kinefsm          20       0.006       0.118     2.29
elaps:  nlefsm           20       0.029       0.578    11.21
elaps:  DHSCF            20       0.172       3.439    66.68
elaps:  DHSCF1           10       0.021       0.210     4.07
elaps:  DHSCF2           10       0.100       1.004    19.47
elaps:  REORD           180       0.000       0.007     0.14
elaps:  POISON           30       0.002       0.047     0.90
elaps:  DHSCF3           20       0.045       0.907    17.59
elaps:  rhoofd           20       0.019       0.376     7.29
elaps:  cellXC           30       0.007       0.203     3.93
elaps:  vmat             20       0.018       0.352     6.83
elaps:  MolMec           20       0.000       0.000     0.00
elaps:  diagon           10       0.001       0.014     0.28
elaps:  r-eigvec         10       0.001       0.013     0.24
elaps:  r-buildHS        10       0.000       0.000     0.00
elaps:  rdiag            10       0.001       0.013     0.24
elaps:  rdiag1           10       0.000       0.000     0.00
elaps:  rdiag2           10       0.000       0.001     0.02
elaps:  rdiag3           10       0.001       0.010     0.20
elaps:  rdiag4           10       0.000       0.000     0.00
elaps:  r-buildD         10       0.000       0.001     0.02
elaps:  DHSCF4           10       0.132       1.316    25.51
elaps:  dfscf            10       0.087       0.867    16.80
elaps:  overfsm          10       0.003       0.034     0.67
elaps:  optical           1       0.000       0.000     0.00
  
>> End of run:  10-JUN-2011  14:35:40
