Siesta Version:                                        siesta-trunk-300
Architecture  : nano-intel-mpi
Compiler flags: /opt/intel/impi/3.1/bin64/mpiifort -w  -O3 -mp
PARALLEL version
NetCDF support

* Running on    4 nodes in parallel
>> Start of run:  29-SEP-2009  17:21:58

                           ***********************       
                           *  WELCOME TO SIESTA  *       
                           ***********************       

reinit: Reading from standard input
************************** Dump of input data file ****************************
#
# MgCO3 in primitive cell. SZ Harris. Some MD steps in Nose MD
#
SystemName	MgCo3 MD Nose test -- SZ, 100 Ry  Harris
SystemLabel	md_nose
NumberOfSpecies		3
NumberOfAtoms	       10
%block ChemicalSpeciesLabel
      1      12     Mg
      2       6     C
      3       8     O
%endblock ChemicalSpeciesLabel
PAO.BasisSize  SZ
# Rhombohedral primitive cell
# (HEX 3-fold cell had A=4.635 and C=15.023, so alpha=48.179 degrees
#  and a=5.67783 Ang)
LatticeConstant     5.67783 Ang
%block LatticeParameters
1.0 1.0 1.0 48.179 48.179 48.179
%endblock LatticeParameters
AtomicCoordinatesFormat    Fractional
%block AtomicCoordinatesAndAtomicSpecies
  0.0         0.0         0.0      1
  0.5         0.5         0.5      1
  0.25        0.25        0.25     2
 -0.25       -0.25       -0.25     2
  0.5274     -0.0274      0.25     3
  0.25        0.5274     -0.0274   3
 -0.0274      0.25        0.5274   3
 -0.5274      0.0274     -0.25     3
 -0.25       -0.5274      0.0274   3
  0.0274     -0.25       -0.5274   3
%endblock AtomicCoordinatesAndAtomicSpecies
HarrisFunctional T
Solution.Method       diagon
MeshCutoff             100 Ry
WriteCoorStep      .true.
WriteForces        .true.
WriteMDHistory     .true.
MD.UseSaveXV       T
MD.TypeOfRun         Nose
MD.InitialTemperature 600 K
MD.TargetTemperature 600 K
MD.Initial.Time.Step      1
MD.Final.Time.Step        5
MD.Length.Time.Step       1 fs
************************** End of input data file *****************************

reinit: -----------------------------------------------------------------------
reinit: System Name: MgCo3 MD Nose test -- SZ, 100 Ry  Harris
reinit: -----------------------------------------------------------------------
reinit: System Label: md_nose                                                     
reinit: -----------------------------------------------------------------------

initatom: Reading input for the pseudopotentials and atomic orbitals ----------
 Species number:            1  Label: Mg Atomic number:          12
 Species number:            2  Label: C Atomic number:           6
 Species number:            3  Label: O Atomic number:           8
Ground state valence configuration:   3s02
Reading pseudopotential information in formatted form from Mg.psf

Valence configuration for pseudopotential generation:
3s( 2.00) rc: 2.59
3p( 0.00) rc: 2.59
3d( 0.00) rc: 2.59
4f( 0.00) rc: 2.59
Ground state valence configuration:   2s02  2p02
Reading pseudopotential information in formatted form from C.psf

Valence configuration for pseudopotential generation:
2s( 2.00) rc: 1.49
2p( 2.00) rc: 1.52
3d( 0.00) rc: 1.58
Ground state valence configuration:   2s02  2p04
Reading pseudopotential information in formatted form from O.psf

Valence configuration for pseudopotential generation:
2s( 2.00) rc: 1.14
2p( 4.00) rc: 1.14
3d( 0.00) rc: 1.14
4f( 0.00) rc: 1.14
For Mg, standard SIESTA heuristics set lmxkb to 1
 (one more than the basis l, including polarization orbitals).
Use PS.lmax or PS.KBprojectors blocks to override.
For C, standard SIESTA heuristics set lmxkb to 2
 (one more than the basis l, including polarization orbitals).
Use PS.lmax or PS.KBprojectors blocks to override.
For O, standard SIESTA heuristics set lmxkb to 2
 (one more than the basis l, including polarization orbitals).
Use PS.lmax or PS.KBprojectors blocks to override.

<basis_specs>
===============================================================================
Mg                   Z=  12    Mass=  24.310        Charge= 0.17977+309
Lmxo=0 Lmxkb=1     BasisType=split      Semic=F
L=0  Nsemic=0  Cnfigmx=3
          n=1  nzeta=1  polorb=0
            splnorm:   0.15000    
               vcte:    0.0000    
               rinn:    0.0000    
                rcs:    0.0000    
            lambdas:    1.0000    
-------------------------------------------------------------------------------
L=0  Nkbl=1  erefs: 0.17977+309
L=1  Nkbl=1  erefs: 0.17977+309
===============================================================================
</basis_specs>

atom: Called for Mg                    (Z =  12)

read_vps: Pseudopotential generation method:
read_vps: ATM3      Troullier-Martins                       
Total valence charge:    2.00000

xc_check: Exchange-correlation functional:
xc_check: Ceperley-Alder
V l=0 = -2*Zval/r beyond r=  3.5878
V l=1 = -2*Zval/r beyond r=  3.5878
All V_l potentials equal beyond r=  2.5600
This should be close to max(r_c) in ps generation
All pots = -2*Zval/r beyond r=  3.5878
Using large-core scheme for Vlocal

atom: Estimated core radius    3.58779

atom: Including non-local core corrections could be a good idea
atom: Maximum radius for 4*pi*r*r*local-pseudopot. charge    3.91588
atom: Maximum radius for r*vlocal+2*Zval:    3.63292
GHOST: No ghost state for L =  0
GHOST: No ghost state for L =  1

KBgen: Kleinman-Bylander projectors: 
   l= 0   rc=  2.657845   el= -0.351328   Ekb=  2.184400   kbcos=  0.257081
   l= 1   rc=  2.657845   el= -0.101748   Ekb=  0.525536   kbcos=  0.270508

KBgen: Total number of  Kleinman-Bylander projectors:    4
atom: -------------------------------------------------------------------------

atom: SANKEY-TYPE ORBITALS:

SPLIT: Orbitals with angular momentum L= 0

SPLIT: Basis orbitals for state 3s

SPLIT: PAO cut-off radius determined from an
SPLIT: energy shift=  0.020000 Ry

   izeta = 1
                 lambda =    1.000000
                     rc =    6.619780
                 energy =   -0.332103
                kinetic =    0.289627
    potential(screened) =   -0.621729
       potential(ionic) =   -1.387191
atom: Total number of Sankey-type orbitals:  1

atm_pop: Valence configuration (for local Pseudopot. screening):
 3s( 2.00)                                                            
Vna: chval, zval:    2.00000   2.00000

Vna:  Cut-off radius for the neutral-atom potential:   6.619780

atom: _________________________________________________________________________

<basis_specs>
===============================================================================
C                    Z=   6    Mass=  12.010        Charge= 0.17977+309
Lmxo=1 Lmxkb=2     BasisType=split      Semic=F
L=0  Nsemic=0  Cnfigmx=2
          n=1  nzeta=1  polorb=0
            splnorm:   0.15000    
               vcte:    0.0000    
               rinn:    0.0000    
                rcs:    0.0000    
            lambdas:    1.0000    
L=1  Nsemic=0  Cnfigmx=2
          n=1  nzeta=1  polorb=0
            splnorm:   0.15000    
               vcte:    0.0000    
               rinn:    0.0000    
                rcs:    0.0000    
            lambdas:    1.0000    
-------------------------------------------------------------------------------
L=0  Nkbl=1  erefs: 0.17977+309
L=1  Nkbl=1  erefs: 0.17977+309
L=2  Nkbl=1  erefs: 0.17977+309
===============================================================================
</basis_specs>

atom: Called for C                     (Z =   6)

read_vps: Pseudopotential generation method:
read_vps: ATM3      Troullier-Martins                       
Total valence charge:    4.00000

xc_check: Exchange-correlation functional:
xc_check: Ceperley-Alder
V l=0 = -2*Zval/r beyond r=  1.4666
V l=1 = -2*Zval/r beyond r=  1.5038
V l=2 = -2*Zval/r beyond r=  1.5612
All V_l potentials equal beyond r=  1.5612
This should be close to max(r_c) in ps generation
All pots = -2*Zval/r beyond r=  1.5612

VLOCAL1: 99.0% of the norm of Vloc inside     17.809 Ry
VLOCAL1: 99.9% of the norm of Vloc inside     40.586 Ry
atom: Maximum radius for 4*pi*r*r*local-pseudopot. charge    1.88329
atom: Maximum radius for r*vlocal+2*Zval:    1.62091
GHOST: No ghost state for L =  0
GHOST: No ghost state for L =  1
GHOST: No ghost state for L =  2

KBgen: Kleinman-Bylander projectors: 
   l= 0   rc=  1.747182   el= -1.001947   Ekb=  5.181700   kbcos=  0.300603
   l= 1   rc=  1.747182   el= -0.398598   Ekb= -4.328763   kbcos= -0.367074
   l= 2   rc=  1.955272   el=  0.002326   Ekb= -1.016175   kbcos= -0.009979

KBgen: Total number of  Kleinman-Bylander projectors:    9
atom: -------------------------------------------------------------------------

atom: SANKEY-TYPE ORBITALS:

SPLIT: Orbitals with angular momentum L= 0

SPLIT: Basis orbitals for state 2s

SPLIT: PAO cut-off radius determined from an
SPLIT: energy shift=  0.020000 Ry

   izeta = 1
                 lambda =    1.000000
                     rc =    4.191849
                 energy =   -0.983897
                kinetic =    0.886956
    potential(screened) =   -1.870853
       potential(ionic) =   -5.479661

SPLIT: Orbitals with angular momentum L= 1

SPLIT: Basis orbitals for state 2p

SPLIT: PAO cut-off radius determined from an
SPLIT: energy shift=  0.020000 Ry

   izeta = 1
                 lambda =    1.000000
                     rc =    4.870301
                 energy =   -0.379093
                kinetic =    2.545357
    potential(screened) =   -2.924450
       potential(ionic) =   -6.433151
atom: Total number of Sankey-type orbitals:  4

atm_pop: Valence configuration (for local Pseudopot. screening):
 2s( 2.00)                                                            
 2p( 2.00)                                                            
Vna: chval, zval:    4.00000   4.00000

Vna:  Cut-off radius for the neutral-atom potential:   4.870301

atom: _________________________________________________________________________

<basis_specs>
===============================================================================
O                    Z=   8    Mass=  16.000        Charge= 0.17977+309
Lmxo=1 Lmxkb=2     BasisType=split      Semic=F
L=0  Nsemic=0  Cnfigmx=2
          n=1  nzeta=1  polorb=0
            splnorm:   0.15000    
               vcte:    0.0000    
               rinn:    0.0000    
                rcs:    0.0000    
            lambdas:    1.0000    
L=1  Nsemic=0  Cnfigmx=2
          n=1  nzeta=1  polorb=0
            splnorm:   0.15000    
               vcte:    0.0000    
               rinn:    0.0000    
                rcs:    0.0000    
            lambdas:    1.0000    
-------------------------------------------------------------------------------
L=0  Nkbl=1  erefs: 0.17977+309
L=1  Nkbl=1  erefs: 0.17977+309
L=2  Nkbl=1  erefs: 0.17977+309
===============================================================================
</basis_specs>

atom: Called for O                     (Z =   8)

read_vps: Pseudopotential generation method:
read_vps: ATM3      Troullier-Martins                       
Total valence charge:    6.00000

xc_check: Exchange-correlation functional:
xc_check: Ceperley-Alder
V l=0 = -2*Zval/r beyond r=  1.1278
V l=1 = -2*Zval/r beyond r=  1.1278
V l=2 = -2*Zval/r beyond r=  1.1278
All V_l potentials equal beyond r=  1.1278
This should be close to max(r_c) in ps generation
All pots = -2*Zval/r beyond r=  1.1278

VLOCAL1: 99.0% of the norm of Vloc inside     34.126 Ry
VLOCAL1: 99.9% of the norm of Vloc inside     77.774 Ry
atom: Maximum radius for 4*pi*r*r*local-pseudopot. charge    1.37759
atom: Maximum radius for r*vlocal+2*Zval:    1.18566
GHOST: No ghost state for L =  0
GHOST: No ghost state for L =  1
GHOST: No ghost state for L =  2

KBgen: Kleinman-Bylander projectors: 
   l= 0   rc=  1.294105   el= -1.742414   Ekb=  9.135903   kbcos=  0.326910
   l= 1   rc=  1.294105   el= -0.676589   Ekb= -8.124878   kbcos= -0.395047
   l= 2   rc=  1.448233   el=  0.002386   Ekb= -2.039267   kbcos= -0.003484

KBgen: Total number of  Kleinman-Bylander projectors:    9
atom: -------------------------------------------------------------------------

atom: SANKEY-TYPE ORBITALS:

SPLIT: Orbitals with angular momentum L= 0

SPLIT: Basis orbitals for state 2s

SPLIT: PAO cut-off radius determined from an
SPLIT: energy shift=  0.020000 Ry

   izeta = 1
                 lambda =    1.000000
                     rc =    3.305093
                 energy =   -1.723766
                kinetic =    1.614911
    potential(screened) =   -3.338677
       potential(ionic) =  -11.304675

SPLIT: Orbitals with angular momentum L= 1

SPLIT: Basis orbitals for state 2p

SPLIT: PAO cut-off radius determined from an
SPLIT: energy shift=  0.020000 Ry

   izeta = 1
                 lambda =    1.000000
                     rc =    3.937239
                 energy =   -0.658841
                kinetic =    5.005986
    potential(screened) =   -5.664827
       potential(ionic) =  -13.452360
atom: Total number of Sankey-type orbitals:  4

atm_pop: Valence configuration (for local Pseudopot. screening):
 2s( 2.00)                                                            
 2p( 4.00)                                                            
Vna: chval, zval:    6.00000   6.00000

Vna:  Cut-off radius for the neutral-atom potential:   3.937239

atom: _________________________________________________________________________

prinput: Basis input ----------------------------------------------------------

PAO.BasisType split     

%block ChemicalSpeciesLabel
    1   12 Mg                      # Species index, atomic number, species label
    2    6 C                       # Species index, atomic number, species label
    3    8 O                       # Species index, atomic number, species label
%endblock ChemicalSpeciesLabel

%block PAO.Basis                 # Define Basis set
Mg                    1                    # Species label, number of l-shells
 n=3   0   1                         # n, l, Nzeta 
   6.620   
   1.000   
C                     2                    # Species label, number of l-shells
 n=2   0   1                         # n, l, Nzeta 
   4.192   
   1.000   
 n=2   1   1                         # n, l, Nzeta 
   4.870   
   1.000   
O                     2                    # Species label, number of l-shells
 n=2   0   1                         # n, l, Nzeta 
   3.305   
   1.000   
 n=2   1   1                         # n, l, Nzeta 
   3.937   
   1.000   
%endblock PAO.Basis

prinput: ----------------------------------------------------------------------

Dumping basis to NetCDF file Mg.ion.nc
Dumping basis to NetCDF file C.ion.nc
Dumping basis to NetCDF file O.ion.nc
coor:   Atomic-coordinates input format  =     Fractional

siesta: WARNING: XV file not found

siesta: Atomic coordinates (Bohr) and species
siesta:      0.00000   0.00000   0.00000  1        1
siesta:     12.51930   5.59740   3.66414  1        2
siesta:      6.25965   2.79870   1.83207  2        3
siesta:     -6.25965  -2.79870  -1.83207  2        4
siesta:      7.25136   0.58061   1.83207  3        5
siesta:      6.25965   4.12944  -0.20079  3        6
siesta:      5.26794   3.68605   3.86493  3        7
siesta:     -7.25136  -0.58061  -1.83207  3        8
siesta:     -6.25965  -4.12944   0.20079  3        9
siesta:     -5.26794  -3.68605  -3.86493  3       10

siesta: System type = bulk      

initatomlists: Number of atoms, orbitals, and projectors:     10    34    80

siesta: ******************** Simulation parameters ****************************
siesta:
siesta: The following are some of the parameters of the simulation.
siesta: A complete list of the parameters used, including default values,
siesta: can be found in file out.fdf
siesta:
redata: Non-Collinear-spin run           =     F
redata: SpinPolarized (Up/Down) run      =     F
redata: Number of spin components        =     1
redata: Long output                      =     F
redata: Number of Atomic Species         =        3
redata: Charge density info will appear in .RHO file
redata: Write Mulliken Pop.              =     NO
redata: Mesh Cutoff                      =   100.0000  Ry
redata: Net charge of the system         =     0.0000 |e|
redata: Max. number of SCF Iter          =       50
redata: Mixing is linear
redata: Mix DM in first SCF step ?       =     F
redata: Write Pulay info on disk?        =     F
redata: New DM Mixing Weight             =     0.2500
redata: New DM Occupancy tolerance       = 0.000000000001
redata: No kicks to SCF
redata: DM Mixing Weight for Kicks       =     0.5000
redata: DM Tolerance for SCF             =     0.000100
redata: Require Energy convergence for SCF =     F
redata: DM Energy tolerance for SCF      =     0.000100 eV
redata: Require Harris convergence for SCF =     F
redata: DM Harris energy tolerance for SCF =     0.000100 eV
redata: Using Saved Data (generic)   =     F
redata: Use continuation files for DM    =     F
redata: Neglect nonoverlap interactions  =     F
redata: Method of Calculation            =     Diagonalization
redata: Divide and Conquer               =     T
redata: Electronic Temperature           =     0.0019  Ry
redata: Fix the spin of the system       =     F
redata: Dynamics option                  =     Nose thermostat MD run
redata: Initial MD time step             =        1
redata:   Final MD time step             =        5
redata: Length of MD time step           =     1.0000  fs
redata: Initial Temperature of MD run    =   600.0000  K
redata: Perform a MD quench              =     F
redata: Nose mass                        =   100.0000  Ry/fs**2
redata: Target Temperature               =   600.0000  Kelvin
redata: ***********************************************************************
Total number of electrons:    48.000000
Total ionic charge:    48.000000

* ProcessorY, Blocksize:    2   9

 Kpoints in:            1 . Kpoints trimmed:            1

siesta: k-grid: Number of k-points =     1
siesta: k-grid: Cutoff (effective) =     2.317 Ang
siesta: k-grid: Supercell and displacements
siesta: k-grid:    1   0   0      0.000
siesta: k-grid:    0   1   0      0.000
siesta: k-grid:    0   0   1      0.000

* Maximum dynamic memory allocated =     3 MB

siesta:                 ==============================
                            Begin MD step =      1
                        ==============================

outcoor: Atomic coordinates (fractional):                   
    0.00000000    0.00000000    0.00000000   1       1  Mg
    0.50000000    0.50000000    0.50000000   1       2  Mg
    0.25000000    0.25000000    0.25000000   2       3  C
   -0.25000000   -0.25000000   -0.25000000   2       4  C
    0.52740000   -0.02740000    0.25000000   3       5  O
    0.25000000    0.52740000   -0.02740000   3       6  O
   -0.02740000    0.25000000    0.52740000   3       7  O
   -0.52740000    0.02740000   -0.25000000   3       8  O
   -0.25000000   -0.52740000    0.02740000   3       9  O
    0.02740000   -0.25000000   -0.52740000   3      10  O

outcell: Unit cell vectors (Ang):
        5.677830    0.000000    0.000000
        3.786009    4.231299    0.000000
        3.786009    1.692731    3.877957

outcell: Cell vector modules (Ang)   :    5.677830    5.677830    5.677830
outcell: Cell angles (23,13,12) (deg):     48.1790     48.1790     48.1790
outcell: Cell volume (Ang**3)        :     93.1663

NOTE: orbital pair      1     1 (at least) is multiply connected.
NOTE: Harmless for Gamma calculations, except if a COHP analysis is intended.
New_DM. Step:     1
Initializing Density Matrix...

InitMesh: MESH =    32 x    32 x    32 =       32768
InitMesh: Mesh cutoff (required, used) =   100.000   112.857 Ry

* Maximum dynamic memory allocated =     3 MB

stepf: Fermi-Dirac step function

siesta: Program's energy decomposition (eV):
siesta: Eions   =      5228.674091
siesta: Ena     =      1092.429444
siesta: Ekin    =      2069.792750
siesta: Enl     =      -254.036133
siesta: DEna    =        15.976650
siesta: DUscf   =         0.158308
siesta: DUext   =         0.000000
siesta: Exc     =      -679.226103
siesta: eta*DQ  =         0.000000
siesta: Emadel  =         0.000000
siesta: Emeta   =         0.000000
siesta: Emolmec =         0.000000
siesta: Ekinion =         0.000000
siesta: Eharris =     -2966.548610
siesta: Etot    =     -2983.579175
siesta: FreeEng =     -2983.579175

siesta: Eharris(eV) =   -2966.548610


siesta: Eharris(eV) =   -2966.548610

timer: Routine,Calls,Time,% = IterSCF        1       1.980  58.15
elaps: Routine,Calls,Wall,% = IterSCF        1       0.495  58.09

siesta: E_KS - E_eggbox =     -2945.3446

siesta: Atomic forces (eV/Ang):
     1    0.000000    0.000000    0.000000
     2    0.000000    0.000000    0.000000
     3    0.000001   -0.000001    0.000001
     4   -0.000001    0.000001    0.000000
     5    2.753943   -6.159527   -0.000005
     6   -0.000002    3.695396   -5.645145
     7   -2.753928    2.464114    5.645152
     8   -2.753942    6.159527    0.000003
     9    0.000003   -3.695396    5.645146
    10    2.753928   -2.464115   -5.645152
----------------------------------------
   Tot    0.000001   -0.000002   -0.000001
----------------------------------------
   Max    6.159527
   Res    3.017409    sqrt( Sum f_i^2 / 3N )
----------------------------------------
   Max    6.159527    constrained

Stress-tensor-Voigt (kbar):      654.06      456.91      425.46      110.52       28.07       71.70
(Free)E + p*V (eV/cell)    -2975.1253
Target enthalpy (eV/cell)    -2945.3446

siesta: Stress tensor (static) (eV/Ang**3):
         0.410796    0.067429    0.044140
         0.067429    0.290131    0.019735
         0.044140    0.019735    0.272902

siesta: Pressure (static):       -520.08738015  kBar

siesta: Stress tensor (total) (eV/Ang**3):
         0.408226    0.068982    0.044751
         0.068982    0.285181    0.017520
         0.044751    0.017520    0.265547

siesta: Pressure (total):       -512.14295268  kBar

siesta: Temp_ion =     600.000 K

* Maximum dynamic memory allocated =     4 MB

siesta:                 ==============================
                            Begin MD step =      2
                        ==============================

outcoor: Atomic coordinates (fractional):                   
    0.00202205   -0.00219551    0.00037582   1       1  Mg
    0.49954678    0.50043367    0.49984976   1       2  Mg
    0.25162026    0.24965596    0.24864096   2       3  C
   -0.25177843   -0.24968494   -0.24808230   2       4  C
    0.52709300   -0.02596380    0.24814867   3       5  O
    0.24682768    0.52749323   -0.02417503   3       6  O
   -0.02857131    0.25133146    0.52795710   3       7  O
   -0.52711895    0.02726046   -0.25178619   3       8  O
   -0.24816809   -0.52800274    0.02623419   3       9  O
    0.02767276   -0.24941995   -0.52714083   3      10  O

outcell: Unit cell vectors (Ang):
        5.677830    0.000000    0.000000
        3.786009    4.231299    0.000000
        3.786009    1.692731    3.877957

outcell: Cell vector modules (Ang)   :    5.677830    5.677830    5.677830
outcell: Cell angles (23,13,12) (deg):     48.1790     48.1790     48.1790
outcell: Cell volume (Ang**3)        :     93.1663
New_DM. Step:     2
Initializing Density Matrix...

siesta: Eharris(eV) =   -2966.465549


siesta: Eharris(eV) =   -2966.465549


siesta: Atomic forces (eV/Ang):
     1   -0.023459    0.047770   -0.009394
     2    0.006518   -0.011016    0.001835
     3   -0.457553    0.363005    1.047311
     4    0.333741   -0.367693   -0.655758
     5    2.960927   -6.657477    0.147432
     6    0.029400    4.066691   -6.345282
     7   -2.519778    2.112470    5.194147
     8   -2.831151    6.512595    0.083165
     9   -0.036919   -3.753792    5.937705
    10    2.550243   -2.344149   -5.327688
----------------------------------------
   Tot    0.011968   -0.031594    0.073473
----------------------------------------
   Max    6.657477
   Res    3.109067    sqrt( Sum f_i^2 / 3N )
----------------------------------------
   Max    6.657477    constrained

Stress-tensor-Voigt (kbar):      655.18      437.76      422.69      112.55       45.63       64.94
(Free)E + p*V (eV/cell)    -2974.6585
Target enthalpy (eV/cell)    -2945.2809

siesta: Stress tensor (static) (eV/Ang**3):
         0.411497    0.068693    0.039916
         0.068693    0.278175    0.030694
         0.039922    0.030693    0.271176

siesta: Pressure (static):       -513.15487141  kBar

siesta: Stress tensor (total) (eV/Ang**3):
         0.408927    0.070246    0.040527
         0.070246    0.273225    0.028479
         0.040534    0.028478    0.263821

siesta: Pressure (total):       -505.21044393  kBar

siesta: Temp_ion =     532.141 K

* Maximum dynamic memory allocated =     4 MB

siesta:                 ==============================
                            Begin MD step =      3
                        ==============================

outcoor: Atomic coordinates (fractional):                   
    0.00404000   -0.00438632    0.00075071   1       1  Mg
    0.49909459    0.50086627    0.49969971   1       2  Mg
    0.25304454    0.24929415    0.24749725   2       3  C
   -0.25340990   -0.24938522   -0.24629937   2       4  C
    0.52771722   -0.02547862    0.24631999   3       5  O
    0.24366648    0.52855378   -0.02192951   3       6  O
   -0.03052850    0.25264109    0.52931614   3       7  O
   -0.52775602    0.02803728   -0.25355964   3       8  O
   -0.24635252   -0.52950339    0.02598502   3       9  O
    0.02876467   -0.24884250   -0.52770418   3      10  O

outcell: Unit cell vectors (Ang):
        5.677830    0.000000    0.000000
        3.786009    4.231299    0.000000
        3.786009    1.692731    3.877957

outcell: Cell vector modules (Ang)   :    5.677830    5.677830    5.677830
outcell: Cell angles (23,13,12) (deg):     48.1790     48.1790     48.1790
outcell: Cell volume (Ang**3)        :     93.1663
New_DM. Step:     3
Initializing Density Matrix...

siesta: Eharris(eV) =   -2966.534022


siesta: Eharris(eV) =   -2966.534022


siesta: Atomic forces (eV/Ang):
     1   -0.046822    0.101704   -0.018951
     2    0.015547   -0.027356    0.004638
     3   -0.820945    0.662186    1.883921
     4    0.599501   -0.665078   -1.177344
     5    2.973280   -6.717085    0.273491
     6    0.074489    4.185635   -6.669858
     7   -2.230136    1.722534    4.553527
     8   -2.719432    6.418312    0.157217
     9   -0.051118   -3.659829    5.889591
    10    2.214968   -2.109073   -4.756182
----------------------------------------
   Tot    0.009333   -0.088049    0.140050
----------------------------------------
   Max    6.717085
   Res    3.056467    sqrt( Sum f_i^2 / 3N )
----------------------------------------
   Max    6.717085    constrained

Stress-tensor-Voigt (kbar):      661.55      441.35      446.43      106.98       58.12       54.02
(Free)E + p*V (eV/cell)    -2975.3196
Target enthalpy (eV/cell)    -2945.2889

siesta: Stress tensor (static) (eV/Ang**3):
         0.415823    0.064702    0.033430
         0.064701    0.280522    0.038716
         0.033442    0.038717    0.283851

siesta: Pressure (static):       -523.48830499  kBar

siesta: Stress tensor (total) (eV/Ang**3):
         0.412901    0.066774    0.033707
         0.066773    0.275464    0.036274
         0.033719    0.036275    0.278639

siesta: Pressure (total):       -516.44237950  kBar

siesta: Temp_ion =     587.380 K

* Maximum dynamic memory allocated =     4 MB

siesta:                 ==============================
                            Begin MD step =      4
                        ==============================

outcoor: Atomic coordinates (fractional):                   
    0.00604941   -0.00656717    0.00112372   1       1  Mg
    0.49864494    0.50129619    0.49955010   1       2  Mg
    0.25411542    0.24890210    0.24674089   2       3  C
   -0.25477688   -0.24911396   -0.24475837   2       4  C
    0.52927195   -0.02596074    0.24453331   3       5  O
    0.24052978    0.53061870   -0.02071347   3       6  O
   -0.03316488    0.25391338    0.53137839   3       7  O
   -0.52929524    0.02971268   -0.25530905   3       8  O
   -0.24456057   -0.53188587    0.02664513   3       9  O
    0.03058305   -0.24826965   -0.52900191   3      10  O

outcell: Unit cell vectors (Ang):
        5.677830    0.000000    0.000000
        3.786009    4.231299    0.000000
        3.786009    1.692731    3.877957

outcell: Cell vector modules (Ang)   :    5.677830    5.677830    5.677830
outcell: Cell angles (23,13,12) (deg):     48.1790     48.1790     48.1790
outcell: Cell volume (Ang**3)        :     93.1663
New_DM. Step:     4
Initializing Density Matrix...

siesta: Eharris(eV) =   -2966.748456


siesta: Eharris(eV) =   -2966.748456


siesta: Atomic forces (eV/Ang):
     1   -0.083044    0.167707   -0.038459
     2    0.025445   -0.036981    0.010690
     3   -1.041301    0.871353    2.379733
     4    0.759515   -0.854634   -1.495912
     5    2.849373   -6.431894    0.358706
     6    0.083536    4.042115   -6.513620
     7   -1.920454    1.323744    3.904248
     8   -2.457315    5.989627    0.200986
     9   -0.074583   -3.319471    5.485514
    10    1.870210   -1.872069   -4.145851
----------------------------------------
   Tot    0.011381   -0.120504    0.146035
----------------------------------------
   Max    6.513620
   Res    2.871840    sqrt( Sum f_i^2 / 3N )
----------------------------------------
   Max    6.513620    constrained

Stress-tensor-Voigt (kbar):      671.10      460.46      482.22       97.69       62.86       42.95
(Free)E + p*V (eV/cell)    -2976.6463
Target enthalpy (eV/cell)    -2945.3664

siesta: Stress tensor (static) (eV/Ang**3):
         0.422430    0.057833    0.026635
         0.057832    0.294050    0.041444
         0.026653    0.041446    0.305312

siesta: Pressure (static):       -545.70269955  kBar

siesta: Stress tensor (total) (eV/Ang**3):
         0.418862    0.060974    0.026789
         0.060973    0.287391    0.039230
         0.026807    0.039232    0.300976

siesta: Pressure (total):       -537.92537444  kBar

siesta: Temp_ion =     761.247 K

* Maximum dynamic memory allocated =     4 MB

siesta:                 ==============================
                            Begin MD step =      5
                        ==============================

outcoor: Atomic coordinates (fractional):                   
    0.00804421   -0.00873084    0.00149282   1       1  Mg
    0.49819891    0.50172223    0.49940158   1       2  Mg
    0.25473470    0.24847851    0.24647397   2       3  C
   -0.25580667   -0.24888072   -0.24352504   2       4  C
    0.53171179   -0.02737506    0.24280200   3       5  O
    0.23742281    0.53365783   -0.02050303   3       6  O
   -0.03636978    0.25513184    0.53404339   3       7  O
   -0.53167107    0.03222313   -0.25702743   3       8  O
   -0.24280210   -0.53507681    0.02815211   3       9  O
    0.03303131   -0.24770563   -0.53093969   3      10  O

outcell: Unit cell vectors (Ang):
        5.677830    0.000000    0.000000
        3.786009    4.231299    0.000000
        3.786009    1.692731    3.877957

outcell: Cell vector modules (Ang)   :    5.677830    5.677830    5.677830
outcell: Cell angles (23,13,12) (deg):     48.1790     48.1790     48.1790
outcell: Cell volume (Ang**3)        :     93.1663
New_DM. Step:     5
Initializing Density Matrix...

siesta: Eharris(eV) =   -2967.075000


siesta: Eharris(eV) =   -2967.075000


siesta: Atomic forces (eV/Ang):
     1   -0.116318    0.236322   -0.047403
     2    0.030908   -0.034025    0.009067
     3   -1.108282    0.974057    2.504606
     4    0.789756   -0.928746   -1.594893
     5    2.551573   -5.737496    0.419944
     6    0.095519    3.623938   -5.981222
     7   -1.576260    0.881944    3.179195
     8   -2.093806    5.261751    0.262248
     9   -0.096763   -2.780063    4.759693
    10    1.471711   -1.577703   -3.468829
----------------------------------------
   Tot   -0.051963   -0.080019    0.042408
----------------------------------------
   Max    5.981222
   Res    2.540773    sqrt( Sum f_i^2 / 3N )
----------------------------------------
   Max    5.981222    constrained

Stress-tensor-Voigt (kbar):      684.73      499.07      530.74       82.09       61.41       31.30
(Free)E + p*V (eV/cell)    -2978.7154
Target enthalpy (eV/cell)    -2945.4822

siesta: Stress tensor (static) (eV/Ang**3):
         0.431812    0.046565    0.019293
         0.046564    0.321141    0.039818
         0.019317    0.039822    0.336043

siesta: Pressure (static):       -581.59435467  kBar

siesta: Stress tensor (total) (eV/Ang**3):
         0.427372    0.051237    0.019514
         0.051236    0.311491    0.038326
         0.019537    0.038329    0.331260

siesta: Pressure (total):       -571.51489791  kBar

siesta: Temp_ion =    1024.222 K

* Maximum dynamic memory allocated =     4 MB

siesta: Program's energy decomposition (eV):
siesta: Eions   =      5228.674091
siesta: Ena     =      1093.495873
siesta: Ekin    =      2394.509678
siesta: Enl     =      -403.173747
siesta: DEna    =      -103.588933
siesta: DUscf   =        24.883789
siesta: DUext   =         0.000000
siesta: Exc     =      -722.934798
siesta: eta*DQ  =         0.000000
siesta: Emadel  =         0.000000
siesta: Emeta   =         0.000000
siesta: Emolmec =         0.000000
siesta: Ekinion =         1.191472
siesta: Eharris =     -2965.883528
siesta: Etot    =     -2944.290755
siesta: FreeEng =     -2944.290755

siesta: Final energy (eV):
siesta:       Kinetic =    2394.509678
siesta:       Hartree =    1091.794764
siesta:    Ext. field =       0.000000
siesta:   Exch.-corr. =    -722.934798
siesta:  Ion-electron =   -4161.366016
siesta:       Ion-ion =   -1547.485856
siesta:       Ekinion =       1.191472
siesta:         Total =   -2944.290755

siesta: Atomic forces (eV/Ang):
siesta:      1   -0.116318    0.236322   -0.047403
siesta:      2    0.030908   -0.034025    0.009067
siesta:      3   -1.108282    0.974057    2.504606
siesta:      4    0.789756   -0.928746   -1.594893
siesta:      5    2.551573   -5.737496    0.419944
siesta:      6    0.095519    3.623938   -5.981222
siesta:      7   -1.576260    0.881944    3.179195
siesta:      8   -2.093806    5.261751    0.262248
siesta:      9   -0.096763   -2.780063    4.759693
siesta:     10    1.471711   -1.577703   -3.468829
siesta: ----------------------------------------
siesta:    Tot   -0.051963   -0.080019    0.042408

siesta: Stress tensor (static) (eV/Ang**3):
siesta:     0.431812    0.046565    0.019293
siesta:     0.046564    0.321141    0.039818
siesta:     0.019317    0.039822    0.336043

siesta: Cell volume =         93.166340 Ang**3

siesta: Pressure (static):
siesta:                Solid            Molecule  Units
siesta:          -0.00395352         -0.00556118  Ry/Bohr**3
siesta:          -0.36299872         -0.51060885  eV/Ang**3
siesta:        -581.59435467       -818.09440673  kBar
(Free)E+ p_basis*V_orbitals  =       -2944.287930
(Free)Eharris+ p_basis*V_orbitals  =       -2929.288156

* Maximum dynamic memory allocated : Node    0 =     4 MB
* Maximum dynamic memory allocated : Node    1 =     4 MB
* Maximum dynamic memory allocated : Node    2 =     4 MB
* Maximum dynamic memory allocated : Node    3 =     4 MB

* Maximum memory occured during ranger                        

timer: CPU execution times:
timer:  Routine       Calls   Time/call    Tot.time        %
timer:  siesta            1       8.054       8.054   100.00
timer:  Setup             1       1.228       1.228    15.25
timer:  bands             1       0.004       0.004     0.05
timer:  writewave         1       0.000       0.000     0.00
timer:  KSV_init          1       0.000       0.000     0.00
timer:  IterMD            5       1.361       6.806    84.51
timer:  hsparse           5       0.031       0.156     1.94
timer:  overlap           5       0.032       0.161     2.00
timer:  IterSCF           5       0.771       3.855    47.87
timer:  kinefsm          10       0.016       0.157     1.95
timer:  nlefsm           10       0.119       1.193    14.81
timer:  DHSCF            10       0.462       4.615    57.31
timer:  DHSCF1            1       0.397       0.397     4.93
timer:  DHSCF2            5       0.279       1.395    17.32
timer:  REORD            90       0.000       0.007     0.09
timer:  POISON           15       0.011       0.164     2.04
timer:  DHSCF3           10       0.127       1.266    15.72
timer:  rhoofd           10       0.051       0.514     6.38
timer:  cellXC           15       0.013       0.198     2.46
timer:  vmat             10       0.045       0.446     5.54
timer:  MolMec           10       0.000       0.000     0.00
timer:  diagon            5       0.014       0.072     0.89
timer:  r-eigvec          5       0.014       0.068     0.84
timer:  r-buildHS         5       0.000       0.000     0.00
timer:  rdiag             5       0.014       0.068     0.84
timer:  rdiag1            5       0.002       0.008     0.10
timer:  rdiag2            5       0.002       0.008     0.10
timer:  rdiag3            5       0.010       0.052     0.65
timer:  rdiag4            5       0.000       0.000     0.00
timer:  r-buildD          5       0.000       0.000     0.00
timer:  DHSCF4            5       0.311       1.554    19.29
timer:  dfscf             5       0.216       1.078    13.38
timer:  overfsm           5       0.004       0.022     0.27
timer:  optical           1       0.015       0.015     0.19
  

elaps: ELAPSED times:
elaps:  Routine       Calls   Time/call    Tot.time        %
elaps:  siesta            1       2.015       2.015    99.99
elaps:  Setup             1       0.307       0.307    15.22
elaps:  bands             1       0.000       0.000     0.01
elaps:  writewave         1       0.001       0.001     0.03
elaps:  KSV_init          1       0.000       0.000     0.00
elaps:  IterMD            5       0.341       1.703    84.51
elaps:  hsparse           5       0.009       0.045     2.22
elaps:  overlap           5       0.008       0.042     2.08
elaps:  IterSCF           5       0.192       0.962    47.72
elaps:  kinefsm          10       0.004       0.043     2.12
elaps:  nlefsm           10       0.032       0.319    15.84
elaps:  DHSCF            10       0.116       1.160    57.56
elaps:  DHSCF1            1       0.100       0.100     4.96
elaps:  DHSCF2            5       0.070       0.349    17.30
elaps:  REORD            90       0.000       0.001     0.07
elaps:  POISON           15       0.003       0.041     2.03
elaps:  DHSCF3           10       0.031       0.314    15.59
elaps:  rhoofd           10       0.014       0.137     6.77
elaps:  cellXC           15       0.003       0.050     2.50
elaps:  vmat             10       0.011       0.112     5.55
elaps:  MolMec           10       0.000       0.000     0.00
elaps:  diagon            5       0.004       0.018     0.89
elaps:  r-eigvec          5       0.003       0.017     0.85
elaps:  r-buildHS         5       0.000       0.000     0.00
elaps:  rdiag             5       0.003       0.017     0.85
elaps:  rdiag1            5       0.001       0.003     0.13
elaps:  rdiag2            5       0.000       0.001     0.07
elaps:  rdiag3            5       0.002       0.011     0.57
elaps:  rdiag4            5       0.000       0.000     0.02
elaps:  r-buildD          5       0.000       0.000     0.02
elaps:  DHSCF4            5       0.079       0.396    19.65
elaps:  dfscf             5       0.055       0.273    13.53
elaps:  overfsm           5       0.001       0.007     0.36
elaps:  optical           1       0.000       0.000     0.00
  
>> End of run:  29-SEP-2009  17:22:00
