Siesta Version:                                        siesta-3.0-rc2
Architecture  : macosx-openmpi
Compiler flags: /opt/openmpi.gcc.gfortran/bin/mpif90 -O2
PARALLEL version

* Running on    2 nodes in parallel
>> Start of run:  30-JUN-2010  16:51:27

                           ***********************       
                           *  WELCOME TO SIESTA  *       
                           ***********************       

reinit: Reading from standard input
************************** Dump of input data file ****************************
#
# MgCO3 in primitive cell. SZ Harris. Some MD steps in Nose MD
#
SystemName	MgCo3 MD Nose test -- SZ, 100 Ry  Harris
SystemLabel	md_nose
NumberOfSpecies		3
NumberOfAtoms	       10
%block ChemicalSpeciesLabel
      1      12     Mg
      2       6     C
      3       8     O
%endblock ChemicalSpeciesLabel
PAO.BasisSize  SZ
# Rhombohedral primitive cell
# (HEX 3-fold cell had A=4.635 and C=15.023, so alpha=48.179 degrees
#  and a=5.67783 Ang)
LatticeConstant     5.67783 Ang
%block LatticeParameters
1.0 1.0 1.0 48.179 48.179 48.179
%endblock LatticeParameters
AtomicCoordinatesFormat    Fractional
%block AtomicCoordinatesAndAtomicSpecies
  0.0         0.0         0.0      1
  0.5         0.5         0.5      1
  0.25        0.25        0.25     2
 -0.25       -0.25       -0.25     2
  0.5274     -0.0274      0.25     3
  0.25        0.5274     -0.0274   3
 -0.0274      0.25        0.5274   3
 -0.5274      0.0274     -0.25     3
 -0.25       -0.5274      0.0274   3
  0.0274     -0.25       -0.5274   3
%endblock AtomicCoordinatesAndAtomicSpecies
HarrisFunctional T
Solution.Method       diagon
MeshCutoff             100 Ry
WriteCoorStep      .true.
WriteForces        .true.
WriteMDHistory     .true.
MD.UseSaveXV       T
MD.TypeOfRun         Nose
MD.InitialTemperature 600 K
MD.TargetTemperature 600 K
MD.Initial.Time.Step      1
MD.Final.Time.Step        5
MD.Length.Time.Step       1 fs
************************** End of input data file *****************************

reinit: -----------------------------------------------------------------------
reinit: System Name: MgCo3 MD Nose test -- SZ, 100 Ry  Harris
reinit: -----------------------------------------------------------------------
reinit: System Label: md_nose                                                     
reinit: -----------------------------------------------------------------------

initatom: Reading input for the pseudopotentials and atomic orbitals ----------
 Species number:            1  Label: Mg Atomic number:          12
 Species number:            2  Label: C Atomic number:           6
 Species number:            3  Label: O Atomic number:           8
Ground state valence configuration:   3s02
Reading pseudopotential information in formatted form from Mg.psf

Valence configuration for pseudopotential generation:
3s( 2.00) rc: 2.59
3p( 0.00) rc: 2.59
3d( 0.00) rc: 2.59
4f( 0.00) rc: 2.59
Ground state valence configuration:   2s02  2p02
Reading pseudopotential information in formatted form from C.psf

Valence configuration for pseudopotential generation:
2s( 2.00) rc: 1.49
2p( 2.00) rc: 1.52
3d( 0.00) rc: 1.58
Ground state valence configuration:   2s02  2p04
Reading pseudopotential information in formatted form from O.psf

Valence configuration for pseudopotential generation:
2s( 2.00) rc: 1.14
2p( 4.00) rc: 1.14
3d( 0.00) rc: 1.14
4f( 0.00) rc: 1.14
For Mg, standard SIESTA heuristics set lmxkb to 1
 (one more than the basis l, including polarization orbitals).
Use PS.lmax or PS.KBprojectors blocks to override.
For C, standard SIESTA heuristics set lmxkb to 2
 (one more than the basis l, including polarization orbitals).
Use PS.lmax or PS.KBprojectors blocks to override.
For O, standard SIESTA heuristics set lmxkb to 2
 (one more than the basis l, including polarization orbitals).
Use PS.lmax or PS.KBprojectors blocks to override.

<basis_specs>
===============================================================================
Mg                   Z=  12    Mass=  24.310        Charge= 0.17977+309
Lmxo=0 Lmxkb=1     BasisType=split      Semic=F
L=0  Nsemic=0  Cnfigmx=3
          n=1  nzeta=1  polorb=0
            splnorm:   0.15000    
               vcte:    0.0000    
               rinn:    0.0000    
                rcs:    0.0000    
            lambdas:    1.0000    
-------------------------------------------------------------------------------
L=0  Nkbl=1  erefs: 0.17977+309
L=1  Nkbl=1  erefs: 0.17977+309
===============================================================================
</basis_specs>

atom: Called for Mg                    (Z =  12)

read_vps: Pseudopotential generation method:
read_vps: ATM3      Troullier-Martins                       
Total valence charge:    2.00000

xc_check: Exchange-correlation functional:
xc_check: Ceperley-Alder
V l=0 = -2*Zval/r beyond r=  3.5878
V l=1 = -2*Zval/r beyond r=  3.5878
All V_l potentials equal beyond r=  2.5600
This should be close to max(r_c) in ps generation
All pots = -2*Zval/r beyond r=  3.5878
Using large-core scheme for Vlocal

atom: Estimated core radius    3.58779

atom: Including non-local core corrections could be a good idea
atom: Maximum radius for 4*pi*r*r*local-pseudopot. charge    3.91588
atom: Maximum radius for r*vlocal+2*Zval:    3.63292
GHOST: No ghost state for L =  0
GHOST: No ghost state for L =  1

KBgen: Kleinman-Bylander projectors: 
   l= 0   rc=  2.657845   el= -0.351328   Ekb=  2.184400   kbcos=  0.257081
   l= 1   rc=  2.657845   el= -0.101748   Ekb=  0.525536   kbcos=  0.270508

KBgen: Total number of  Kleinman-Bylander projectors:    4
atom: -------------------------------------------------------------------------

atom: SANKEY-TYPE ORBITALS:

SPLIT: Orbitals with angular momentum L= 0

SPLIT: Basis orbitals for state 3s

SPLIT: PAO cut-off radius determined from an
SPLIT: energy shift=  0.020000 Ry

   izeta = 1
                 lambda =    1.000000
                     rc =    6.619780
                 energy =   -0.332103
                kinetic =    0.289627
    potential(screened) =   -0.621729
       potential(ionic) =   -1.387191
atom: Total number of Sankey-type orbitals:  1

atm_pop: Valence configuration (for local Pseudopot. screening):
 3s( 2.00)                                                            
Vna: chval, zval:    2.00000   2.00000

Vna:  Cut-off radius for the neutral-atom potential:   6.619780

atom: _________________________________________________________________________

<basis_specs>
===============================================================================
C                    Z=   6    Mass=  12.010        Charge= 0.17977+309
Lmxo=1 Lmxkb=2     BasisType=split      Semic=F
L=0  Nsemic=0  Cnfigmx=2
          n=1  nzeta=1  polorb=0
            splnorm:   0.15000    
               vcte:    0.0000    
               rinn:    0.0000    
                rcs:    0.0000    
            lambdas:    1.0000    
L=1  Nsemic=0  Cnfigmx=2
          n=1  nzeta=1  polorb=0
            splnorm:   0.15000    
               vcte:    0.0000    
               rinn:    0.0000    
                rcs:    0.0000    
            lambdas:    1.0000    
-------------------------------------------------------------------------------
L=0  Nkbl=1  erefs: 0.17977+309
L=1  Nkbl=1  erefs: 0.17977+309
L=2  Nkbl=1  erefs: 0.17977+309
===============================================================================
</basis_specs>

atom: Called for C                     (Z =   6)

read_vps: Pseudopotential generation method:
read_vps: ATM3      Troullier-Martins                       
Total valence charge:    4.00000

xc_check: Exchange-correlation functional:
xc_check: Ceperley-Alder
V l=0 = -2*Zval/r beyond r=  1.4666
V l=1 = -2*Zval/r beyond r=  1.5038
V l=2 = -2*Zval/r beyond r=  1.5612
All V_l potentials equal beyond r=  1.5612
This should be close to max(r_c) in ps generation
All pots = -2*Zval/r beyond r=  1.5612

VLOCAL1: 99.0% of the norm of Vloc inside     17.809 Ry
VLOCAL1: 99.9% of the norm of Vloc inside     40.586 Ry
atom: Maximum radius for 4*pi*r*r*local-pseudopot. charge    1.88329
atom: Maximum radius for r*vlocal+2*Zval:    1.62091
GHOST: No ghost state for L =  0
GHOST: No ghost state for L =  1
GHOST: No ghost state for L =  2

KBgen: Kleinman-Bylander projectors: 
   l= 0   rc=  1.747182   el= -1.001947   Ekb=  5.181700   kbcos=  0.300603
   l= 1   rc=  1.747182   el= -0.398598   Ekb= -4.328763   kbcos= -0.367074
   l= 2   rc=  1.955272   el=  0.002326   Ekb= -1.016175   kbcos= -0.009979

KBgen: Total number of  Kleinman-Bylander projectors:    9
atom: -------------------------------------------------------------------------

atom: SANKEY-TYPE ORBITALS:

SPLIT: Orbitals with angular momentum L= 0

SPLIT: Basis orbitals for state 2s

SPLIT: PAO cut-off radius determined from an
SPLIT: energy shift=  0.020000 Ry

   izeta = 1
                 lambda =    1.000000
                     rc =    4.191849
                 energy =   -0.983897
                kinetic =    0.886956
    potential(screened) =   -1.870853
       potential(ionic) =   -5.479661

SPLIT: Orbitals with angular momentum L= 1

SPLIT: Basis orbitals for state 2p

SPLIT: PAO cut-off radius determined from an
SPLIT: energy shift=  0.020000 Ry

   izeta = 1
                 lambda =    1.000000
                     rc =    4.870301
                 energy =   -0.379093
                kinetic =    2.545357
    potential(screened) =   -2.924450
       potential(ionic) =   -6.433151
atom: Total number of Sankey-type orbitals:  4

atm_pop: Valence configuration (for local Pseudopot. screening):
 2s( 2.00)                                                            
 2p( 2.00)                                                            
Vna: chval, zval:    4.00000   4.00000

Vna:  Cut-off radius for the neutral-atom potential:   4.870301

atom: _________________________________________________________________________

<basis_specs>
===============================================================================
O                    Z=   8    Mass=  16.000        Charge= 0.17977+309
Lmxo=1 Lmxkb=2     BasisType=split      Semic=F
L=0  Nsemic=0  Cnfigmx=2
          n=1  nzeta=1  polorb=0
            splnorm:   0.15000    
               vcte:    0.0000    
               rinn:    0.0000    
                rcs:    0.0000    
            lambdas:    1.0000    
L=1  Nsemic=0  Cnfigmx=2
          n=1  nzeta=1  polorb=0
            splnorm:   0.15000    
               vcte:    0.0000    
               rinn:    0.0000    
                rcs:    0.0000    
            lambdas:    1.0000    
-------------------------------------------------------------------------------
L=0  Nkbl=1  erefs: 0.17977+309
L=1  Nkbl=1  erefs: 0.17977+309
L=2  Nkbl=1  erefs: 0.17977+309
===============================================================================
</basis_specs>

atom: Called for O                     (Z =   8)

read_vps: Pseudopotential generation method:
read_vps: ATM3      Troullier-Martins                       
Total valence charge:    6.00000

xc_check: Exchange-correlation functional:
xc_check: Ceperley-Alder
V l=0 = -2*Zval/r beyond r=  1.1278
V l=1 = -2*Zval/r beyond r=  1.1278
V l=2 = -2*Zval/r beyond r=  1.1278
All V_l potentials equal beyond r=  1.1278
This should be close to max(r_c) in ps generation
All pots = -2*Zval/r beyond r=  1.1278

VLOCAL1: 99.0% of the norm of Vloc inside     34.126 Ry
VLOCAL1: 99.9% of the norm of Vloc inside     77.774 Ry
atom: Maximum radius for 4*pi*r*r*local-pseudopot. charge    1.37759
atom: Maximum radius for r*vlocal+2*Zval:    1.18566
GHOST: No ghost state for L =  0
GHOST: No ghost state for L =  1
GHOST: No ghost state for L =  2

KBgen: Kleinman-Bylander projectors: 
   l= 0   rc=  1.294105   el= -1.742414   Ekb=  9.135903   kbcos=  0.326910
   l= 1   rc=  1.294105   el= -0.676589   Ekb= -8.124878   kbcos= -0.395047
   l= 2   rc=  1.448233   el=  0.002386   Ekb= -2.039267   kbcos= -0.003484

KBgen: Total number of  Kleinman-Bylander projectors:    9
atom: -------------------------------------------------------------------------

atom: SANKEY-TYPE ORBITALS:

SPLIT: Orbitals with angular momentum L= 0

SPLIT: Basis orbitals for state 2s

SPLIT: PAO cut-off radius determined from an
SPLIT: energy shift=  0.020000 Ry

   izeta = 1
                 lambda =    1.000000
                     rc =    3.305093
                 energy =   -1.723766
                kinetic =    1.614911
    potential(screened) =   -3.338677
       potential(ionic) =  -11.304675

SPLIT: Orbitals with angular momentum L= 1

SPLIT: Basis orbitals for state 2p

SPLIT: PAO cut-off radius determined from an
SPLIT: energy shift=  0.020000 Ry

   izeta = 1
                 lambda =    1.000000
                     rc =    3.937239
                 energy =   -0.658841
                kinetic =    5.005986
    potential(screened) =   -5.664827
       potential(ionic) =  -13.452360
atom: Total number of Sankey-type orbitals:  4

atm_pop: Valence configuration (for local Pseudopot. screening):
 2s( 2.00)                                                            
 2p( 4.00)                                                            
Vna: chval, zval:    6.00000   6.00000

Vna:  Cut-off radius for the neutral-atom potential:   3.937239

atom: _________________________________________________________________________

prinput: Basis input ----------------------------------------------------------

PAO.BasisType split     

%block ChemicalSpeciesLabel
    1   12 Mg                      # Species index, atomic number, species label
    2    6 C                       # Species index, atomic number, species label
    3    8 O                       # Species index, atomic number, species label
%endblock ChemicalSpeciesLabel

%block PAO.Basis                 # Define Basis set
Mg                    1                    # Species label, number of l-shells
 n=3   0   1                         # n, l, Nzeta 
   6.620   
   1.000   
C                     2                    # Species label, number of l-shells
 n=2   0   1                         # n, l, Nzeta 
   4.192   
   1.000   
 n=2   1   1                         # n, l, Nzeta 
   4.870   
   1.000   
O                     2                    # Species label, number of l-shells
 n=2   0   1                         # n, l, Nzeta 
   3.305   
   1.000   
 n=2   1   1                         # n, l, Nzeta 
   3.937   
   1.000   
%endblock PAO.Basis

prinput: ----------------------------------------------------------------------

coor:   Atomic-coordinates input format  =     Fractional

siesta: WARNING: XV file not found

siesta: Atomic coordinates (Bohr) and species
siesta:      0.00000   0.00000   0.00000  1        1
siesta:     12.51930   5.59740   3.66414  1        2
siesta:      6.25965   2.79870   1.83207  2        3
siesta:     -6.25965  -2.79870  -1.83207  2        4
siesta:      7.25136   0.58061   1.83207  3        5
siesta:      6.25965   4.12944  -0.20079  3        6
siesta:      5.26794   3.68605   3.86493  3        7
siesta:     -7.25136  -0.58061  -1.83207  3        8
siesta:     -6.25965  -4.12944   0.20079  3        9
siesta:     -5.26794  -3.68605  -3.86493  3       10

siesta: System type = bulk      

initatomlists: Number of atoms, orbitals, and projectors:     10    34    80

siesta: ******************** Simulation parameters ****************************
siesta:
siesta: The following are some of the parameters of the simulation.
siesta: A complete list of the parameters used, including default values,
siesta: can be found in file out.fdf
siesta:
redata: Non-Collinear-spin run           =     F
redata: SpinPolarized (Up/Down) run      =     F
redata: Number of spin components        =     1
redata: Long output                      =     F
redata: Number of Atomic Species         =        3
redata: Charge density info will appear in .RHO file
redata: Write Mulliken Pop.              =     NO
redata: Mesh Cutoff                      =   100.0000  Ry
redata: Net charge of the system         =     0.0000 |e|
redata: Max. number of SCF Iter          =       50
redata: Mixing is linear
redata: Mix DM in first SCF step ?       =     F
redata: Write Pulay info on disk?        =     F
redata: Discard 1st Pulay DM after  kick =     F
redata: New DM Mixing Weight             =     0.2500
redata: New DM Occupancy tolerance       = 0.000000000001
redata: No kicks to SCF
redata: DM Mixing Weight for Kicks       =     0.5000
redata: DM Tolerance for SCF             =     0.000100
redata: Require Energy convergence for SCF =     F
redata: DM Energy tolerance for SCF      =     0.000100 eV
redata: Require Harris convergence for SCF =     F
redata: DM Harris energy tolerance for SCF =     0.000100 eV
redata: Using Saved Data (generic)   =     F
redata: Use continuation files for DM    =     F
redata: Neglect nonoverlap interactions  =     F
redata: Method of Calculation            =     Diagonalization
redata: Divide and Conquer               =     T
redata: Electronic Temperature           =     0.0019  Ry
redata: Fix the spin of the system       =     F
redata: Dynamics option                  =     Nose thermostat MD run
redata: Initial MD time step             =        1
redata:   Final MD time step             =        5
redata: Length of MD time step           =     1.0000  fs
redata: Initial Temperature of MD run    =   600.0000  K
redata: Perform a MD quench              =     F
redata: Nose mass                        =   100.0000  Ry/fs**2
redata: Target Temperature               =   600.0000  Kelvin
redata: ***********************************************************************
Total number of electrons:    48.000000
Total ionic charge:    48.000000

* ProcessorY, Blocksize:    1  17

 Kpoints in:            1 . Kpoints trimmed:            1

siesta: k-grid: Number of k-points =     1
siesta: k-grid: Cutoff (effective) =     2.317 Ang
siesta: k-grid: Supercell and displacements
siesta: k-grid:    1   0   0      0.000
siesta: k-grid:    0   1   0      0.000
siesta: k-grid:    0   0   1      0.000

* Maximum dynamic memory allocated =     3 MB

siesta:                 ==============================
                            Begin MD step =      1
                        ==============================

outcoor: Atomic coordinates (fractional):                   
    0.00000000    0.00000000    0.00000000   1       1  Mg
    0.50000000    0.50000000    0.50000000   1       2  Mg
    0.25000000    0.25000000    0.25000000   2       3  C
   -0.25000000   -0.25000000   -0.25000000   2       4  C
    0.52740000   -0.02740000    0.25000000   3       5  O
    0.25000000    0.52740000   -0.02740000   3       6  O
   -0.02740000    0.25000000    0.52740000   3       7  O
   -0.52740000    0.02740000   -0.25000000   3       8  O
   -0.25000000   -0.52740000    0.02740000   3       9  O
    0.02740000   -0.25000000   -0.52740000   3      10  O

outcell: Unit cell vectors (Ang):
        5.677830    0.000000    0.000000
        3.786009    4.231299    0.000000
        3.786009    1.692731    3.877957

outcell: Cell vector modules (Ang)   :    5.677830    5.677830    5.677830
outcell: Cell angles (23,13,12) (deg):     48.1790     48.1790     48.1790
outcell: Cell volume (Ang**3)        :     93.1663

NOTE: orbital pair      1     1 (at least) is multiply connected.
NOTE: Harmless for Gamma calculations, except if a COHP analysis is intended.
New_DM. Step:     1
Initializing Density Matrix...

InitMesh: MESH =    32 x    32 x    32 =       32768
InitMesh: Mesh cutoff (required, used) =   100.000   112.857 Ry

* Maximum dynamic memory allocated =     5 MB

stepf: Fermi-Dirac step function

siesta: Program's energy decomposition (eV):
siesta: Ebs     =      -719.731835
siesta: Eions   =      5228.674091
siesta: Ena     =      1092.429444
siesta: Ekin    =      2069.792750
siesta: Enl     =      -254.036133
siesta: DEna    =        15.976650
siesta: DUscf   =         0.158309
siesta: DUext   =         0.000000
siesta: Exc     =      -679.226103
siesta: eta*DQ  =         0.000000
siesta: Emadel  =         0.000000
siesta: Emeta   =         0.000000
siesta: Emolmec =         0.000000
siesta: Ekinion =         0.000000
siesta: Eharris =     -2966.548610
siesta: Etot    =     -2983.579175
siesta: FreeEng =     -2983.579175

siesta: Eharris(eV) =   -2966.548610


siesta: Eharris(eV) =   -2966.548610

timer: Routine,Calls,Time,% = IterSCF        1       1.194  50.94
elaps: Routine,Calls,Wall,% = IterSCF        1       0.618  50.82

siesta: E_KS - E_eggbox =     -2945.3446

siesta: Atomic forces (eV/Ang):
     1   -0.000000    0.000000   -0.000000
     2    0.000000    0.000000    0.000000
     3    0.000001   -0.000001    0.000001
     4   -0.000001    0.000001   -0.000000
     5    2.753943   -6.159527   -0.000005
     6   -0.000002    3.695396   -5.645145
     7   -2.753928    2.464114    5.645152
     8   -2.753942    6.159526    0.000003
     9    0.000003   -3.695396    5.645146
    10    2.753928   -2.464115   -5.645152
----------------------------------------
   Tot    0.000000   -0.000002   -0.000001
----------------------------------------
   Max    6.159527
   Res    3.017409    sqrt( Sum f_i^2 / 3N )
----------------------------------------
   Max    6.159527    constrained

Stress-tensor-Voigt (kbar):      654.06      456.91      425.46      110.52       28.07       71.70
(Free)E + p*V (eV/cell)    -2975.1253
Target enthalpy (eV/cell)    -2945.3446

siesta: Stress tensor (static) (eV/Ang**3):
         0.410796    0.067429    0.044140
         0.067429    0.290131    0.019735
         0.044140    0.019735    0.272902

siesta: Pressure (static):       -520.08737434  kBar

siesta: Stress tensor (total) (eV/Ang**3):
         0.408226    0.068982    0.044751
         0.068982    0.285181    0.017520
         0.044751    0.017520    0.265547

siesta: Pressure (total):       -512.14294686  kBar

siesta: Temp_ion =     600.000 K
 iupos on opening:           16
 iupos on writing:           16
 istep, xa, va :            1  8.67660661742930203E-003 -1.63531508478561190E-002  2.75412198222449835E-003   12.516462249487981        5.6003862385346244        3.6630386803088704        6.2648485813651007        2.7916013206761692        1.8221103955172213       -6.2627560455887492       -2.7900460636911606       -1.8180163973785137        7.2450964320982365       0.58617134574530294        1.8185027556457536        6.2493511899181353        4.1405041396430615      -0.17716137758892084        5.2688809096374758        3.6984749535520303        3.8690170960387187       -7.2621226415503495      -0.58743892772354023       -1.8451595260491342       -6.2526462023482967       -4.1379913680007077       0.19225148187182653       -5.2590059848646922       -3.6805794839712860       -3.8630352455069534       8.67660662352080607E-003 -1.63531508572592466E-002  2.75412198639435508E-003 -2.83500222719203221E-003  2.98707917236542501E-003 -1.10096990584259476E-003  5.19995479762804923E-003 -7.09825800982060752E-003 -9.95943000127010210E-003 -3.10741907160154429E-003  8.65351509383341204E-003  1.40534280196214362E-002 -7.82189248405880388E-003  9.04614402433985901E-003 -1.35670668392305193E-002 -1.02974348103430976E-002  8.97109057304125955E-003  2.68268221836792109E-002  2.50197435909851971E-003  1.10344749955589034E-002  8.89242173486409640E-004 -9.20431715493442645E-003 -1.03137254359388121E-002 -1.30897029196627018E-002  7.00242207284126721E-003 -6.45831863797289088E-003 -1.17367181995730371E-002  7.37295070837571884E-003  6.86099479852134674E-003  5.09260839638756620E-003

* Maximum dynamic memory allocated =     5 MB

siesta:                 ==============================
                            Begin MD step =      2
                        ==============================

outcoor: Atomic coordinates (fractional):                   
    0.00202205   -0.00219551    0.00037582   1       1  Mg
    0.49954678    0.50043367    0.49984976   1       2  Mg
    0.25162026    0.24965596    0.24864096   2       3  C
   -0.25177843   -0.24968494   -0.24808230   2       4  C
    0.52709300   -0.02596380    0.24814867   3       5  O
    0.24682768    0.52749323   -0.02417503   3       6  O
   -0.02857131    0.25133146    0.52795710   3       7  O
   -0.52711895    0.02726046   -0.25178619   3       8  O
   -0.24816809   -0.52800274    0.02623419   3       9  O
    0.02767276   -0.24941995   -0.52714083   3      10  O

outcell: Unit cell vectors (Ang):
        5.677830    0.000000    0.000000
        3.786009    4.231299    0.000000
        3.786009    1.692731    3.877957

outcell: Cell vector modules (Ang)   :    5.677830    5.677830    5.677830
outcell: Cell angles (23,13,12) (deg):     48.1790     48.1790     48.1790
outcell: Cell volume (Ang**3)        :     93.1663
New_DM. Step:     2
Initializing Density Matrix...

siesta: Eharris(eV) =   -2966.465549


siesta: Eharris(eV) =   -2966.465549


siesta: Atomic forces (eV/Ang):
     1   -0.023459    0.047770   -0.009394
     2    0.006518   -0.011016    0.001835
     3   -0.457553    0.363005    1.047311
     4    0.333740   -0.367693   -0.655758
     5    2.960927   -6.657477    0.147432
     6    0.029399    4.066692   -6.345283
     7   -2.519778    2.112470    5.194147
     8   -2.831152    6.512595    0.083164
     9   -0.036920   -3.753792    5.937705
    10    2.550243   -2.344148   -5.327687
----------------------------------------
   Tot    0.011967   -0.031594    0.073471
----------------------------------------
   Max    6.657477
   Res    3.109067    sqrt( Sum f_i^2 / 3N )
----------------------------------------
   Max    6.657477    constrained

Stress-tensor-Voigt (kbar):      655.18      437.76      422.69      112.55       45.63       64.94
(Free)E + p*V (eV/cell)    -2974.6585
Target enthalpy (eV/cell)    -2945.2809

siesta: Stress tensor (static) (eV/Ang**3):
         0.411497    0.068693    0.039916
         0.068693    0.278175    0.030694
         0.039922    0.030693    0.271176

siesta: Pressure (static):       -513.15484406  kBar

siesta: Stress tensor (total) (eV/Ang**3):
         0.408927    0.070246    0.040527
         0.070246    0.273225    0.028479
         0.040534    0.028478    0.263821

siesta: Pressure (total):       -505.21041659  kBar

siesta: Temp_ion =     532.141 K
 iupos on opening:           17
 iupos on writing:           17
 istep, xa, va :            2  1.73362483436412078E-002 -3.26716791911137935E-002  5.50140870945817206E-003   12.513631936498475        5.6033652883933787        3.6619390127456546        6.2693591837415816        2.7850497961899894        1.8137289665651339       -6.2653606092874048       -2.7819462571031393       -1.8049505575187654        7.2421819993315406       0.58420126531968475        1.8051017026778422        6.2390864182218042        4.1561673114363344      -0.16070554083645558        5.2669742366543844        3.7132940847732456        3.8789765481011842       -7.2760885798286186      -0.58690042189488534       -1.8581558956380180       -6.2456851435467557       -4.1507876100872041       0.19042549454782837       -5.2471893454548084       -3.6777642261364587       -3.8671635870964542       8.66812417182060389E-003 -1.63358395955568968E-002  2.75070435472908603E-003 -2.83265760746020294E-003  2.98306451713665002E-003 -1.10031873374357055E-003  4.85527894244209592E-003 -6.82489174478168124E-003 -9.17042927071840333E-003 -2.85599171535357802E-003  8.37666128820682004E-003  1.35596337939026534E-002 -4.58923720203388303E-003  1.79587053465545682E-003 -1.34840612143642940E-002 -1.02811038174465633E-002  1.33623372554281510E-002  2.00446559976122964E-002 -4.81270661700462874E-004  1.36237534552199110E-002  7.02102252818130775E-003 -1.23640530465051607E-002 -3.14544882225574517E-003 -1.30430352657235904E-002  6.98174115497080319E-003 -1.06724865808628423E-002 -5.18467914192590352E-003  1.03737162614884314E-002  4.14117586317351311E-003 -1.11454202581630986E-003

* Maximum dynamic memory allocated =     5 MB

siesta:                 ==============================
                            Begin MD step =      3
                        ==============================

outcoor: Atomic coordinates (fractional):                   
    0.00404000   -0.00438632    0.00075071   1       1  Mg
    0.49909459    0.50086627    0.49969971   1       2  Mg
    0.25304454    0.24929415    0.24749725   2       3  C
   -0.25340990   -0.24938522   -0.24629937   2       4  C
    0.52771722   -0.02547862    0.24631999   3       5  O
    0.24366648    0.52855378   -0.02192951   3       6  O
   -0.03052850    0.25264109    0.52931614   3       7  O
   -0.52775602    0.02803728   -0.25355964   3       8  O
   -0.24635252   -0.52950339    0.02598502   3       9  O
    0.02876467   -0.24884250   -0.52770418   3      10  O

outcell: Unit cell vectors (Ang):
        5.677830    0.000000    0.000000
        3.786009    4.231299    0.000000
        3.786009    1.692731    3.877957

outcell: Cell vector modules (Ang)   :    5.677830    5.677830    5.677830
outcell: Cell angles (23,13,12) (deg):     48.1790     48.1790     48.1790
outcell: Cell volume (Ang**3)        :     93.1663
New_DM. Step:     3
Initializing Density Matrix...

siesta: Eharris(eV) =   -2966.534022


siesta: Eharris(eV) =   -2966.534022


siesta: Atomic forces (eV/Ang):
     1   -0.046822    0.101704   -0.018951
     2    0.015547   -0.027356    0.004638
     3   -0.820945    0.662186    1.883921
     4    0.599502   -0.665078   -1.177345
     5    2.973280   -6.717085    0.273492
     6    0.074491    4.185636   -6.669857
     7   -2.230136    1.722534    4.553527
     8   -2.719434    6.418312    0.157219
     9   -0.051118   -3.659829    5.889591
    10    2.214968   -2.109072   -4.756183
----------------------------------------
   Tot    0.009334   -0.088048    0.140052
----------------------------------------
   Max    6.717085
   Res    3.056467    sqrt( Sum f_i^2 / 3N )
----------------------------------------
   Max    6.717085    constrained

Stress-tensor-Voigt (kbar):      661.55      441.35      446.43      106.98       58.12       54.02
(Free)E + p*V (eV/cell)    -2975.3196
Target enthalpy (eV/cell)    -2945.2889

siesta: Stress tensor (static) (eV/Ang**3):
         0.415824    0.064702    0.033430
         0.064701    0.280522    0.038716
         0.033442    0.038717    0.283851

siesta: Pressure (static):       -523.48834336  kBar

siesta: Stress tensor (total) (eV/Ang**3):
         0.412901    0.066774    0.033707
         0.066773    0.275464    0.036274
         0.033719    0.036275    0.278639

siesta: Pressure (total):       -516.44241779  kBar

siesta: Temp_ion =     587.380 K
 iupos on opening:           17
 iupos on writing:           17
 istep, xa, va :            3  2.59621218352478061E-002 -4.89165412754478598E-002  8.23493171905255276E-003   12.510812841806457        5.6063243451363007        3.6608426594811059        6.2726329315828959        2.7794955671974853        1.8081861459210575       -6.2670618625421088       -2.7748479092145311       -1.7936576956943624        7.2426312613513986       0.57463100976558279        1.7920083870868777        6.2289046262607366        4.1765682328398670      -0.15179410743950381        5.2625440747122880        3.7300640261804983        3.8940892699298995       -7.2931331441804828      -0.57909996314494949       -1.8709760314617994       -6.2387810381620517       -4.1677263238403270       0.19526294858100107       -5.2328651211846715       -3.6773348833342512       -3.8766737501742154       8.64275760890925206E-003 -1.62816952137958687E-002  2.74040486841402786E-003 -2.82470384076178400E-003  2.96905330083842506E-003 -1.09801041388224137E-003  3.89217510889787672E-003 -6.05287673934191799E-003 -6.96212479808182381E-003 -2.15290847667991107E-003  7.59907723831456522E-003  1.21793508420755588E-002 -1.23258537341853591E-003 -5.77016798986006597E-003 -1.32471842794379090E-002 -1.02232818286990459E-002  1.80320465984028129E-002  1.26836350747085071E-002 -3.16841746259359470E-003  1.57945363142342338E-002  1.25360869455906302E-002 -1.55052513150672425E-002  4.16948228929530686E-003 -1.29082527063325847E-002  6.93258209312237229E-003 -1.48674779198096612E-002  1.50573335458727424E-003  1.30704318400104453E-002  1.62230031851741461E-003 -6.81925233363105815E-003

* Maximum dynamic memory allocated =     5 MB

siesta:                 ==============================
                            Begin MD step =      4
                        ==============================

outcoor: Atomic coordinates (fractional):                   
    0.00604941   -0.00656717    0.00112372   1       1  Mg
    0.49864494    0.50129619    0.49955010   1       2  Mg
    0.25411542    0.24890210    0.24674089   2       3  C
   -0.25477688   -0.24911396   -0.24475837   2       4  C
    0.52927195   -0.02596074    0.24453331   3       5  O
    0.24052978    0.53061870   -0.02071347   3       6  O
   -0.03316488    0.25391338    0.53137839   3       7  O
   -0.52929524    0.02971268   -0.25530905   3       8  O
   -0.24456057   -0.53188587    0.02664513   3       9  O
    0.03058305   -0.24826965   -0.52900191   3      10  O

outcell: Unit cell vectors (Ang):
        5.677830    0.000000    0.000000
        3.786009    4.231299    0.000000
        3.786009    1.692731    3.877957

outcell: Cell vector modules (Ang)   :    5.677830    5.677830    5.677830
outcell: Cell angles (23,13,12) (deg):     48.1790     48.1790     48.1790
outcell: Cell volume (Ang**3)        :     93.1663
New_DM. Step:     4
Initializing Density Matrix...

siesta: Eharris(eV) =   -2966.748455


siesta: Eharris(eV) =   -2966.748455


siesta: Atomic forces (eV/Ang):
     1   -0.083044    0.167707   -0.038459
     2    0.025445   -0.036981    0.010690
     3   -1.041302    0.871353    2.379733
     4    0.759515   -0.854635   -1.495912
     5    2.849374   -6.431896    0.358706
     6    0.083537    4.042114   -6.513623
     7   -1.920454    1.323744    3.904247
     8   -2.457319    5.989627    0.200986
     9   -0.074586   -3.319474    5.485515
    10    1.870212   -1.872071   -4.145853
----------------------------------------
   Tot    0.011378   -0.120511    0.146031
----------------------------------------
   Max    6.513623
   Res    2.871840    sqrt( Sum f_i^2 / 3N )
----------------------------------------
   Max    6.513623    constrained

Stress-tensor-Voigt (kbar):      671.10      460.46      482.22       97.69       62.86       42.95
(Free)E + p*V (eV/cell)    -2976.6463
Target enthalpy (eV/cell)    -2945.3664

siesta: Stress tensor (static) (eV/Ang**3):
         0.422430    0.057833    0.026635
         0.057832    0.294050    0.041444
         0.026653    0.041446    0.305312

siesta: Pressure (static):       -545.70265465  kBar

siesta: Stress tensor (total) (eV/Ang**3):
         0.418862    0.060974    0.026789
         0.060973    0.287391    0.039230
         0.026807    0.039232    0.300976

siesta: Pressure (total):       -537.92532925  kBar

siesta: Temp_ion =     761.247 K
 iupos on opening:           17
 iupos on writing:           17
 istep, xa, va :            4  3.45261564788035893E-002 -6.50365209985991066E-002  1.09398169605303304E-002   12.508012694654116        5.6092558645402768        3.6597542661762064        6.2743372036739844        2.7752546644816123        1.8062301180025246       -6.2676183555842515       -2.7690376890297297       -1.7846195111873246        7.2463041919322801       0.55778396504836081        1.7793209000985462        6.2188173474257864        4.2015422360259214      -0.15025192976974128        5.2559411890733774        3.7483315942958133        3.9136190981229033       -7.3129578172238583      -0.56452308071202595       -1.8835687767295914       -6.2319613185512015       -4.1884205539551855       0.20630649496184328       -5.2164250174083691       -3.6790235268634786       -3.8908743638803283       8.59495406758119425E-003 -1.61824209037426565E-002  2.71920412553607960E-003 -2.80962092217949865E-003  2.94528807344940705E-003 -1.09237328472404274E-003  2.48900996620152280E-003 -4.89756585418851028E-003 -3.74942428130452558E-003 -1.12887314842381238E-003  6.45428403670475492E-003  1.01655231657203325E-002  2.06109630036971705E-003 -1.32086501356619077E-002 -1.28904012896479958E-002 -1.01345353980085966E-002  2.26874622947935110E-002  5.22680553335714941E-003 -5.51652379050333614E-003  1.75187547612838876E-002  1.73212750108597581E-002 -1.84346186976199478E-002  1.11886705914297224E-002 -1.27064405457868457E-002  6.86191249777695893E-003 -1.88164719339907853E-002  7.94050020700745943E-003  1.53821640232196123E-002 -6.29650363509979324E-004 -1.18553883919372046E-002

* Maximum dynamic memory allocated =     5 MB

siesta:                 ==============================
                            Begin MD step =      5
                        ==============================

outcoor: Atomic coordinates (fractional):                   
    0.00804421   -0.00873084    0.00149282   1       1  Mg
    0.49819891    0.50172223    0.49940158   1       2  Mg
    0.25473470    0.24847851    0.24647397   2       3  C
   -0.25580667   -0.24888072   -0.24352504   2       4  C
    0.53171179   -0.02737506    0.24280200   3       5  O
    0.23742281    0.53365783   -0.02050303   3       6  O
   -0.03636978    0.25513184    0.53404339   3       7  O
   -0.53167107    0.03222313   -0.25702743   3       8  O
   -0.24280210   -0.53507681    0.02815211   3       9  O
    0.03303131   -0.24770562   -0.53093969   3      10  O

outcell: Unit cell vectors (Ang):
        5.677830    0.000000    0.000000
        3.786009    4.231299    0.000000
        3.786009    1.692731    3.877957

outcell: Cell vector modules (Ang)   :    5.677830    5.677830    5.677830
outcell: Cell angles (23,13,12) (deg):     48.1790     48.1790     48.1790
outcell: Cell volume (Ang**3)        :     93.1663
New_DM. Step:     5
Initializing Density Matrix...

siesta: Eharris(eV) =   -2967.075002


siesta: Eharris(eV) =   -2967.075002


siesta: Atomic forces (eV/Ang):
     1   -0.116318    0.236322   -0.047403
     2    0.030908   -0.034025    0.009067
     3   -1.108282    0.974057    2.504606
     4    0.789755   -0.928745   -1.594892
     5    2.551573   -5.737497    0.419943
     6    0.095521    3.623934   -5.981223
     7   -1.576261    0.881942    3.179196
     8   -2.093808    5.261753    0.262251
     9   -0.096762   -2.780058    4.759692
    10    1.471710   -1.577704   -3.468828
----------------------------------------
   Tot   -0.051965   -0.080021    0.042410
----------------------------------------
   Max    5.981223
   Res    2.540773    sqrt( Sum f_i^2 / 3N )
----------------------------------------
   Max    5.981223    constrained

Stress-tensor-Voigt (kbar):      684.73      499.07      530.74       82.09       61.41       31.30
(Free)E + p*V (eV/cell)    -2978.7154
Target enthalpy (eV/cell)    -2945.4822

siesta: Stress tensor (static) (eV/Ang**3):
         0.431812    0.046565    0.019293
         0.046564    0.321141    0.039818
         0.019317    0.039822    0.336043

siesta: Pressure (static):       -581.59435108  kBar

siesta: Stress tensor (total) (eV/Ang**3):
         0.427372    0.051237    0.019514
         0.051236    0.311491    0.038326
         0.019537    0.038329    0.331260

siesta: Pressure (total):       -571.51489351  kBar

siesta: Temp_ion =    1024.222 K
 iupos on opening:           17
 iupos on writing:           17
 istep, xa, va :            5  4.29993120076436405E-002 -8.09725027066336145E-002  1.36080596112113442E-002   12.505236958336607        5.6121605867020410        3.6586731677893458        6.2743706101817267        2.7724836401451212        1.8080491282281852       -6.2669845296239677       -2.7646298549169694       -1.7779891106052677        7.2528613094853034       0.53445580442771934        1.7671147537003145        6.2088431605765013        4.2306026835676551      -0.15547574914740522        5.2475587362442226        3.7675875598968620        3.9367350631876845       -7.3351408229633037      -0.54400204816701236       -1.8958585907146341       -6.2252544583624863       -4.2122488830145208       0.22272809121684295       -5.1983285277800819       -3.6824958293508248       -3.9089913790336923       8.51859508619791719E-003 -1.60279807155928704E-002  2.68656394607939527E-003 -2.78794173492620491E-003  2.91812078287001682E-003 -1.08474584588006437E-003  8.68839299414860466E-004 -3.50596352618219543E-003 -6.85088464362032480E-005  3.86664590707485161E-005  5.10902714878092804E-003  7.83429254454741895E-003  5.11502406695246541E-003 -2.00876026689317706E-002 -1.24468166932816468E-002 -1.00307328421177962E-002  2.70172253638939590E-002 -1.84082085395070481E-003 -7.49266923403302948E-003  1.87617668581816083E-002  2.13228966288925778E-002 -2.10038393914101819E-002  1.75489574889685640E-002 -1.24412796264173585E-002  6.76328989978275050E-003 -2.22612795870969250E-002  1.37325713179209247E-002  1.72682967022953944E-002 -2.58047300828660904E-003 -1.61588144297384363E-002

* Maximum dynamic memory allocated =     5 MB

siesta: Program's energy decomposition (eV):
siesta: Ebs     =      -714.755278
siesta: Eions   =      5228.674091
siesta: Ena     =      1093.495874
siesta: Ekin    =      2394.509679
siesta: Enl     =      -403.173747
siesta: DEna    =      -103.588933
siesta: DUscf   =        24.883789
siesta: DUext   =         0.000000
siesta: Exc     =      -722.934798
siesta: eta*DQ  =         0.000000
siesta: Emadel  =         0.000000
siesta: Emeta   =         0.000000
siesta: Emolmec =         0.000000
siesta: Ekinion =         1.191473
siesta: Eharris =     -2965.883530
siesta: Etot    =     -2944.290756
siesta: FreeEng =     -2944.290756

siesta: Final energy (eV):
siesta:  Band Struct. =    -714.755278
siesta:       Kinetic =    2394.509679
siesta:       Hartree =    1091.794756
siesta:    Ext. field =       0.000000
siesta:   Exch.-corr. =    -722.934798
siesta:  Ion-electron =   -4161.366001
siesta:       Ion-ion =   -1547.485864
siesta:       Ekinion =       1.191473
siesta:         Total =   -2944.290756

siesta: Atomic forces (eV/Ang):
siesta:      1   -0.116318    0.236322   -0.047403
siesta:      2    0.030908   -0.034025    0.009067
siesta:      3   -1.108282    0.974057    2.504606
siesta:      4    0.789755   -0.928745   -1.594892
siesta:      5    2.551573   -5.737497    0.419943
siesta:      6    0.095521    3.623934   -5.981223
siesta:      7   -1.576261    0.881942    3.179196
siesta:      8   -2.093808    5.261753    0.262251
siesta:      9   -0.096762   -2.780058    4.759692
siesta:     10    1.471710   -1.577704   -3.468828
siesta: ----------------------------------------
siesta:    Tot   -0.051965   -0.080021    0.042410

siesta: Stress tensor (static) (eV/Ang**3):
siesta:     0.431812    0.046565    0.019293
siesta:     0.046564    0.321141    0.039818
siesta:     0.019317    0.039822    0.336043

siesta: Cell volume =         93.166340 Ang**3

siesta: Pressure (static):
siesta:                Solid            Molecule  Units
siesta:          -0.00395352         -0.00556118  Ry/Bohr**3
siesta:          -0.36299872         -0.51060879  eV/Ang**3
siesta:        -581.59435108       -818.09431091  kBar
(Free)E+ p_basis*V_orbitals  =       -2944.287932
(Free)Eharris+ p_basis*V_orbitals  =       -2929.288158

* Maximum dynamic memory allocated : Node    0 =     5 MB
* Maximum dynamic memory allocated : Node    1 =     5 MB

* Maximum memory occured during redistribXZ                   

timer: CPU execution times:
timer:  Routine       Calls   Time/call    Tot.time        %
timer:  siesta            1       7.245       7.245   100.00
timer:  Setup             1       0.987       0.987    13.63
timer:  bands             1       0.001       0.001     0.01
timer:  writewave         1       0.002       0.002     0.03
timer:  KSV_init          1       0.000       0.000     0.00
timer:  IterMD            5       1.247       6.236    86.07
timer:  hsparse           5       0.032       0.160     2.21
timer:  overlap           5       0.022       0.110     1.51
timer:  IterSCF           5       0.614       3.070    42.38
timer:  kinefsm          10       0.012       0.120     1.65
timer:  nlefsm           10       0.071       0.711     9.81
timer:  DHSCF            10       0.480       4.798    66.23
timer:  DHSCF1            1       0.135       0.135     1.86
timer:  DHSCF2            5       0.312       1.561    21.55
timer:  REORD            90       0.000       0.009     0.13
timer:  POISON           15       0.016       0.245     3.39
timer:  DHSCF3           10       0.122       1.220    16.84
timer:  rhoofd           10       0.054       0.542     7.48
timer:  cellXC           15       0.020       0.298     4.11
timer:  vmat             10       0.029       0.290     4.00
timer:  MolMec           10       0.000       0.000     0.00
timer:  diagon            5       0.005       0.026     0.35
timer:  r-eigvec          5       0.005       0.023     0.32
timer:  r-buildHS         5       0.000       0.000     0.00
timer:  rdiag             5       0.005       0.023     0.32
timer:  rdiag1            5       0.000       0.002     0.03
timer:  rdiag2            5       0.000       0.002     0.02
timer:  rdiag3            5       0.003       0.015     0.21
timer:  rdiag4            5       0.000       0.001     0.02
timer:  r-buildD          5       0.000       0.001     0.01
timer:  DHSCF4            5       0.375       1.875    25.87
timer:  dfscf             5       0.242       1.210    16.70
timer:  overfsm           5       0.005       0.023     0.32
timer:  optical           1       0.012       0.012     0.16
  

elaps: ELAPSED times:
elaps:  Routine       Calls   Time/call    Tot.time        %
elaps:  siesta            1       3.714       3.714    99.97
elaps:  Setup             1       0.514       0.514    13.84
elaps:  bands             1       0.000       0.000     0.00
elaps:  writewave         1       0.001       0.001     0.03
elaps:  KSV_init          1       0.000       0.000     0.00
elaps:  IterMD            5       0.637       3.187    85.79
elaps:  hsparse           5       0.018       0.090     2.42
elaps:  overlap           5       0.014       0.070     1.88
elaps:  IterSCF           5       0.314       1.572    42.31
elaps:  kinefsm          10       0.008       0.079     2.13
elaps:  nlefsm           10       0.038       0.383    10.31
elaps:  DHSCF            10       0.245       2.449    65.92
elaps:  DHSCF1            1       0.070       0.070     1.88
elaps:  DHSCF2            5       0.160       0.799    21.51
elaps:  REORD            90       0.000       0.004     0.11
elaps:  POISON           15       0.008       0.127     3.42
elaps:  DHSCF3           10       0.062       0.624    16.80
elaps:  rhoofd           10       0.028       0.279     7.51
elaps:  cellXC           15       0.011       0.158     4.25
elaps:  vmat             10       0.015       0.146     3.93
elaps:  MolMec           10       0.000       0.000     0.00
elaps:  diagon            5       0.003       0.013     0.35
elaps:  r-eigvec          5       0.002       0.011     0.30
elaps:  r-buildHS         5       0.000       0.000     0.00
elaps:  rdiag             5       0.002       0.011     0.30
elaps:  rdiag1            5       0.000       0.001     0.03
elaps:  rdiag2            5       0.000       0.000     0.00
elaps:  rdiag3            5       0.002       0.009     0.24
elaps:  rdiag4            5       0.000       0.000     0.00
elaps:  r-buildD          5       0.000       0.000     0.00
elaps:  DHSCF4            5       0.190       0.950    25.57
elaps:  dfscf             5       0.123       0.616    16.58
elaps:  overfsm           5       0.003       0.014     0.38
elaps:  optical           1       0.000       0.000     0.00
  
>> End of run:  30-JUN-2010  16:51:31
