Siesta Version: siesta-2.0.1
Architecture  : powerpc-apple-darwin8.8.0--unknown
Compiler flags: g95 -g -O2
SERIAL version
NetCDF-capable

* Running in serial mode
>> Start of run:   5-DEC-2006  13:32:13

                           ***********************       
                           *  WELCOME TO SIESTA  *       
                           ***********************       

reinit: Reading from standard input
************************** Dump of input data file ****************************
#
# MgCO3 in primitive cell. SZ. Nose-Parrinello-Rahman. Harris
#
SystemName	MgCo3 R-3c Harris -- SZ, 50 R -- NPR at 10 Gpa, 500K
SystemLabel	md_npr
NumberOfSpecies		3
NumberOfAtoms	       10
%block ChemicalSpeciesLabel
      1      12     Mg
      2       6     C
      3       8     O
%endblock ChemicalSpeciesLabel
PAO.BasisSize  SZ
Diag.Divide-and-Conquer F
# Rhombohedral primitive cell
# (HEX 3-fold cell had A=4.635 and C=15.023, so alpha=48.179 degrees
#  and a=5.67783 Ang)
LatticeConstant     5.67783 Ang
%block LatticeParameters
1.0 1.0 1.0 48.179 48.179 48.179
%endblock LatticeParameters
AtomicCoordinatesFormat    Fractional
%block AtomicCoordinatesAndAtomicSpecies
  0.0         0.0         0.0      1
  0.5         0.5         0.5      1
  0.25        0.25        0.25     2
 -0.25       -0.25       -0.25     2
  0.5274     -0.0274      0.25     3
  0.25        0.5274     -0.0274   3
 -0.0274      0.25        0.5274   3
 -0.5274      0.0274     -0.25     3
 -0.25       -0.5274      0.0274   3
  0.0274     -0.25       -0.5274   3
%endblock AtomicCoordinatesAndAtomicSpecies
kgrid_cutoff 2.0 Ang
Solution.Method       diagon
MeshCutoff             50 Ry
DM.NumberBroyden       4
DM.UseSaveDM           T
DM.MixingWeight        0.1         # New DM amount for next SCF cycle
DM.Tolerance           1.d-3       # Tolerance in maximum difference
                                   # between input and output DM
MaxSCFIterations       20
WriteCoorStep      .true.
WriteForces        .true.
HarrisFunctional T
WriteMDHistory     .true.
MD.UseSaveXV       T
MD.TypeOfRun         NoseParrinelloRahman
MD.Target-pressure   10.0 GPa
MD.Target-temperature   500 K
MD.Initial-temperature   300 K
MD.Initial.Time.Step      1
MD.Final.Time.Step        10
MD.Length.Time.Step       0.3 fs
************************** End of input data file *****************************

reinit: -----------------------------------------------------------------------
reinit: System Name: MgCo3 R-3c Harris -- SZ, 50 R -- NPR at 10 Gpa, 500K       
reinit: -----------------------------------------------------------------------
reinit: System Label: md_npr                                                      
reinit: -----------------------------------------------------------------------

initatom: Reading input for the pseudopotentials and atomic orbitals ----------
 Species number:  1  Label: Mg Atomic number: 12
 Species number:  2  Label: C Atomic number: 6
 Species number:  3  Label: O Atomic number: 8
Ground state valence configuration:   3s02
Reading pseudopotential information in formatted form from Mg.psf
Ground state valence configuration:   2s02  2p02
Reading pseudopotential information in formatted form from C.psf
Ground state valence configuration:   2s02  2p04
Reading pseudopotential information in formatted form from O.psf
For Mg, standard SIESTA heuristics set lmxkb to 1
 (one more than the basis l, including polarization orbitals).
Use PS.lmax or PS.KBprojectors blocks to override.
For C, standard SIESTA heuristics set lmxkb to 2
 (one more than the basis l, including polarization orbitals).
Use PS.lmax or PS.KBprojectors blocks to override.
For O, standard SIESTA heuristics set lmxkb to 2
 (one more than the basis l, including polarization orbitals).
Use PS.lmax or PS.KBprojectors blocks to override.

<basis_specs>
===============================================================================
Mg                   Z=  12    Mass=  24.310        Charge=  .00000    
Lmxo=0 Lmxkb=1     BasisType=split      Semic=F
L=0  Nsemic=0  Cnfigmx=3
          n=1  nzeta=1  polorb=0
               vcte:    .00000    
               rinn:    .00000    
                rcs:    .00000    
            lambdas:    1.0000    
-------------------------------------------------------------------------------
L=0  Nkbl=1  erefs: 0.17977+309
L=1  Nkbl=1  erefs: 0.17977+309
===============================================================================
</basis_specs>

atom: Called for Mg  (Z =  12)

read_vps: Pseudopotential generation method:
read_vps: ATM3      Troullier-Martins                       

read_vps: Valence configuration (pseudopotential and basis set generation):
3s( 2.00) rc: 2.59
3p( 0.00) rc: 2.59
Total valence charge:    2.00000

xc_check: Exchange-correlation functional:
xc_check: Ceperley-Alder
V l=0 = -2*Zval/r beyond r=  3.5878
V l=1 = -2*Zval/r beyond r=  3.5878
All V_l potentials equal beyond r=  2.5600
This should be close to max(r_c) in ps generation
All pots = -2*Zval/r beyond r=  3.5878
Using large-core scheme for Vlocal

atom: Estimated core radius    3.58779

atom: Including non-local core corrections could be a good idea
atom: Maximum radius for 4*pi*r*r*local-pseudopot. charge    3.91588
atom: Maximum radius for r*vlocal+2*Zval:    3.63292
GHOST: No ghost state for L =  0
GHOST: No ghost state for L =  1

KBgen: Kleinman-Bylander projectors: 
   l= 0   rc=  2.657845   el= -0.351328   Ekb=  2.184400   kbcos=  0.257081
   l= 1   rc=  2.657845   el= -0.101748   Ekb=  0.525536   kbcos=  0.270508

KBgen: Total number of  Kleinman-Bylander projectors:    4
atom: -------------------------------------------------------------------------

atom: SANKEY-TYPE ORBITALS:

SPLIT: Orbitals with angular momentum L= 0

SPLIT: Basis orbitals for state 3s

SPLIT: PAO cut-off radius determined from an
SPLIT: energy shift=  0.020000 Ry

   izeta = 1
                 lambda =    1.000000
                     rc =    6.619780
                 energy =   -0.332103
                kinetic =    0.289627
    potential(screened) =   -0.621729
       potential(ionic) =   -1.387191
atom: Total number of Sankey-type orbitals:  1

atm_pop: Valence configuration(local Pseudopot. screening):
 3s( 2.00)                                                            
Vna: chval, zval:    2.00000   2.00000

Vna:  Cut-off radius for the neutral-atom potential:   6.619780

atom: _________________________________________________________________________

<basis_specs>
===============================================================================
C                    Z=   6    Mass=  12.010        Charge=  .00000    
Lmxo=1 Lmxkb=2     BasisType=split      Semic=F
L=0  Nsemic=0  Cnfigmx=2
          n=1  nzeta=1  polorb=0
               vcte:    .00000    
               rinn:    .00000    
                rcs:    .00000    
            lambdas:    1.0000    
L=1  Nsemic=0  Cnfigmx=2
          n=1  nzeta=1  polorb=0
               vcte:    .00000    
               rinn:    .00000    
                rcs:    .00000    
            lambdas:    1.0000    
-------------------------------------------------------------------------------
L=0  Nkbl=1  erefs: 0.17977+309
L=1  Nkbl=1  erefs: 0.17977+309
L=2  Nkbl=1  erefs: 0.17977+309
===============================================================================
</basis_specs>

atom: Called for C   (Z =   6)

read_vps: Pseudopotential generation method:
read_vps: ATM3      Troullier-Martins                       

read_vps: Valence configuration (pseudopotential and basis set generation):
2s( 2.00) rc: 1.49
2p( 2.00) rc: 1.52
3d( 0.00) rc: 1.58
Total valence charge:    4.00000

xc_check: Exchange-correlation functional:
xc_check: Ceperley-Alder
V l=0 = -2*Zval/r beyond r=  1.4666
V l=1 = -2*Zval/r beyond r=  1.5038
V l=2 = -2*Zval/r beyond r=  1.5612
All V_l potentials equal beyond r=  1.5612
This should be close to max(r_c) in ps generation
All pots = -2*Zval/r beyond r=  1.5612

VLOCAL1: 99.0% of the norm of Vloc inside     17.809 Ry
VLOCAL1: 99.9% of the norm of Vloc inside     40.586 Ry
atom: Maximum radius for 4*pi*r*r*local-pseudopot. charge    1.88329
atom: Maximum radius for r*vlocal+2*Zval:    1.62091
GHOST: No ghost state for L =  0
GHOST: No ghost state for L =  1
GHOST: No ghost state for L =  2

KBgen: Kleinman-Bylander projectors: 
   l= 0   rc=  1.747182   el= -1.001947   Ekb=  5.181700   kbcos=  0.300603
   l= 1   rc=  1.747182   el= -0.398598   Ekb= -4.328763   kbcos= -0.367074
   l= 2   rc=  1.955272   el=  0.002326   Ekb= -1.016175   kbcos= -0.009979

KBgen: Total number of  Kleinman-Bylander projectors:    9
atom: -------------------------------------------------------------------------

atom: SANKEY-TYPE ORBITALS:

SPLIT: Orbitals with angular momentum L= 0

SPLIT: Basis orbitals for state 2s

SPLIT: PAO cut-off radius determined from an
SPLIT: energy shift=  0.020000 Ry

   izeta = 1
                 lambda =    1.000000
                     rc =    4.191849
                 energy =   -0.983897
                kinetic =    0.886956
    potential(screened) =   -1.870853
       potential(ionic) =   -5.479661

SPLIT: Orbitals with angular momentum L= 1

SPLIT: Basis orbitals for state 2p

SPLIT: PAO cut-off radius determined from an
SPLIT: energy shift=  0.020000 Ry

   izeta = 1
                 lambda =    1.000000
                     rc =    4.870301
                 energy =   -0.379093
                kinetic =    2.545357
    potential(screened) =   -2.924450
       potential(ionic) =   -6.433151
atom: Total number of Sankey-type orbitals:  4

atm_pop: Valence configuration(local Pseudopot. screening):
 2s( 2.00)                                                            
 2p( 2.00)                                                            
Vna: chval, zval:    4.00000   4.00000

Vna:  Cut-off radius for the neutral-atom potential:   4.870301

atom: _________________________________________________________________________

<basis_specs>
===============================================================================
O                    Z=   8    Mass=  16.000        Charge=  .00000    
Lmxo=1 Lmxkb=2     BasisType=split      Semic=F
L=0  Nsemic=0  Cnfigmx=2
          n=1  nzeta=1  polorb=0
               vcte:    .00000    
               rinn:    .00000    
                rcs:    .00000    
            lambdas:    1.0000    
L=1  Nsemic=0  Cnfigmx=2
          n=1  nzeta=1  polorb=0
               vcte:    .00000    
               rinn:    .00000    
                rcs:    .00000    
            lambdas:    1.0000    
-------------------------------------------------------------------------------
L=0  Nkbl=1  erefs: 0.17977+309
L=1  Nkbl=1  erefs: 0.17977+309
L=2  Nkbl=1  erefs: 0.17977+309
===============================================================================
</basis_specs>

atom: Called for O   (Z =   8)

read_vps: Pseudopotential generation method:
read_vps: ATM3      Troullier-Martins                       

read_vps: Valence configuration (pseudopotential and basis set generation):
2s( 2.00) rc: 1.14
2p( 4.00) rc: 1.14
3d( 0.00) rc: 1.14
Total valence charge:    6.00000

xc_check: Exchange-correlation functional:
xc_check: Ceperley-Alder
V l=0 = -2*Zval/r beyond r=  1.1278
V l=1 = -2*Zval/r beyond r=  1.1278
V l=2 = -2*Zval/r beyond r=  1.1278
All V_l potentials equal beyond r=  1.1278
This should be close to max(r_c) in ps generation
All pots = -2*Zval/r beyond r=  1.1278

VLOCAL1: 99.0% of the norm of Vloc inside     34.126 Ry
VLOCAL1: 99.9% of the norm of Vloc inside     77.774 Ry
atom: Maximum radius for 4*pi*r*r*local-pseudopot. charge    1.37759
atom: Maximum radius for r*vlocal+2*Zval:    1.18566
GHOST: No ghost state for L =  0
GHOST: No ghost state for L =  1
GHOST: No ghost state for L =  2

KBgen: Kleinman-Bylander projectors: 
   l= 0   rc=  1.294105   el= -1.742414   Ekb=  9.135903   kbcos=  0.326910
   l= 1   rc=  1.294105   el= -0.676589   Ekb= -8.124878   kbcos= -0.395047
   l= 2   rc=  1.448233   el=  0.002386   Ekb= -2.039267   kbcos= -0.003484

KBgen: Total number of  Kleinman-Bylander projectors:    9
atom: -------------------------------------------------------------------------

atom: SANKEY-TYPE ORBITALS:

SPLIT: Orbitals with angular momentum L= 0

SPLIT: Basis orbitals for state 2s

SPLIT: PAO cut-off radius determined from an
SPLIT: energy shift=  0.020000 Ry

   izeta = 1
                 lambda =    1.000000
                     rc =    3.305093
                 energy =   -1.723766
                kinetic =    1.614911
    potential(screened) =   -3.338677
       potential(ionic) =  -11.304675

SPLIT: Orbitals with angular momentum L= 1

SPLIT: Basis orbitals for state 2p

SPLIT: PAO cut-off radius determined from an
SPLIT: energy shift=  0.020000 Ry

   izeta = 1
                 lambda =    1.000000
                     rc =    3.937239
                 energy =   -0.658841
                kinetic =    5.005986
    potential(screened) =   -5.664827
       potential(ionic) =  -13.452360
atom: Total number of Sankey-type orbitals:  4

atm_pop: Valence configuration(local Pseudopot. screening):
 2s( 2.00)                                                            
 2p( 4.00)                                                            
Vna: chval, zval:    6.00000   6.00000

Vna:  Cut-off radius for the neutral-atom potential:   3.937239

atom: _________________________________________________________________________

prinput: Basis input ----------------------------------------------------------

PAO.BasisType split     

%block ChemicalSpeciesLabel
    1   12 Mg                      # Species index, atomic number, species label
    2    6 C                       # Species index, atomic number, species label
    3    8 O                       # Species index, atomic number, species label
%endblock ChemicalSpeciesLabel

%block PAO.Basis                 # Define Basis set
Mg          1                    # Species label, number of l-shells
 n=3   0   1                         # n, l, Nzeta 
   6.620   
   1.000   
C           2                    # Species label, number of l-shells
 n=2   0   1                         # n, l, Nzeta 
   4.192   
   1.000   
 n=2   1   1                         # n, l, Nzeta 
   4.870   
   1.000   
O           2                    # Species label, number of l-shells
 n=2   0   1                         # n, l, Nzeta 
   3.305   
   1.000   
 n=2   1   1                         # n, l, Nzeta 
   3.937   
   1.000   
%endblock PAO.Basis

prinput: ----------------------------------------------------------------------

Dumping basis to NetCDF file Mg.ion.nc
Dumping basis to NetCDF file C.ion.nc
Dumping basis to NetCDF file O.ion.nc

siesta: ******************** Simulation parameters ****************************
siesta:
siesta: The following are some of the parameters of the simulation.
siesta: A complete list of the parameters used, including default values,
siesta: can be found in file out.fdf
siesta:
coor:   Atomic-coordinates input format  =     Fractional
redata: Number of spin components        =     1
redata: Long output                      =     F
redata: Number of Atomic Species         =     3
redata: Charge density info will appear in .RHO file
redata: Write Mulliken Pop.              =     NO
redata: Mesh Cutoff                      =    50.0000  Ry
redata: Net charge of the system         =     0.0000 |e|
redata: Max. number of SCF Iter          =    20
redata: Broyden mixing with     4 saved histories.
redata: Mix DM in first SCF step ?       =     F
redata: Write Pulay info on disk?        =     F
redata: New DM Mixing Weight             =     0.1000
redata: New DM Occupancy tolerance       = 0.000000000001
redata: No kicks to SCF
redata: DM Mixing Weight for Kicks       =     0.5000
redata: DM Tolerance for SCF             =     0.001000
redata: Require Energy convergence for SCF =     F
redata: DM Energy tolerance for SCF      =     0.000100 eV
redata: Using Saved Data (generic)   =     F
redata: Use continuation files for DM    =     T
redata: Neglect nonoverlap interactions  =     F
redata: Method of Calculation            =     Diagonalization
redata: Divide and Conquer               =     F
redata: Electronic Temperature           =     0.0019  Ry
redata: Fix the spin of the system       =     F
redata: Dynamics option                  =     Nose-Parrinello-Rahman MD run
redata: Initial MD time step             =     1
redata:   Final MD time step             =    10
redata: Length of MD time step           =     0.3000  fs
redata: Initial Temperature of MD run    =   300.0000  K
redata: Perform a MD quench              =     F
redata: Nose mass                        =   100.0000  Ry/fs**2
redata: Parrinello-Rahman mass           =   100.0000  Ry/fs**2
redata: Target Temperature               =   500.0000  Kelvin
redata: Target Pressure                  =     0.0007  Ry/Bohr**3
redata: ***********************************************************************

siesta: WARNING: XV file not found

siesta: Atomic coordinates (Bohr) and species
siesta:      0.00000   0.00000   0.00000  1        1
siesta:     12.51930   5.59740   3.66414  1        2
siesta:      6.25965   2.79870   1.83207  2        3
siesta:     -6.25965  -2.79870  -1.83207  2        4
siesta:      7.25136   0.58061   1.83207  3        5
siesta:      6.25965   4.12944  -0.20079  3        6
siesta:      5.26794   3.68605   3.86493  3        7
siesta:     -7.25136  -0.58061  -1.83207  3        8
siesta:     -6.25965  -4.12944   0.20079  3        9
siesta:     -5.26794  -3.68605  -3.86493  3       10

initatomlists: Number of atoms, orbitals, and projectors:     10    34    80

siesta: System type = bulk      

siesta: k-grid: Number of k-points =     1
siesta: k-grid: Cutoff (effective) =     2.317 Ang
siesta: k-grid: Supercell and displacements
siesta: k-grid:   -1   0   1      0.000
siesta: k-grid:    0  -1   1      0.000
siesta: k-grid:    0   0   1      0.000

* Maximum dynamic memory allocated =     1 MB

siesta:                 ==============================
                            Begin MD step =      1
                        ==============================

outcoor: Atomic coordinates (fractional):                   
    0.00000000    0.00000000    0.00000000   1  Mg         1
    0.50000000    0.50000000    0.50000000   1  Mg         2
    0.25000000    0.25000000    0.25000000   2  C          3
   -0.25000000   -0.25000000   -0.25000000   2  C          4
    0.52740000   -0.02740000    0.25000000   3  O          5
    0.25000000    0.52740000   -0.02740000   3  O          6
   -0.02740000    0.25000000    0.52740000   3  O          7
   -0.52740000    0.02740000   -0.25000000   3  O          8
   -0.25000000   -0.52740000    0.02740000   3  O          9
    0.02740000   -0.25000000   -0.52740000   3  O         10

outcell: Unit cell vectors (Ang):
        5.677830    0.000000    0.000000
        3.786009    4.231299    0.000000
        3.786009    1.692731    3.877957

outcell: Cell vector modules (Ang)   :    5.677830    5.677830    5.677830
outcell: Cell angles (23,13,12) (deg):     48.1790     48.1790     48.1790
outcell: Cell volume (Ang**3)        :     93.1663

InitMesh: MESH =    24 x    24 x    24 =       13824
InitMesh: Mesh cutoff (required, used) =    50.000    63.482 Ry

* Maximum dynamic memory allocated =     4 MB

stepf: Fermi-Dirac step function
 Broyden: No of relevant DM elements:  1156
 maxit for broyden:  4
 cycle on maxit:  T
 variable weight:  T
 initial alpha:  0.1

siesta: Program's energy decomposition (eV):
siesta: Eions   =      5228.674091
siesta: Ena     =      1092.429444
siesta: Ekin    =      2069.792750
siesta: Enl     =      -254.036133
siesta: DEna    =        15.961142
siesta: DUscf   =         0.158223
siesta: DUext   =         0.000000
siesta: Exc     =      -679.402762
siesta: eta*DQ  =         0.000000
siesta: Emadel  =         0.000000
siesta: Ekinion =         0.000000
siesta: Eharris =     -2966.596224
siesta: Etot    =     -2983.771427
siesta: FreeEng =     -2983.771427

siesta: Eharris(eV) =   -2966.596224


siesta: Eharris(eV) =   -2966.596224

timer: Routine,Calls,Time,% = IterSCF        1       3.162  49.82
elaps: Routine,Calls,Wall,% = IterSCF        1       3.431  46.68

siesta: E_KS - E_eggbox =     -2945.6640

siesta: Atomic forces (eV/Ang):
     1   -0.000000   -0.000000    0.000000
     2    0.000047    0.000004    0.000009
     3    0.000454    0.000036    0.000079
     4   -0.000454   -0.000035   -0.000079
     5    2.998816   -6.707234   -0.000006
     6   -0.000009    4.024015   -6.147137
     7   -2.998819    2.683233    6.147160
     8   -2.998818    6.707235    0.000007
     9    0.000009   -4.024015    6.147138
    10    2.998821   -2.683233   -6.147162
----------------------------------------
   Tot    0.000046    0.000005    0.000008
----------------------------------------
   Max    6.707235
   Res    3.285728    sqrt( Sum f_i^2 / 3N )
----------------------------------------
   Max    6.707235    constrained

Stress-tensor-Voigt (kbar):      720.75      465.19      428.73      142.67       41.69       93.36
Target enthalpy (eV/cell)    -2939.8491

siesta: Stress tensor (static) (eV/Ang**3):
         0.449995    0.089162    0.058367
         0.089162    0.290438    0.026096
         0.058367    0.026096    0.267656

siesta: Pressure (static):       -538.38520849  kBar

siesta: Stress tensor (total) (eV/Ang**3):
         0.449851    0.089046    0.058270
         0.089046    0.290345    0.026018
         0.058270    0.026018    0.267592

siesta: Pressure (total):       -538.22390685  kBar

siesta: Temp_ion =     300.018 K

* Maximum dynamic memory allocated =     4 MB

siesta:                 ==============================
                            Begin MD step =      2
                        ==============================

outcoor: Atomic coordinates (fractional):                   
    0.00044662   -0.00048452    0.00007917   1  Mg         1
    0.49992206    0.50007267    0.49996769   1  Mg         2
    0.25036147    0.24990785    0.24971152   2  C          3
   -0.25035879   -0.24995247   -0.24959407   2  C          4
    0.52730340   -0.02706523    0.24960720   3  O          5
    0.24934582    0.52735088   -0.02666739   3  O          6
   -0.02758048    0.25026292    0.52746795   3  O          7
   -0.52727269    0.02730155   -0.25037900   3  O          8
   -0.24959368   -0.52749733    0.02710283   3  O          9
    0.02742626   -0.24989632   -0.52729591   3  O         10

outcell: Unit cell vectors (Ang):
        5.677710    0.000072    0.000047
        3.785983    4.231160    0.000048
        3.785983    1.692720    3.877812

outcell: Cell vector modules (Ang)   :    5.677710    5.677709    5.677710
outcell: Cell angles (23,13,12) (deg):     48.1775     48.1775     48.1775
outcell: Cell volume (Ang**3)        :     93.1559

InitMesh: MESH =    24 x    24 x    24 =       13824
InitMesh: Mesh cutoff (required, used) =    50.000    63.484 Ry

siesta: Eharris(eV) =   -2966.568720


siesta: Eharris(eV) =   -2966.568720


siesta: Atomic forces (eV/Ang):
     1   -0.007427    0.008488   -0.007382
     2    0.001444    0.002533   -0.001280
     3   -0.098709    0.078625    0.225094
     4    0.071515   -0.079713   -0.141766
     5    3.036748   -6.850061    0.091177
     6    0.053514    4.046268   -6.358977
     7   -2.959701    2.609735    6.092586
     8   -3.063494    6.819819    0.077644
     9   -0.037510   -4.022933    6.288108
    10    2.970700   -2.665335   -6.087900
----------------------------------------
   Tot   -0.032921   -0.052574    0.177304
----------------------------------------
   Max    6.850061
   Res    3.318493    sqrt( Sum f_i^2 / 3N )
----------------------------------------
   Max    6.850061    constrained

Stress-tensor-Voigt (kbar):      719.12      456.52      421.49      144.87       45.46       93.54
Target enthalpy (eV/cell)    -2939.8310

siesta: Stress tensor (static) (eV/Ang**3):
         0.448979    0.090538    0.058477
         0.090537    0.285028    0.028450
         0.058478    0.028449    0.263137

siesta: Pressure (static):       -532.53932848  kBar

siesta: Stress tensor (total) (eV/Ang**3):
         0.448834    0.090421    0.058381
         0.090421    0.284934    0.028372
         0.058382    0.028372    0.263073

siesta: Pressure (total):       -532.37800888  kBar

siesta: Temp_ion =     277.715 K

* Maximum dynamic memory allocated =     4 MB

siesta:                 ==============================
                            Begin MD step =      3
                        ==============================

outcoor: Atomic coordinates (fractional):                   
    0.00089325   -0.00096903    0.00015830   1  Mg         1
    0.49984410    0.50014537    0.49993537   1  Mg         2
    0.25071922    0.24981535    0.24942716   2  C          3
   -0.25071479   -0.24990524   -0.24919069   2  C          4
    0.52729328   -0.02681815    0.24921559   3  O          5
    0.24869301    0.52738863   -0.02602300   3  O          6
   -0.02784513    0.25052526    0.52762057   3  O          7
   -0.52723277    0.02728953   -0.25075698   3  O          8
   -0.24918842   -0.52768088    0.02689298   3  O          9
    0.02753720   -0.24979272   -0.52727641   3  O         10

outcell: Unit cell vectors (Ang):
        5.677469    0.000216    0.000141
        3.785930    4.230886    0.000142
        3.785931    1.692697    3.877523

outcell: Cell vector modules (Ang)   :    5.677469    5.677470    5.677471
outcell: Cell angles (23,13,12) (deg):     48.1746     48.1746     48.1746
outcell: Cell volume (Ang**3)        :     93.1350

InitMesh: MESH =    24 x    24 x    24 =       13824
InitMesh: Mesh cutoff (required, used) =    50.000    63.487 Ry

siesta: Eharris(eV) =   -2966.557333


siesta: Eharris(eV) =   -2966.557333


siesta: Atomic forces (eV/Ang):
     1   -0.008640    0.020734   -0.009484
     2    0.003472   -0.003987    0.002638
     3   -0.193634    0.154283    0.442588
     4    0.139997   -0.156209   -0.276383
     5    3.063163   -6.929588    0.149586
     6    0.093505    4.060500   -6.493645
     7   -2.913366    2.528243    6.023807
     8   -3.083558    6.874371    0.122782
     9   -0.063506   -4.011110    6.350740
    10    2.935109   -2.641449   -6.014484
----------------------------------------
   Tot   -0.027458   -0.104212    0.298145
----------------------------------------
   Max    6.929588
   Res    3.329685    sqrt( Sum f_i^2 / 3N )
----------------------------------------
   Max    6.929588    constrained

Stress-tensor-Voigt (kbar):      719.76      453.07      422.66      145.06       48.92       91.94
Target enthalpy (eV/cell)    -2939.8198

siesta: Stress tensor (static) (eV/Ang**3):
         0.449435    0.090646    0.057432
         0.090645    0.282838    0.030561
         0.057434    0.030560    0.263810

siesta: Pressure (static):       -531.97289573  kBar

siesta: Stress tensor (total) (eV/Ang**3):
         0.449231    0.090537    0.057383
         0.090536    0.282779    0.030535
         0.057386    0.030534    0.263799

siesta: Pressure (total):       -531.82664326  kBar

siesta: Temp_ion =     269.181 K

* Maximum dynamic memory allocated =     4 MB

siesta:                 ==============================
                            Begin MD step =      4
                        ==============================

outcoor: Atomic coordinates (fractional):                   
    0.00133990   -0.00145350    0.00023735   1  Mg         1
    0.49976615    0.50021807    0.49990306   1  Mg         2
    0.25106960    0.24972216    0.24915089   2  C          3
   -0.25106533   -0.24985861   -0.24879230   2  C          4
    0.52737028   -0.02666007    0.24882594   3  O          5
    0.24804248    0.52751422   -0.02546866   3  O          6
   -0.02819250    0.25078638    0.52785696   3  O          7
   -0.52728116    0.02736440   -0.25113335   3  O          8
   -0.24878488   -0.52795089    0.02677134   3  O          9
    0.02773190   -0.24968932   -0.52734051   3  O         10

outcell: Unit cell vectors (Ang):
        5.677109    0.000429    0.000283
        3.785850    4.230477    0.000282
        3.785853    1.692661    3.877090

outcell: Cell vector modules (Ang)   :    5.677109    5.677111    5.677113
outcell: Cell angles (23,13,12) (deg):     48.1703     48.1703     48.1703
outcell: Cell volume (Ang**3)        :     93.1039

InitMesh: MESH =    24 x    24 x    24 =       13824
InitMesh: Mesh cutoff (required, used) =    50.000    63.492 Ry

siesta: Eharris(eV) =   -2966.562417


siesta: Eharris(eV) =   -2966.562417


siesta: Atomic forces (eV/Ang):
     1   -0.018250    0.029385   -0.014524
     2    0.011002   -0.008185    0.003258
     3   -0.288147    0.232307    0.658550
     4    0.210073   -0.233473   -0.413022
     5    3.078976   -6.986597    0.207048
     6    0.134009    4.061104   -6.598349
     7   -2.854022    2.428382    5.939160
     8   -3.095957    6.908543    0.165812
     9   -0.093760   -3.975758    6.395775
    10    2.892180   -2.611182   -5.927234
----------------------------------------
   Tot   -0.023895   -0.155473    0.416474
----------------------------------------
   Max    6.986597
   Res    3.331260    sqrt( Sum f_i^2 / 3N )
----------------------------------------
   Max    6.986597    constrained

Stress-tensor-Voigt (kbar):      720.12      451.53      425.11      144.73       52.16       90.02
Target enthalpy (eV/cell)    -2939.8162

siesta: Stress tensor (static) (eV/Ang**3):
         0.449735    0.090427    0.056163
         0.090427    0.281849    0.032547
         0.056167    0.032546    0.265333

siesta: Pressure (static):       -532.41839871  kBar

siesta: Stress tensor (total) (eV/Ang**3):
         0.449462    0.090334    0.056183
         0.090334    0.281817    0.032554
         0.056187    0.032553    0.265332

siesta: Pressure (total):       -532.25476902  kBar

siesta: Temp_ion =     274.790 K

* Maximum dynamic memory allocated =     4 MB

siesta:                 ==============================
                            Begin MD step =      5
                        ==============================

outcoor: Atomic coordinates (fractional):                   
    0.00178652   -0.00193789    0.00031631   1  Mg         1
    0.49968828    0.50029071    0.49987077   1  Mg         2
    0.25140900    0.24962800    0.24888670   2  C          3
   -0.25140768   -0.24981286   -0.24840138   2  C          4
    0.52753476   -0.02659208    0.24843900   3  O          5
    0.24739512    0.52772831   -0.02500579   3  O          6
   -0.02862080    0.25104553    0.52817601   3  O          7
   -0.52741855    0.02752644   -0.25150757   3  O          8
   -0.24838383   -0.52830725    0.02673854   3  O          9
    0.02800928   -0.24958618   -0.52748705   3  O         10

outcell: Unit cell vectors (Ang):
        5.676629    0.000714    0.000474
        3.785742    4.229935    0.000467
        3.785750    1.692610    3.876513

outcell: Cell vector modules (Ang)   :    5.676629    5.676636    5.676635
outcell: Cell angles (23,13,12) (deg):     48.1646     48.1644     48.1646
outcell: Cell volume (Ang**3)        :     93.0624

InitMesh: MESH =    24 x    24 x    24 =       13824
InitMesh: Mesh cutoff (required, used) =    50.000    63.499 Ry

siesta: Eharris(eV) =   -2966.583995


siesta: Eharris(eV) =   -2966.583995


siesta: Atomic forces (eV/Ang):
     1   -0.026712    0.045838   -0.018001
     2    0.014880   -0.011390    0.004860
     3   -0.377291    0.301723    0.857001
     4    0.274029   -0.305019   -0.534858
     5    3.086748   -7.026744    0.266576
     6    0.176072    4.041152   -6.675610
     7   -2.792594    2.332307    5.838806
     8   -3.095074    6.915251    0.214418
     9   -0.119158   -3.939588    6.420094
    10    2.842284   -2.576974   -5.828096
----------------------------------------
   Tot   -0.016817   -0.223444    0.545191
----------------------------------------
   Max    7.026744
   Res    3.324353    sqrt( Sum f_i^2 / 3N )
----------------------------------------
   Max    7.026744    constrained

Stress-tensor-Voigt (kbar):      721.05      450.69      429.46      143.96       55.07       87.94
Target enthalpy (eV/cell)    -2939.8201

siesta: Stress tensor (static) (eV/Ang**3):
         0.450388    0.089922    0.054775
         0.089921    0.281310    0.034354
         0.054780    0.034353    0.268078

siesta: Pressure (static):       -533.94533771  kBar

siesta: Stress tensor (total) (eV/Ang**3):
         0.450037    0.089853    0.054883
         0.089853    0.281297    0.034375
         0.054888    0.034374    0.268046

siesta: Pressure (total):       -533.73300816  kBar

siesta: Temp_ion =     294.596 K

* Maximum dynamic memory allocated =     4 MB

siesta:                 ==============================
                            Begin MD step =      6
                        ==============================

outcoor: Atomic coordinates (fractional):                   
    0.00223305   -0.00242212    0.00039514   1  Mg         1
    0.49961049    0.50036329    0.49983851   1  Mg         2
    0.25173406    0.24953255    0.24863822   2  C          3
   -0.25173937   -0.24976831   -0.24802015   2  C          4
    0.52778690   -0.02661506    0.24805556   3  O          5
    0.24675184    0.52803115   -0.02463548   3  O          6
   -0.02912820    0.25130205    0.52857643   3  O          7
   -0.52764534    0.02777554   -0.25187898   3  O          8
   -0.24798592   -0.52874975    0.02679500   3  O          9
    0.02836811   -0.24948344   -0.52771476   3  O         10

outcell: Unit cell vectors (Ang):
        5.676029    0.001069    0.000716
        3.785607    4.229260    0.000697
        3.785623    1.692545    3.875790

outcell: Cell vector modules (Ang)   :    5.676029    5.676043    5.676038
outcell: Cell angles (23,13,12) (deg):     48.1574     48.1571     48.1575
outcell: Cell volume (Ang**3)        :     93.0107

InitMesh: MESH =    24 x    24 x    24 =       13824
InitMesh: Mesh cutoff (required, used) =    50.000    63.507 Ry

siesta: Eharris(eV) =   -2966.622112


siesta: Eharris(eV) =   -2966.622112


siesta: Atomic forces (eV/Ang):
     1   -0.026352    0.055961   -0.020649
     2    0.006547   -0.002119    0.004703
     3   -0.460322    0.370640    1.044519
     4    0.335409   -0.372723   -0.654877
     5    3.082294   -7.036401    0.330106
     6    0.212615    4.016828   -6.734588
     7   -2.691174    2.187174    5.692284
     8   -3.086153    6.908886    0.256677
     9   -0.144149   -3.887311    6.422915
    10    2.786190   -2.536223   -5.719168
----------------------------------------
   Tot    0.014904   -0.295288    0.621921
----------------------------------------
   Max    7.036401
   Res    3.305658    sqrt( Sum f_i^2 / 3N )
----------------------------------------
   Max    7.036401    constrained

Stress-tensor-Voigt (kbar):      723.69      452.89      435.45      141.83       58.60       85.09
Target enthalpy (eV/cell)    -2939.8314

siesta: Stress tensor (static) (eV/Ang**3):
         0.452127    0.088558    0.052890
         0.088557    0.282670    0.036559
         0.052897    0.036557    0.271889

siesta: Pressure (static):       -537.63541047  kBar

siesta: Stress tensor (total) (eV/Ang**3):
         0.451689    0.088523    0.053104
         0.088522    0.282667    0.036576
         0.053110    0.036574    0.271785

siesta: Pressure (total):       -537.34441294  kBar

siesta: Temp_ion =     328.474 K

* Maximum dynamic memory allocated =     4 MB

siesta:                 ==============================
                            Begin MD step =      7
                        ==============================

outcoor: Atomic coordinates (fractional):                   
    0.00267949   -0.00290616    0.00047383   1  Mg         1
    0.49953270    0.50043589    0.49980628   1  Mg         2
    0.25204160    0.24943559    0.24840892   2  C          3
   -0.25205799   -0.24972522   -0.24765078   2  C          4
    0.52812651   -0.02672957    0.24767644   3  O          5
    0.24611343    0.52842289   -0.02435857   3  O          6
   -0.02971182    0.25155494    0.52905630   3  O          7
   -0.52796173    0.02811152   -0.25224705   3  O          8
   -0.24759179   -0.52927785    0.02694084   3  O          9
    0.02880703   -0.24938116   -0.52802221   3  O         10

outcell: Unit cell vectors (Ang):
        5.675307    0.001495    0.001011
        3.785445    4.228452    0.000971
        3.785472    1.692465    3.874920

outcell: Cell vector modules (Ang)   :    5.675307    5.675333    5.675319
outcell: Cell angles (23,13,12) (deg):     48.1489     48.1482     48.1490
outcell: Cell volume (Ang**3)        :     92.9485

InitMesh: MESH =    24 x    24 x    24 =       13824
InitMesh: Mesh cutoff (required, used) =    50.000    63.517 Ry

siesta: Eharris(eV) =   -2966.676434


siesta: Eharris(eV) =   -2966.676434


siesta: Atomic forces (eV/Ang):
     1   -0.034040    0.075914   -0.020879
     2    0.007927   -0.004811    0.005215
     3   -0.532911    0.435023    1.215670
     4    0.391092   -0.437776   -0.763027
     5    3.069865   -7.029533    0.383533
     6    0.244348    3.980961   -6.765673
     7   -2.622264    2.082930    5.574902
     8   -3.062881    6.879285    0.303966
     9   -0.169534   -3.825801    6.412167
    10    2.715947   -2.489490   -5.583170
----------------------------------------
   Tot    0.007549   -0.333297    0.762704
----------------------------------------
   Max    7.029533
   Res    3.282137    sqrt( Sum f_i^2 / 3N )
----------------------------------------
   Max    7.029533    constrained

Stress-tensor-Voigt (kbar):      725.32      454.38      441.79      140.41       60.85       82.63
Target enthalpy (eV/cell)    -2939.8496

siesta: Stress tensor (static) (eV/Ang**3):
         0.453239    0.087633    0.051231
         0.087632    0.283600    0.037988
         0.051239    0.037986    0.275954

siesta: Pressure (static):       -540.89671908  kBar

siesta: Stress tensor (total) (eV/Ang**3):
         0.452706    0.087639    0.051568
         0.087638    0.283600    0.037984
         0.051576    0.037982    0.275741

siesta: Pressure (total):       -540.49862009  kBar

siesta: Temp_ion =     376.176 K

* Maximum dynamic memory allocated =     4 MB

siesta:                 ==============================
                            Begin MD step =      8
                        ==============================

outcoor: Atomic coordinates (fractional):                   
    0.00312574   -0.00338989    0.00055239   1  Mg         1
    0.49945490    0.50050850    0.49977407   1  Mg         2
    0.25232870    0.24933693    0.24820197   2  C          3
   -0.25236132   -0.24968388   -0.24729526   2  C          4
    0.52855325   -0.02693594    0.24730236   3  O          5
    0.24548061    0.52890337   -0.02417557   3  O          6
   -0.03036963    0.25180355    0.52961413   3  O          7
   -0.52836762    0.02853386   -0.25261114   3  O          8
   -0.24720210   -0.52989088    0.02717601   3  O          9
    0.02932435   -0.24927949   -0.52840766   3  O         10

outcell: Unit cell vectors (Ang):
        5.674463    0.001993    0.001359
        3.785256    4.227513    0.001290
        3.785299    1.692368    3.873901

outcell: Cell vector modules (Ang)   :    5.674464    5.674507    5.674479
outcell: Cell angles (23,13,12) (deg):     48.1389     48.1377     48.1391
outcell: Cell volume (Ang**3)        :     92.8759

InitMesh: MESH =    24 x    24 x    24 =       13824
InitMesh: Mesh cutoff (required, used) =    50.000    63.529 Ry

siesta: Eharris(eV) =   -2966.746545


siesta: Eharris(eV) =   -2966.746545


siesta: Atomic forces (eV/Ang):
     1   -0.045953    0.089375   -0.015732
     2    0.013524   -0.010768    0.001201
     3   -0.601519    0.493787    1.369726
     4    0.438739   -0.494968   -0.860209
     5    3.047289   -6.999897    0.438465
     6    0.277337    3.929644   -6.775007
     7   -2.536988    1.970399    5.384398
     8   -3.029352    6.823729    0.349546
     9   -0.204124   -3.688833    6.335284
    10    2.643092   -2.438506   -5.439596
----------------------------------------
   Tot    0.002044   -0.326038    0.788077
----------------------------------------
   Max    6.999897
   Res    3.240606    sqrt( Sum f_i^2 / 3N )
----------------------------------------
   Max    6.999897    constrained

Stress-tensor-Voigt (kbar):      727.99      459.40      452.38      138.46       61.30       79.47
Target enthalpy (eV/cell)    -2939.8743

siesta: Stress tensor (static) (eV/Ang**3):
         0.455004    0.086365    0.049118
         0.086364    0.286733    0.038305
         0.049127    0.038303    0.282706

siesta: Pressure (static):       -547.11920457  kBar

siesta: Stress tensor (total) (eV/Ang**3):
         0.454370    0.086420    0.049594
         0.086418    0.286729    0.038264
         0.049603    0.038262    0.282349

siesta: Pressure (total):       -546.58747490  kBar

siesta: Temp_ion =     437.228 K

* Maximum dynamic memory allocated =     4 MB

siesta:                 ==============================
                            Begin MD step =      9
                        ==============================

outcoor: Atomic coordinates (fractional):                   
    0.00357168   -0.00387328    0.00063086   1  Mg         1
    0.49937718    0.50058109    0.49974185   1  Mg         2
    0.25259272    0.24923641    0.24802021   2  C          3
   -0.25264742   -0.24964455   -0.24695536   2  C          4
    0.52906651   -0.02723421    0.24693405   3  O          5
    0.24485411    0.52947217   -0.02408669   3  O          6
   -0.03109898    0.25204752    0.53024744   3  O          7
   -0.52886263    0.02904177   -0.25297064   3  O          8
   -0.24681789   -0.53058683    0.02749959   3  O          9
    0.02991830   -0.24917859   -0.52886925   3  O         10

outcell: Unit cell vectors (Ang):
        5.673497    0.002564    0.001763
        3.785039    4.226440    0.001654
        3.785103    1.692255    3.872731

outcell: Cell vector modules (Ang)   :    5.673498    5.673563    5.673515
outcell: Cell angles (23,13,12) (deg):     48.1275     48.1256     48.1277
outcell: Cell volume (Ang**3)        :     92.7927

InitMesh: MESH =    24 x    24 x    24 =       13824
InitMesh: Mesh cutoff (required, used) =    50.000    63.542 Ry

siesta: Eharris(eV) =   -2966.831731


siesta: Eharris(eV) =   -2966.831731


siesta: Atomic forces (eV/Ang):
     1   -0.052815    0.103870   -0.027252
     2    0.018446   -0.023527    0.008108
     3   -0.659450    0.545326    1.502898
     4    0.481264   -0.545750   -0.945616
     5    3.013091   -6.940157    0.491682
     6    0.306856    3.860525   -6.756815
     7   -2.393374    1.774036    5.195386
     8   -2.977754    6.735357    0.393954
     9   -0.232268   -3.578628    6.275692
    10    2.570536   -2.387230   -5.298717
----------------------------------------
   Tot    0.074531   -0.456178    0.839320
----------------------------------------
   Max    6.940157
   Res    3.190878    sqrt( Sum f_i^2 / 3N )
----------------------------------------
   Max    6.940157    constrained

Stress-tensor-Voigt (kbar):      731.67      467.14      461.84      134.30       63.84       76.21
Target enthalpy (eV/cell)    -2939.9046

siesta: Stress tensor (static) (eV/Ang**3):
         0.457412    0.083717    0.046925
         0.083715    0.291579    0.039941
         0.046935    0.039938    0.288790

siesta: Pressure (static):       -554.24210606  kBar

siesta: Stress tensor (total) (eV/Ang**3):
         0.456671    0.083827    0.047554
         0.083826    0.291562    0.039847
         0.047564    0.039845    0.288257

siesta: Pressure (total):       -553.55236599  kBar

siesta: Temp_ion =     510.847 K

* Maximum dynamic memory allocated =     4 MB

siesta:                 ==============================
                            Begin MD step =     10
                        ==============================

outcoor: Atomic coordinates (fractional):                   
    0.00401726   -0.00435620    0.00070914   1  Mg         1
    0.49929959    0.50065354    0.49970968   1  Mg         2
    0.25283132    0.24913390    0.24786614   2  C          3
   -0.25291455   -0.24960747   -0.24663266   2  C          4
    0.52966534   -0.02762409    0.24657220   3  O          5
    0.24423465    0.53012846   -0.02409182   3  O          6
   -0.03189596    0.25228541    0.53095377   3  O          7
   -0.52944593    0.02963404   -0.25332495   3  O          8
   -0.24644000   -0.53136414    0.02791090   3  O          9
    0.03058714   -0.24907858   -0.52940518   3  O         10

outcell: Unit cell vectors (Ang):
        5.672406    0.003210    0.002225
        3.784795    4.225234    0.002064
        3.784887    1.692124    3.871407

outcell: Cell vector modules (Ang)   :    5.672407    5.672502    5.672428
outcell: Cell angles (23,13,12) (deg):     48.1147     48.1118     48.1149
outcell: Cell volume (Ang**3)        :     92.6988

InitMesh: MESH =    24 x    24 x    24 =       13824
InitMesh: Mesh cutoff (required, used) =    50.000    63.557 Ry

siesta: Eharris(eV) =   -2966.930934


siesta: Eharris(eV) =   -2966.930934


siesta: Atomic forces (eV/Ang):
     1   -0.054558    0.115566   -0.029945
     2    0.020149   -0.026814    0.010372
     3   -0.707124    0.591678    1.610221
     4    0.517172   -0.588466   -1.013163
     5    2.968359   -6.853661    0.542910
     6    0.332994    3.780151   -6.715759
     7   -2.308481    1.656569    5.035356
     8   -2.862910    6.525919    0.427943
     9   -0.274907   -3.378389    6.153565
    10    2.443752   -2.276292   -5.109862
----------------------------------------
   Tot    0.074445   -0.453739    0.911638
----------------------------------------
   Max    6.853661
   Res    3.118209    sqrt( Sum f_i^2 / 3N )
----------------------------------------
   Max    6.853661    constrained

Stress-tensor-Voigt (kbar):      736.43      480.05      473.34      128.69       64.14       72.69
Target enthalpy (eV/cell)    -2939.9391

siesta: Stress tensor (static) (eV/Ang**3):
         0.460495    0.080148    0.044561
         0.080147    0.299655    0.040194
         0.044573    0.040191    0.296172

siesta: Pressure (static):       -564.14405869  kBar

siesta: Stress tensor (total) (eV/Ang**3):
         0.459640    0.080320    0.045356
         0.080319    0.299620    0.040034
         0.045369    0.040031    0.295432

siesta: Pressure (total):       -563.27383008  kBar

siesta: Temp_ion =     596.017 K

* Maximum dynamic memory allocated =     4 MB

outcell: Unit cell vectors (Ang):
        5.671189    0.003933    0.002746
        3.784526    4.223891    0.002520
        3.784651    1.691976    3.869927

outcell: Cell vector modules (Ang)   :    5.671191    5.671322    5.671216
outcell: Cell angles (23,13,12) (deg):     48.1003     48.0963     48.1005
outcell: Cell volume (Ang**3)        :     92.5940

siesta: Program's energy decomposition (eV):
siesta: Eions   =      5228.674091
siesta: Ena     =      1092.639696
siesta: Ekin    =      2397.883867
siesta: Enl     =      -404.392942
siesta: DEna    =      -103.574352
siesta: DUscf   =        24.442352
siesta: DUext   =         0.000000
siesta: Exc     =      -724.049354
siesta: eta*DQ  =         0.000000
siesta: Emadel  =         0.000000
siesta: Ekinion =         0.693344
siesta: Eharris =     -2966.237591
siesta: Etot    =     -2945.031481
siesta: FreeEng =     -2945.031481

siesta: Final energy (eV):
siesta:       Kinetic =    2397.883867
siesta:       Hartree =    1097.127471
siesta:    Ext. field =       0.000000
siesta:   Exch.-corr. =    -724.049354
siesta:  Ion-electron =   -4178.349100
siesta:       Ion-ion =   -1538.337709
siesta:       Ekinion =       0.693344
siesta:         Total =   -2945.031481

siesta: Atomic forces (eV/Ang):
siesta:      1   -0.054558    0.115566   -0.029945
siesta:      2    0.020149   -0.026814    0.010372
siesta:      3   -0.707124    0.591678    1.610221
siesta:      4    0.517172   -0.588466   -1.013163
siesta:      5    2.968359   -6.853661    0.542910
siesta:      6    0.332994    3.780151   -6.715759
siesta:      7   -2.308481    1.656569    5.035356
siesta:      8   -2.862910    6.525919    0.427943
siesta:      9   -0.274907   -3.378389    6.153565
siesta:     10    2.443752   -2.276292   -5.109862
siesta: ----------------------------------------
siesta:    Tot    0.074445   -0.453739    0.911638

siesta: Stress tensor (static) (eV/Ang**3):
siesta:     0.460495    0.080148    0.044561
siesta:     0.080147    0.299655    0.040194
siesta:     0.044573    0.040191    0.296172

siesta: Cell volume =         92.698798 Ang**3

siesta: Pressure (static):
siesta:                Solid            Molecule  Units
siesta:          -0.00383490         -0.00590852  Ry/Bohr**3
siesta:          -0.35210722         -0.54250007  eV/Ang**3
siesta:        -564.14405869       -869.19033560  kBar

* Maximum dynamic memory allocated : Node    0 =     4 MB

* Maximum memory occured during ranger                        

timer: CPU execution times:
timer:  Routine       Calls   Time/call    Tot.time        %
timer:  siesta            1      48.144      48.144   100.00
timer:  Setup             1       2.166       2.166     4.50
timer:  bands             1       0.002       0.002     0.00
timer:  writewave         1       0.006       0.006     0.01
timer:  KSV_init          1       0.002       0.002     0.00
timer:  IterMD           10       4.594      45.941    95.42
timer:  hsparse          11       0.429       4.723     9.81
timer:  overfsm          20       0.043       0.869     1.80
timer:  IterSCF          20       2.019      40.372    83.86
timer:  kinefsm          20       0.041       0.814     1.69
timer:  nlefsm           20       0.157       3.138     6.52
timer:  DHSCF            20       1.789      35.777    74.31
timer:  DHSCF1           10       0.364       3.642     7.57
timer:  DHSCF2           10       0.831       8.308    17.26
timer:  REORD           180       0.000       0.038     0.08
timer:  POISON           30       0.008       0.247     0.51
timer:  DHSCF3           20       0.234       4.671     9.70
timer:  rhoofd           20       0.084       1.673     3.48
timer:  cellXC           30       0.090       2.709     5.63
timer:  vmat             20       0.046       0.925     1.92
timer:  diagon           10       0.008       0.083     0.17
timer:  rdiag            10       0.007       0.070     0.14
timer:  rdiag1           10       0.001       0.007     0.01
timer:  rdiag2           10       0.001       0.005     0.01
timer:  rdiag3           10       0.004       0.045     0.09
timer:  rdiag4           10       0.000       0.001     0.00
timer:  DHSCF4           10       1.914      19.136    39.75
timer:  dfscf            10       0.887       8.871    18.43
timer:  optical           1       0.002       0.002     0.00
  

elaps: ELAPSED times:
elaps:  Routine       Calls   Time/call    Tot.time        %
elaps:  siesta            1      53.344      53.344   100.00
elaps:  Setup             1       2.811       2.811     5.27
elaps:  bands             1       0.002       0.002     0.00
elaps:  writewave         1       0.006       0.006     0.01
elaps:  KSV_init          1       0.002       0.002     0.00
elaps:  IterMD           10       5.049      50.493    94.65
elaps:  hsparse          11       0.473       5.208     9.76
elaps:  overfsm          20       0.047       0.943     1.77
elaps:  IterSCF          20       2.213      44.257    82.97
elaps:  kinefsm          20       0.045       0.890     1.67
elaps:  nlefsm           20       0.173       3.455     6.48
elaps:  DHSCF            20       1.945      38.893    72.91
elaps:  DHSCF1           10       0.392       3.920     7.35
elaps:  DHSCF2           10       0.905       9.052    16.97
elaps:  REORD           180       0.000       0.043     0.08
elaps:  POISON           30       0.010       0.286     0.54
elaps:  DHSCF3           20       0.259       5.172     9.70
elaps:  rhoofd           20       0.095       1.906     3.57
elaps:  cellXC           30       0.098       2.933     5.50
elaps:  vmat             20       0.050       1.009     1.89
elaps:  diagon           10       0.009       0.090     0.17
elaps:  rdiag            10       0.008       0.077     0.14
elaps:  rdiag1           10       0.001       0.006     0.01
elaps:  rdiag2           10       0.001       0.006     0.01
elaps:  rdiag3           10       0.005       0.049     0.09
elaps:  rdiag4           10       0.000       0.004     0.01
elaps:  DHSCF4           10       2.072      20.723    38.85
elaps:  dfscf            10       0.961       9.612    18.02
elaps:  optical           1       0.002       0.002     0.00
  
>> End of run:   5-DEC-2006  13:33:07
