Siesta Version: siesta-4.0--527
Architecture  : x86_64-linux-n-62-18-14
Compiler flags: mpifort -m64 -fPIC -O3 -march=native -ftree-vectorize -fexpensive-optimizatioons -funroll-loops -fprefetch-loop-arrays -fno-second-underscore 
PP flags      : -I/zdata/groups/common/nicpa/2016-oct/generic/build-tools/1.0/include -I/zdatta/groups/common/nicpa/2016-oct/generic/gmp/6.1.0/include -I/zdata/groups/common/nicpa/2016-oct/generic/mpfr/3.1.4/include -I/zdata/groups/common/nicpa/2016-oct/generic/mpc/1.0.3/include -I/zdata/groups/common/nicpa/2016-oct/generic/isl/0.16.1/include -I/zdata/groups/common/nicpa/2016-oct/generic/gcc/6.2.0/include -I/zdata/groups/common/nicpa/2016-oct/generic/numactl/2.0.11/include -I/zdata/groups/common/nicpa/2016-oct/XeonE5-2665/zlib/1.2.8/gnu-6.2.0/include -I/zdata/groups/common/nicpa/2016-oct/XeonE5-2665/libxml2/2.9.4/gnu-6.2.0/include -I/zdata/groups/common/nicpa/2016-oct/XeonE5-2665/hwloc/1.11.4/gnu-6.2.0/include -I/zdata/groups/common/nicpa/2016-oct/XeonE5-2665/openmpi/2.0.1/gnu-6.2.0/include -I/zdata/groups/common/nicpa/2016-oct/XeonE5-2665/hdf5/1.8.17/gnu-6.2.0/include -I/zdata/groups/common/nicpa/2016-oct/XeonE5-2665/pnetcdf/1.7.0/gnu-6.2.0/include -I/zdata/groups/common/nicpa/2016-oct/XeonE5-2665/netcdf/4.4.1/gnu-6.2.0/include -I/zdata/groups/common/nicpa/2016-oct/XeonE5-2665/flook/0.7.0/gnu-6.2.0/include -I/zdata/groups/common/nicpa/2016-oct/XeonE5-2665/parmetis/4.0.3/gnu-6.2.0/include -I/zdata/groups/common/nicpa/2016-oct/XeonE5-2665/scalapack/204/gnu-6.2.0/include -I/zdata/groups/common/nicpa/2016-oct/XeonE5-2665/openblas/0.2.19/gnu-6.2.0/include -I/zdata/groups/common/nicpa/2016-oct/XeonE5-2665/mumps/5.0.2/gnu-6.2.0/include -I/zdata/groups/common/nicpa/2016-oct/XeonE5-2665/fftw/3.3.5/gnu-6.2.0/include -DMPI -DFC_HAVE_FLUSH -DFC_HAVE_ABORT -DCDF  -DSIESTA__METIS -DSIESTA__MUMPS -DTS_NOCHECKS -DSIESTA__FLOOK  
PARALLEL version
NetCDF support

* Running on    8 nodes in parallel
>> Start of run:   2-JUL-2017  11:56:19

                           ***********************       
                           *  WELCOME TO SIESTA  *       
                           ***********************       

reinit: Reading from standard input
************************** Dump of input data file ****************************
#
# MgCO3 in primitive cell. SZ. Parrinello-Rahman. Harris
#
SystemName	MgCo3 R-3c Harris -- SZ, 50 R -- PR at 10 Gpa
SystemLabel	md_pr
NumberOfSpecies		3
NumberOfAtoms	       10
%block ChemicalSpeciesLabel
      1      12     Mg
      2       6     C
      3       8     O
%endblock ChemicalSpeciesLabel
PAO.BasisSize  SZ
Diag.Divide-and-Conquer F
# Rhombohedral primitive cell
# (HEX 3-fold cell had A=4.635 and C=15.023, so alpha=48.179 degrees
#  and a=5.67783 Ang)
LatticeConstant     5.67783 Ang
%block LatticeParameters
1.0 1.0 1.0 48.179 48.179 48.179
%endblock LatticeParameters
AtomicCoordinatesFormat    Fractional
%block AtomicCoordinatesAndAtomicSpecies
  0.0         0.0         0.0      1
  0.5         0.5         0.5      1
  0.25        0.25        0.25     2
 -0.25       -0.25       -0.25     2
  0.5274     -0.0274      0.25     3
  0.25        0.5274     -0.0274   3
 -0.0274      0.25        0.5274   3
 -0.5274      0.0274     -0.25     3
 -0.25       -0.5274      0.0274   3
  0.0274     -0.25       -0.5274   3
%endblock AtomicCoordinatesAndAtomicSpecies
kgrid_cutoff 2.0 Ang
Solution.Method       diagon
MeshCutoff             50 Ry
DM.NumberBroyden       4
DM.UseSaveDM           T
DM.MixingWeight        0.1         # New DM amount for next SCF cycle
DM.Tolerance           1.d-3       # Tolerance in maximum difference
                                   # between input and output DM
MaxSCFIterations       20
WriteCoorStep      .true.
WriteForces        .true.
HarrisFunctional T
WriteMDHistory     .true.
MD.UseSaveXV       T
#####MD.Initial.temperature 300 K
MD.TypeOfRun         ParrinelloRahman
MD.Target-pressure   10.0 GPa
MD.Initial.Time.Step      1
MD.Final.Time.Step        50
MD.Length.Time.Step       0.3 fs
************************** End of input data file *****************************

reinit: -----------------------------------------------------------------------
reinit: System Name: MgCo3 R-3c Harris -- SZ, 50 R -- PR at 10 Gpa
reinit: -----------------------------------------------------------------------
reinit: System Label: md_pr                                                       
reinit: -----------------------------------------------------------------------

initatom: Reading input for the pseudopotentials and atomic orbitals ----------
 Species number:            1  Label: Mg Atomic number:          12
 Species number:            2  Label: C Atomic number:           6
 Species number:            3  Label: O Atomic number:           8
Ground state valence configuration:   3s02
Reading pseudopotential information in formatted form from Mg.psf

Valence configuration for pseudopotential generation:
3s( 2.00) rc: 2.59
3p( 0.00) rc: 2.59
3d( 0.00) rc: 2.59
4f( 0.00) rc: 2.59
Ground state valence configuration:   2s02  2p02
Reading pseudopotential information in formatted form from C.psf

Valence configuration for pseudopotential generation:
2s( 2.00) rc: 1.49
2p( 2.00) rc: 1.52
3d( 0.00) rc: 1.58
Ground state valence configuration:   2s02  2p04
Reading pseudopotential information in formatted form from O.psf

Valence configuration for pseudopotential generation:
2s( 2.00) rc: 1.14
2p( 4.00) rc: 1.14
3d( 0.00) rc: 1.14
4f( 0.00) rc: 1.14
For Mg, standard SIESTA heuristics set lmxkb to 1
 (one more than the basis l, including polarization orbitals).
Use PS.lmax or PS.KBprojectors blocks to override.
For C, standard SIESTA heuristics set lmxkb to 2
 (one more than the basis l, including polarization orbitals).
Use PS.lmax or PS.KBprojectors blocks to override.
For O, standard SIESTA heuristics set lmxkb to 2
 (one more than the basis l, including polarization orbitals).
Use PS.lmax or PS.KBprojectors blocks to override.

<basis_specs>
===============================================================================
Mg                   Z=  12    Mass=  24.310        Charge= 0.17977+309
Lmxo=0 Lmxkb= 1    BasisType=split      Semic=F
L=0  Nsemic=0  Cnfigmx=3
          n=1  nzeta=1  polorb=0
            splnorm:   0.15000    
               vcte:    0.0000    
               rinn:    0.0000    
               qcoe:    0.0000    
               qyuk:    0.0000    
               qwid:   0.10000E-01
                rcs:    0.0000    
            lambdas:    1.0000    
-------------------------------------------------------------------------------
L=0  Nkbl=1  erefs: 0.17977+309
L=1  Nkbl=1  erefs: 0.17977+309
===============================================================================
</basis_specs>

atom: Called for Mg                    (Z =  12)

read_vps: Pseudopotential generation method:
read_vps: ATM3      Troullier-Martins                       
Total valence charge:    2.00000

xc_check: Exchange-correlation functional:
xc_check: Ceperley-Alder
V l=0 = -2*Zval/r beyond r=  3.5878
V l=1 = -2*Zval/r beyond r=  3.5878
All V_l potentials equal beyond r=  2.5600
This should be close to max(r_c) in ps generation
All pots = -2*Zval/r beyond r=  3.5878
Using large-core scheme for Vlocal

atom: Estimated core radius    3.58779

atom: Including non-local core corrections could be a good idea
atom: Maximum radius for 4*pi*r*r*local-pseudopot. charge    3.91588
atom: Maximum radius for r*vlocal+2*Zval:    3.63292
GHOST: No ghost state for L =  0
GHOST: No ghost state for L =  1

KBgen: Kleinman-Bylander projectors: 
   l= 0   rc=  2.657845   el= -0.351328   Ekb=  2.184400   kbcos=  0.257081
   l= 1   rc=  2.657845   el= -0.101748   Ekb=  0.525536   kbcos=  0.270508

KBgen: Total number of  Kleinman-Bylander projectors:    4
atom: -------------------------------------------------------------------------

atom: SANKEY-TYPE ORBITALS:

SPLIT: Orbitals with angular momentum L= 0

SPLIT: Basis orbitals for state 3s

SPLIT: PAO cut-off radius determined from an
SPLIT: energy shift=  0.020000 Ry

   izeta = 1
                 lambda =    1.000000
                     rc =    6.619780
                 energy =   -0.332103
                kinetic =    0.289627
    potential(screened) =   -0.621729
       potential(ionic) =   -1.387191
atom: Total number of Sankey-type orbitals:  1

atm_pop: Valence configuration (for local Pseudopot. screening):
 3s( 2.00)                                                            
Vna: chval, zval:    2.00000   2.00000

Vna:  Cut-off radius for the neutral-atom potential:   6.619780

atom: _________________________________________________________________________

<basis_specs>
===============================================================================
C                    Z=   6    Mass=  12.010        Charge= 0.17977+309
Lmxo=1 Lmxkb= 2    BasisType=split      Semic=F
L=0  Nsemic=0  Cnfigmx=2
          n=1  nzeta=1  polorb=0
            splnorm:   0.15000    
               vcte:    0.0000    
               rinn:    0.0000    
               qcoe:    0.0000    
               qyuk:    0.0000    
               qwid:   0.10000E-01
                rcs:    0.0000    
            lambdas:    1.0000    
L=1  Nsemic=0  Cnfigmx=2
          n=1  nzeta=1  polorb=0
            splnorm:   0.15000    
               vcte:    0.0000    
               rinn:    0.0000    
               qcoe:    0.0000    
               qyuk:    0.0000    
               qwid:   0.10000E-01
                rcs:    0.0000    
            lambdas:    1.0000    
-------------------------------------------------------------------------------
L=0  Nkbl=1  erefs: 0.17977+309
L=1  Nkbl=1  erefs: 0.17977+309
L=2  Nkbl=1  erefs: 0.17977+309
===============================================================================
</basis_specs>

atom: Called for C                     (Z =   6)

read_vps: Pseudopotential generation method:
read_vps: ATM3      Troullier-Martins                       
Total valence charge:    4.00000

xc_check: Exchange-correlation functional:
xc_check: Ceperley-Alder
V l=0 = -2*Zval/r beyond r=  1.4666
V l=1 = -2*Zval/r beyond r=  1.5038
V l=2 = -2*Zval/r beyond r=  1.5612
All V_l potentials equal beyond r=  1.5612
This should be close to max(r_c) in ps generation
All pots = -2*Zval/r beyond r=  1.5612

VLOCAL1: 99.0% of the norm of Vloc inside     17.809 Ry
VLOCAL1: 99.9% of the norm of Vloc inside     40.586 Ry
atom: Maximum radius for 4*pi*r*r*local-pseudopot. charge    1.88329
atom: Maximum radius for r*vlocal+2*Zval:    1.62091
GHOST: No ghost state for L =  0
GHOST: No ghost state for L =  1
GHOST: No ghost state for L =  2

KBgen: Kleinman-Bylander projectors: 
   l= 0   rc=  1.747182   el= -1.001947   Ekb=  5.181700   kbcos=  0.300603
   l= 1   rc=  1.747182   el= -0.398598   Ekb= -4.328763   kbcos= -0.367074
   l= 2   rc=  1.955272   el=  0.002326   Ekb= -1.016175   kbcos= -0.009979

KBgen: Total number of  Kleinman-Bylander projectors:    9
atom: -------------------------------------------------------------------------

atom: SANKEY-TYPE ORBITALS:

SPLIT: Orbitals with angular momentum L= 0

SPLIT: Basis orbitals for state 2s

SPLIT: PAO cut-off radius determined from an
SPLIT: energy shift=  0.020000 Ry

   izeta = 1
                 lambda =    1.000000
                     rc =    4.191849
                 energy =   -0.983897
                kinetic =    0.886956
    potential(screened) =   -1.870853
       potential(ionic) =   -5.479661

SPLIT: Orbitals with angular momentum L= 1

SPLIT: Basis orbitals for state 2p

SPLIT: PAO cut-off radius determined from an
SPLIT: energy shift=  0.020000 Ry

   izeta = 1
                 lambda =    1.000000
                     rc =    4.870301
                 energy =   -0.379093
                kinetic =    2.545357
    potential(screened) =   -2.924450
       potential(ionic) =   -6.433151
atom: Total number of Sankey-type orbitals:  4

atm_pop: Valence configuration (for local Pseudopot. screening):
 2s( 2.00)                                                            
 2p( 2.00)                                                            
Vna: chval, zval:    4.00000   4.00000

Vna:  Cut-off radius for the neutral-atom potential:   4.870301

atom: _________________________________________________________________________

<basis_specs>
===============================================================================
O                    Z=   8    Mass=  16.000        Charge= 0.17977+309
Lmxo=1 Lmxkb= 2    BasisType=split      Semic=F
L=0  Nsemic=0  Cnfigmx=2
          n=1  nzeta=1  polorb=0
            splnorm:   0.15000    
               vcte:    0.0000    
               rinn:    0.0000    
               qcoe:    0.0000    
               qyuk:    0.0000    
               qwid:   0.10000E-01
                rcs:    0.0000    
            lambdas:    1.0000    
L=1  Nsemic=0  Cnfigmx=2
          n=1  nzeta=1  polorb=0
            splnorm:   0.15000    
               vcte:    0.0000    
               rinn:    0.0000    
               qcoe:    0.0000    
               qyuk:    0.0000    
               qwid:   0.10000E-01
                rcs:    0.0000    
            lambdas:    1.0000    
-------------------------------------------------------------------------------
L=0  Nkbl=1  erefs: 0.17977+309
L=1  Nkbl=1  erefs: 0.17977+309
L=2  Nkbl=1  erefs: 0.17977+309
===============================================================================
</basis_specs>

atom: Called for O                     (Z =   8)

read_vps: Pseudopotential generation method:
read_vps: ATM3      Troullier-Martins                       
Total valence charge:    6.00000

xc_check: Exchange-correlation functional:
xc_check: Ceperley-Alder
V l=0 = -2*Zval/r beyond r=  1.1278
V l=1 = -2*Zval/r beyond r=  1.1278
V l=2 = -2*Zval/r beyond r=  1.1278
All V_l potentials equal beyond r=  1.1278
This should be close to max(r_c) in ps generation
All pots = -2*Zval/r beyond r=  1.1278

VLOCAL1: 99.0% of the norm of Vloc inside     34.126 Ry
VLOCAL1: 99.9% of the norm of Vloc inside     77.774 Ry
atom: Maximum radius for 4*pi*r*r*local-pseudopot. charge    1.37759
atom: Maximum radius for r*vlocal+2*Zval:    1.18566
GHOST: No ghost state for L =  0
GHOST: No ghost state for L =  1
GHOST: No ghost state for L =  2

KBgen: Kleinman-Bylander projectors: 
   l= 0   rc=  1.294105   el= -1.742414   Ekb=  9.135903   kbcos=  0.326910
   l= 1   rc=  1.294105   el= -0.676589   Ekb= -8.124878   kbcos= -0.395047
   l= 2   rc=  1.448233   el=  0.002386   Ekb= -2.039267   kbcos= -0.003484

KBgen: Total number of  Kleinman-Bylander projectors:    9
atom: -------------------------------------------------------------------------

atom: SANKEY-TYPE ORBITALS:

SPLIT: Orbitals with angular momentum L= 0

SPLIT: Basis orbitals for state 2s

SPLIT: PAO cut-off radius determined from an
SPLIT: energy shift=  0.020000 Ry

   izeta = 1
                 lambda =    1.000000
                     rc =    3.305093
                 energy =   -1.723766
                kinetic =    1.614911
    potential(screened) =   -3.338677
       potential(ionic) =  -11.304675

SPLIT: Orbitals with angular momentum L= 1

SPLIT: Basis orbitals for state 2p

SPLIT: PAO cut-off radius determined from an
SPLIT: energy shift=  0.020000 Ry

   izeta = 1
                 lambda =    1.000000
                     rc =    3.937239
                 energy =   -0.658841
                kinetic =    5.005986
    potential(screened) =   -5.664827
       potential(ionic) =  -13.452360
atom: Total number of Sankey-type orbitals:  4

atm_pop: Valence configuration (for local Pseudopot. screening):
 2s( 2.00)                                                            
 2p( 4.00)                                                            
Vna: chval, zval:    6.00000   6.00000

Vna:  Cut-off radius for the neutral-atom potential:   3.937239

atom: _________________________________________________________________________

prinput: Basis input ----------------------------------------------------------

PAO.BasisType split     

%block ChemicalSpeciesLabel
    1   12 Mg                      # Species index, atomic number, species label
    2    6 C                       # Species index, atomic number, species label
    3    8 O                       # Species index, atomic number, species label
%endblock ChemicalSpeciesLabel

%block PAO.Basis                 # Define Basis set
Mg                    1                    # Species label, number of l-shells
 n=3   0   1                         # n, l, Nzeta 
   6.620   
   1.000   
C                     2                    # Species label, number of l-shells
 n=2   0   1                         # n, l, Nzeta 
   4.192   
   1.000   
 n=2   1   1                         # n, l, Nzeta 
   4.870   
   1.000   
O                     2                    # Species label, number of l-shells
 n=2   0   1                         # n, l, Nzeta 
   3.305   
   1.000   
 n=2   1   1                         # n, l, Nzeta 
   3.937   
   1.000   
%endblock PAO.Basis

prinput: ----------------------------------------------------------------------

Dumping basis to NetCDF file Mg.ion.nc
Dumping basis to NetCDF file C.ion.nc
Dumping basis to NetCDF file O.ion.nc
coor:   Atomic-coordinates input format  =     Fractional

siesta: WARNING: XV file not found

siesta: Atomic coordinates (Bohr) and species
siesta:      0.00000   0.00000   0.00000  1        1
siesta:     12.51930   5.59740   3.66414  1        2
siesta:      6.25965   2.79870   1.83207  2        3
siesta:     -6.25965  -2.79870  -1.83207  2        4
siesta:      7.25136   0.58061   1.83207  3        5
siesta:      6.25965   4.12944  -0.20079  3        6
siesta:      5.26794   3.68605   3.86493  3        7
siesta:     -7.25136  -0.58061  -1.83207  3        8
siesta:     -6.25965  -4.12944   0.20079  3        9
siesta:     -5.26794  -3.68605  -3.86493  3       10

siesta: System type = bulk      

initatomlists: Number of atoms, orbitals, and projectors:     10    34    80

siesta: ******************** Simulation parameters ****************************
siesta:
siesta: The following are some of the parameters of the simulation.
siesta: A complete list of the parameters used, including default values,
siesta: can be found in file out.fdf
siesta:
redata: Non-Collinear-spin run           =     F
redata: SpinPolarized (Up/Down) run      =     F
redata: Number of spin components        =     1
redata: Long output                      =     F
redata: Number of Atomic Species         =        3
redata: Charge density info will appear in .RHO file
redata: Write Mulliken Pop.              =     NO
redata: Mesh Cutoff                      =    50.0000  Ry
redata: Net charge of the system         =     0.0000 |e|
redata: Min. number of SCF Iter          =        0
redata: Max. number of SCF Iter          =       20
redata: Mix DM or H after convergence    =     F
redata: Recompute H after scf cycle      =     F
redata: Broyden mixing with     4 saved histories.
redata: Mix DM in first SCF step ?       =     F
redata: Write Pulay info on disk?        =     F
redata: Discard 1st Pulay DM after  kick =     F
redata: New DM Mixing Weight             =     0.1000
redata: New DM Occupancy tolerance       = 0.000000000001
redata: No kicks to SCF
redata: DM Mixing Weight for Kicks       =     0.5000
redata: DM Tolerance for SCF             =     0.001000
redata: Require (free) Energy convergence in SCF =     F
redata: DM (free)Energy tolerance for SCF =     0.000010 eV
redata: Require Harris convergence for SCF =     F
redata: DM Harris energy tolerance for SCF =     0.000010 eV
redata: Using Saved Data (generic)   =     F
redata: Use continuation files for DM    =     T
redata: Neglect nonoverlap interactions  =     F
redata: Method of Calculation            =     Diagonalization
redata: Divide and Conquer               =     F
redata: Electronic Temperature           =     0.0019  Ry
redata: Fix the spin of the system       =     F
redata: Dynamics option                  =     Parrinello-Rahman MD run
redata: Initial MD time step             =        1
redata:   Final MD time step             =       50
redata: Length of MD time step           =     0.3000  fs
redata: Initial Temperature of MD run    =     0.0000  K
redata: Perform a MD quench              =     F
redata: Parrinello-Rahman mass           =   100.0000  Ry/fs**2
redata: Target Pressure                  =     0.0007  Ry/Bohr**3
redata: ***********************************************************************
Total number of electrons:    48.000000
Total ionic charge:    48.000000

* ProcessorY, Blocksize:    2   4


* Orbital distribution balance (max,min):     6     4

 Kpoints in:            1 . Kpoints trimmed:            1

siesta: k-grid: Number of k-points =     1
siesta: k-grid: Cutoff (effective) =     2.317 Ang
siesta: k-grid: Supercell and displacements
siesta: k-grid:    1   0   0      0.000
siesta: k-grid:    0   1   0      0.000
siesta: k-grid:    0   0   1      0.000

                     ====================================
                        Begin MD step =      1
                     ====================================

outcoor: Atomic coordinates (fractional):                   
    0.00000000    0.00000000    0.00000000   1       1  Mg
    0.50000000    0.50000000    0.50000000   1       2  Mg
    0.25000000    0.25000000    0.25000000   2       3  C
   -0.25000000   -0.25000000   -0.25000000   2       4  C
    0.52740000   -0.02740000    0.25000000   3       5  O
    0.25000000    0.52740000   -0.02740000   3       6  O
   -0.02740000    0.25000000    0.52740000   3       7  O
   -0.52740000    0.02740000   -0.25000000   3       8  O
   -0.25000000   -0.52740000    0.02740000   3       9  O
    0.02740000   -0.25000000   -0.52740000   3      10  O

outcell: Unit cell vectors (Ang):
        5.677830    0.000000    0.000000
        3.786009    4.231299    0.000000
        3.786009    1.692731    3.877957

outcell: Cell vector modules (Ang)   :    5.677830    5.677830    5.677830
outcell: Cell angles (23,13,12) (deg):     48.1790     48.1790     48.1790
outcell: Cell volume (Ang**3)        :     93.1663
 Folding of H and S is implicitly performed
New_DM. Step:     1
Initializing Density Matrix...
Note: For starting DM, Qtot, Tr[D*S] =         48.00000000         48.58964258
New grid distribution:   1
           1       1:   12    1:    6    1:    3
           2       1:   12    1:    6    4:    6
           3       1:   12    1:    6    7:    9
           4       1:   12    1:    6   10:   12
           5       1:   12    7:   12    1:    3
           6       1:   12    7:   12    4:    6
           7       1:   12    7:   12    7:    9
           8       1:   12    7:   12   10:   12

InitMesh: MESH =    24 x    24 x    24 =       13824
InitMesh: (bp) =    12 x    12 x    12 =        1728
InitMesh: Mesh cutoff (required, used) =    50.000    63.482 Ry
ExtMesh (bp) on 0 =    56 x    50 x    47 =      131600
New grid distribution:   2
           1       6:   12    1:    6    1:    6
           2       7:   12    7:   12    1:    6
           3       1:    6    1:    6    7:   12
           4       1:    5    1:    6    1:    6
           5       7:   12    1:    6    7:   12
           6       1:    6    7:   12    1:    6
           7       1:    7    7:   12    7:   12
           8       8:   12    7:   12    7:   12
New grid distribution:   3
           1       1:    6    7:   12    7:   12
           2       7:   12    1:    6    1:    6
           3       7:   12    1:    6    7:   12
           4       7:   12    7:   12    1:    6
           5       1:    6    1:    6    7:   12
           6       1:    6    1:    6    1:    6
           7       7:   12    7:   12    7:   12
           8       1:    6    7:   12    1:    6
Setting up quadratic distribution...
ExtMesh (bp) on 0 =    51 x    50 x    50 =      127500
PhiOnMesh: Number of (b)points on node 0 =                  252
PhiOnMesh: nlist on node 0 =                 5554

stepf: Fermi-Dirac step function

siesta: Program's energy decomposition (eV):
siesta: Ebs     =      -718.671408
siesta: Eions   =      5228.674091
siesta: Ena     =      1092.429444
siesta: Ekin    =      2069.792750
siesta: Enl     =      -254.036133
siesta: DEna    =        15.961139
siesta: DUscf   =         0.158223
siesta: DUext   =         0.000000
siesta: Exc     =      -679.402766
siesta: eta*DQ  =         0.000000
siesta: Emadel  =         0.000000
siesta: Emeta   =         0.000000
siesta: Emolmec =         0.000000
siesta: Ekinion =         0.000000
siesta: Eharris =     -2966.596231
siesta: Etot    =     -2983.771434
siesta: FreeEng =     -2983.771434

siesta: Eharris(eV) =   -2966.596231


siesta: Eharris(eV) =   -2966.596231

 Broyden: No of relevant DM elements:         1156
 maxit for broyden:            4
 cycle on maxit:  T
 variable weight:  T
 initial alpha:   0.10000000000000001     
timer: Routine,Calls,Time,% =    IterSCF     1       0.016   2.52
SCF_NOT_CONV: SCF did not converge in maximum number of steps.
Geom step, scf iteration, dmax:   1  1    1.795009

Using DM_out to compute the final energy and forces

siesta: E_KS - E_eggbox =     -2945.6640

siesta: Atomic forces (eV/Ang):
     1    0.000000   -0.000000    0.000000
     2   -0.000000    0.000000    0.000000
     3   -0.000001    0.000001   -0.000001
     4    0.000001   -0.000001    0.000001
     5    2.998821   -6.707248   -0.000000
     6    0.000000    4.024012   -6.147148
     7   -2.998820    2.683234    6.147148
     8   -2.998821    6.707248    0.000000
     9   -0.000000   -4.024012    6.147148
    10    2.998820   -2.683234   -6.147148
----------------------------------------
   Tot   -0.000000   -0.000000   -0.000000
----------------------------------------
   Max    6.707248
   Res    3.285730    sqrt( Sum f_i^2 / 3N )
----------------------------------------
   Max    6.707248    constrained

Stress-tensor-Voigt (kbar):      720.98      465.34      428.84      142.85       41.81       93.51
(Free)E + p*V (eV/cell)    -2976.9707
Target enthalpy (eV/cell)    -2939.8491

siesta: Stress tensor (static) (eV/Ang**3):
         0.449996    0.089162    0.058367
         0.089162    0.290438    0.026096
         0.058367    0.026096    0.267657

siesta: Pressure (static):       -538.38539045  kBar

siesta: Stress tensor (total) (eV/Ang**3):
         0.449996    0.089162    0.058367
         0.089162    0.290438    0.026096
         0.058367    0.026096    0.267657

siesta: Pressure (total):       -538.38539045  kBar

siesta: E_kin PR =       5.259 K

siesta: Temp_ion =       0.000 K

                     ====================================
                        Begin MD step =      2
                     ====================================

outcoor: Atomic coordinates (fractional):                   
   -0.00000000   -0.00000000    0.00000000   1       1  Mg
    0.50000000    0.50000000    0.50000000   1       2  Mg
    0.25000000    0.25000000    0.25000000   2       3  C
   -0.25000000   -0.25000000   -0.25000000   2       4  C
    0.52744271   -0.02744271    0.25000000   3       5  O
    0.25000000    0.52744271   -0.02744271   3       6  O
   -0.02744271    0.25000000    0.52744271   3       7  O
   -0.52744271    0.02744271   -0.25000000   3       8  O
   -0.25000000   -0.52744271    0.02744271   3       9  O
    0.02744271   -0.25000000   -0.52744271   3      10  O

outcell: Unit cell vectors (Ang):
        5.677709    0.000074    0.000048
        3.785983    4.231159    0.000048
        3.785983    1.692720    3.877810

outcell: Cell vector modules (Ang)   :    5.677709    5.677709    5.677709
outcell: Cell angles (23,13,12) (deg):     48.1775     48.1775     48.1775
outcell: Cell volume (Ang**3)        :     93.1558
 Folding of H and S is implicitly performed
New_DM. Step:     2
Initializing Density Matrix...
Note: For starting DM, Qtot, Tr[D*S] =         48.00000000         48.58990828
New grid distribution:   1
           1       1:   12    1:    6    1:    3
           2       1:   12    1:    6    4:    6
           3       1:   12    1:    6    7:    9
           4       1:   12    1:    6   10:   12
           5       1:   12    7:   12    1:    3
           6       1:   12    7:   12    4:    6
           7       1:   12    7:   12    7:    9
           8       1:   12    7:   12   10:   12

InitMesh: MESH =    24 x    24 x    24 =       13824
InitMesh: (bp) =    12 x    12 x    12 =        1728
InitMesh: Mesh cutoff (required, used) =    50.000    63.484 Ry
ExtMesh (bp) on 0 =    56 x    50 x    47 =      131600
New grid distribution:   2
           1       6:   12    1:    6    1:    6
           2       7:   12    7:   12    1:    6
           3       1:    6    1:    6    7:   12
           4       1:    5    1:    6    1:    6
           5       7:   12    1:    6    7:   12
           6       1:    6    7:   12    1:    6
           7       1:    7    7:   12    7:   12
           8       8:   12    7:   12    7:   12
New grid distribution:   3
           1       1:    6    7:   12    7:   12
           2       7:   12    1:    6    1:    6
           3       7:   12    1:    6    7:   12
           4       7:   12    7:   12    1:    6
           5       1:    6    1:    6    7:   12
           6       1:    6    1:    6    1:    6
           7       7:   12    7:   12    7:   12
           8       1:    6    7:   12    1:    6
Setting up quadratic distribution...
ExtMesh (bp) on 0 =    51 x    50 x    50 =      127500
PhiOnMesh: Number of (b)points on node 0 =                  252
PhiOnMesh: nlist on node 0 =                 5554

siesta: Eharris(eV) =   -2966.604744


siesta: Eharris(eV) =   -2966.604744

SCF_NOT_CONV: SCF did not converge in maximum number of steps.
Geom step, scf iteration, dmax:   2  1    1.795020

Using DM_out to compute the final energy and forces

siesta: Atomic forces (eV/Ang):
     1    0.000000   -0.000000    0.000000
     2   -0.000000    0.000000    0.000000
     3    0.000000   -0.000001    0.000000
     4   -0.000000    0.000001   -0.000000
     5    2.995559   -6.699949   -0.000000
     6    0.000000    4.019634   -6.140457
     7   -2.995559    2.680314    6.140458
     8   -2.995559    6.699949    0.000000
     9   -0.000000   -4.019634    6.140457
    10    2.995559   -2.680314   -6.140458
----------------------------------------
   Tot   -0.000000   -0.000000   -0.000000
----------------------------------------
   Max    6.699949
   Res    3.282154    sqrt( Sum f_i^2 / 3N )
----------------------------------------
   Max    6.699949    constrained

Stress-tensor-Voigt (kbar):      720.84      465.32      428.84      142.78       41.79       93.47
(Free)E + p*V (eV/cell)    -2976.9674
Target enthalpy (eV/cell)    -2939.8531

siesta: Stress tensor (static) (eV/Ang**3):
         0.449905    0.089117    0.058337
         0.089117    0.290428    0.026083
         0.058337    0.026083    0.267658

siesta: Pressure (static):       -538.33225752  kBar

siesta: Stress tensor (total) (eV/Ang**3):
         0.449905    0.089117    0.058337
         0.089117    0.290428    0.026083
         0.058337    0.026083    0.267658

siesta: Pressure (total):       -538.33225752  kBar

siesta: E_kin PR =      47.320 K

siesta: Temp_ion =       7.493 K

                     ====================================
                        Begin MD step =      3
                     ====================================

outcoor: Atomic coordinates (fractional):                   
   -0.00000000   -0.00000000    0.00000000   1       1  Mg
    0.50000000    0.50000000    0.50000000   1       2  Mg
    0.25000000    0.25000000    0.25000000   2       3  C
   -0.25000000   -0.25000000   -0.25000000   2       4  C
    0.52757075   -0.02757075    0.25000000   3       5  O
    0.25000000    0.52757075   -0.02757075   3       6  O
   -0.02757075    0.25000000    0.52757075   3       7  O
   -0.52757075    0.02757075   -0.25000000   3       8  O
   -0.25000000   -0.52757075    0.02757075   3       9  O
    0.02757075   -0.25000000   -0.52757075   3      10  O

outcell: Unit cell vectors (Ang):
        5.677467    0.000220    0.000144
        3.785931    4.230881    0.000144
        3.785931    1.692696    3.877516

outcell: Cell vector modules (Ang)   :    5.677467    5.677467    5.677467
outcell: Cell angles (23,13,12) (deg):     48.1745     48.1745     48.1745
outcell: Cell volume (Ang**3)        :     93.1346
 Folding of H and S is implicitly performed
New_DM. Step:     3
Initializing Density Matrix...
Note: For starting DM, Qtot, Tr[D*S] =         48.00000000         48.59043989
New grid distribution:   1
           1       1:   12    1:    6    1:    3
           2       1:   12    1:    6    4:    6
           3       1:   12    1:    6    7:    9
           4       1:   12    1:    6   10:   12
           5       1:   12    7:   12    1:    3
           6       1:   12    7:   12    4:    6
           7       1:   12    7:   12    7:    9
           8       1:   12    7:   12   10:   12

InitMesh: MESH =    24 x    24 x    24 =       13824
InitMesh: (bp) =    12 x    12 x    12 =        1728
InitMesh: Mesh cutoff (required, used) =    50.000    63.487 Ry
ExtMesh (bp) on 0 =    56 x    50 x    47 =      131600
New grid distribution:   2
           1       6:   12    1:    6    1:    6
           2       7:   12    7:   12    1:    6
           3       1:    6    1:    6    7:   12
           4       1:    5    1:    6    1:    6
           5       7:   12    1:    6    7:   12
           6       1:    6    7:   12    1:    6
           7       1:    7    7:   12    7:   12
           8       8:   12    7:   12    7:   12
New grid distribution:   3
           1       1:    6    7:   12    7:   12
           2       7:   12    1:    6    1:    6
           3       7:   12    1:    6    7:   12
           4       7:   12    7:   12    1:    6
           5       1:    6    1:    6    7:   12
           6       1:    6    1:    6    1:    6
           7       7:   12    7:   12    7:   12
           8       1:    6    7:   12    1:    6
Setting up quadratic distribution...
ExtMesh (bp) on 0 =    51 x    50 x    50 =      127500
PhiOnMesh: Number of (b)points on node 0 =                  252
PhiOnMesh: nlist on node 0 =                 5566

siesta: Eharris(eV) =   -2966.630707


siesta: Eharris(eV) =   -2966.630707

SCF_NOT_CONV: SCF did not converge in maximum number of steps.
Geom step, scf iteration, dmax:   3  1    1.795026

Using DM_out to compute the final energy and forces

siesta: Atomic forces (eV/Ang):
     1    0.000000   -0.000000    0.000000
     2   -0.000000    0.000000    0.000000
     3    0.000000   -0.000001   -0.000000
     4   -0.000000    0.000001    0.000000
     5    2.984218   -6.674584    0.000000
     6   -0.000001    4.004418   -6.117212
     7   -2.984218    2.670167    6.117212
     8   -2.984218    6.674584   -0.000000
     9    0.000001   -4.004418    6.117212
    10    2.984218   -2.670167   -6.117212
----------------------------------------
   Tot   -0.000000   -0.000000   -0.000000
----------------------------------------
   Max    6.674584
   Res    3.269729    sqrt( Sum f_i^2 / 3N )
----------------------------------------
   Max    6.674584    constrained

Stress-tensor-Voigt (kbar):      721.17      466.44      430.07      142.34       41.66       93.18
(Free)E + p*V (eV/cell)    -2977.0239
Target enthalpy (eV/cell)    -2939.8663

siesta: Stress tensor (static) (eV/Ang**3):
         0.450132    0.088811    0.058137
         0.088811    0.291203    0.025993
         0.058137    0.025993    0.268511

siesta: Pressure (static):       -539.32250077  kBar

siesta: Stress tensor (total) (eV/Ang**3):
         0.450111    0.088843    0.058158
         0.088843    0.291124    0.026003
         0.058158    0.026003    0.268424

siesta: Pressure (total):       -539.22326860  kBar

siesta: E_kin PR =     131.501 K

siesta: Temp_ion =      29.904 K

                     ====================================
                        Begin MD step =      4
                     ====================================

outcoor: Atomic coordinates (fractional):                   
   -0.00000000   -0.00000000    0.00000000   1       1  Mg
    0.50000000    0.50000000    0.50000000   1       2  Mg
    0.25000000    0.25000000    0.25000000   2       3  C
   -0.25000000   -0.25000000   -0.25000000   2       4  C
    0.52778384   -0.02778384    0.25000000   3       5  O
    0.25000000    0.52778384   -0.02778384   3       6  O
   -0.02778384    0.25000000    0.52778384   3       7  O
   -0.52778384    0.02778384   -0.25000000   3       8  O
   -0.25000000   -0.52778384    0.02778384   3       9  O
    0.02778384   -0.25000000   -0.52778384   3      10  O

outcell: Unit cell vectors (Ang):
        5.677103    0.000441    0.000289
        3.785853    4.230463    0.000289
        3.785853    1.692662    3.877075

outcell: Cell vector modules (Ang)   :    5.677103    5.677103    5.677103
outcell: Cell angles (23,13,12) (deg):     48.1701     48.1701     48.1701
outcell: Cell volume (Ang**3)        :     93.1028
 Folding of H and S is implicitly performed
New_DM. Step:     4
Initializing Density Matrix...
Note: For starting DM, Qtot, Tr[D*S] =         48.00000000         48.59123844
New grid distribution:   1
           1       1:   12    1:    6    1:    3
           2       1:   12    1:    6    4:    6
           3       1:   12    1:    6    7:    9
           4       1:   12    1:    6   10:   12
           5       1:   12    7:   12    1:    3
           6       1:   12    7:   12    4:    6
           7       1:   12    7:   12    7:    9
           8       1:   12    7:   12   10:   12

InitMesh: MESH =    24 x    24 x    24 =       13824
InitMesh: (bp) =    12 x    12 x    12 =        1728
InitMesh: Mesh cutoff (required, used) =    50.000    63.492 Ry
ExtMesh (bp) on 0 =    56 x    50 x    47 =      131600
New grid distribution:   2
           1       6:   12    1:    6    1:    6
           2       7:   12    7:   12    1:    6
           3       1:    6    1:    6    7:   12
           4       1:    5    1:    6    1:    6
           5       7:   12    1:    6    7:   12
           6       1:    6    7:   12    1:    6
           7       1:    7    7:   12    7:   12
           8       8:   12    7:   12    7:   12
New grid distribution:   3
           1       1:    6    7:   12    7:   12
           2       7:   12    1:    6    1:    6
           3       7:   12    1:    6    7:   12
           4       7:   12    7:   12    1:    6
           5       1:    6    1:    6    7:   12
           6       1:    6    1:    6    1:    6
           7       7:   12    7:   12    7:   12
           8       1:    6    7:   12    1:    6
Setting up quadratic distribution...
ExtMesh (bp) on 0 =    51 x    50 x    50 =      127500
PhiOnMesh: Number of (b)points on node 0 =                  252
PhiOnMesh: nlist on node 0 =                 5566

siesta: Eharris(eV) =   -2966.673907


siesta: Eharris(eV) =   -2966.673907

SCF_NOT_CONV: SCF did not converge in maximum number of steps.
Geom step, scf iteration, dmax:   4  1    1.795029

Using DM_out to compute the final energy and forces

siesta: Atomic forces (eV/Ang):
     1    0.000000   -0.000000    0.000000
     2   -0.000000    0.000000    0.000000
     3   -0.000000    0.000000    0.000001
     4    0.000000   -0.000000   -0.000001
     5    2.964990   -6.631576   -0.000001
     6    0.000000    3.978613   -6.077795
     7   -2.964990    2.652962    6.077794
     8   -2.964990    6.631576    0.000001
     9   -0.000000   -3.978613    6.077795
    10    2.964990   -2.652962   -6.077794
----------------------------------------
   Tot   -0.000000   -0.000000   -0.000000
----------------------------------------
   Max    6.631576
   Res    3.248660    sqrt( Sum f_i^2 / 3N )
----------------------------------------
   Max    6.631576    constrained

Stress-tensor-Voigt (kbar):      722.05      468.69      432.51      141.58       41.44       92.68
(Free)E + p*V (eV/cell)    -2977.1415
Target enthalpy (eV/cell)    -2939.8883

siesta: Stress tensor (static) (eV/Ang**3):
         0.450747    0.088238    0.057762
         0.088238    0.292843    0.025825
         0.057762    0.025825    0.270297

siesta: Pressure (static):       -541.48171658  kBar

siesta: Stress tensor (total) (eV/Ang**3):
         0.450665    0.088367    0.057846
         0.088367    0.292530    0.025863
         0.057846    0.025863    0.269951

siesta: Pressure (total):       -541.08560931  kBar

siesta: E_kin PR =     258.163 K

siesta: Temp_ion =      67.015 K

                     ====================================
                        Begin MD step =      5
                     ====================================

outcoor: Atomic coordinates (fractional):                   
   -0.00000000   -0.00000000    0.00000000   1       1  Mg
    0.50000000    0.50000000    0.50000000   1       2  Mg
    0.25000000    0.25000000    0.25000000   2       3  C
   -0.25000000   -0.25000000   -0.25000000   2       4  C
    0.52808149   -0.02808149    0.25000000   3       5  O
    0.25000000    0.52808149   -0.02808149   3       6  O
   -0.02808149    0.25000000    0.52808149   3       7  O
   -0.52808149    0.02808149   -0.25000000   3       8  O
   -0.25000000   -0.52808149    0.02808149   3       9  O
    0.02808149   -0.25000000   -0.52808149   3      10  O

outcell: Unit cell vectors (Ang):
        5.676619    0.000736    0.000482
        3.785750    4.229905    0.000482
        3.785750    1.692615    3.876487

outcell: Cell vector modules (Ang)   :    5.676619    5.676619    5.676619
outcell: Cell angles (23,13,12) (deg):     48.1641     48.1641     48.1641
outcell: Cell volume (Ang**3)        :     93.0604
 Folding of H and S is implicitly performed
New_DM. Step:     5
Initializing Density Matrix...
Note: For starting DM, Qtot, Tr[D*S] =         48.00000000         48.59230592
New grid distribution:   1
           1       1:   12    1:    6    1:    3
           2       1:   12    1:    6    4:    6
           3       1:   12    1:    6    7:    9
           4       1:   12    1:    6   10:   12
           5       1:   12    7:   12    1:    3
           6       1:   12    7:   12    4:    6
           7       1:   12    7:   12    7:    9
           8       1:   12    7:   12   10:   12

InitMesh: MESH =    24 x    24 x    24 =       13824
InitMesh: (bp) =    12 x    12 x    12 =        1728
InitMesh: Mesh cutoff (required, used) =    50.000    63.499 Ry
ExtMesh (bp) on 0 =    56 x    50 x    47 =      131600
New grid distribution:   2
           1       6:   12    1:    6    1:    6
           2       7:   12    7:   12    1:    6
           3       1:    6    1:    6    7:   12
           4       1:    5    1:    6    1:    6
           5       7:   12    1:    6    7:   12
           6       1:    6    7:   12    1:    6
           7       1:    7    7:   12    7:   12
           8       8:   12    7:   12    7:   12
New grid distribution:   3
           1       1:    6    7:   12    7:   12
           2       7:   12    1:    6    1:    6
           3       7:   12    1:    6    7:   12
           4       7:   12    7:   12    1:    6
           5       1:    6    1:    6    7:   12
           6       1:    6    1:    6    1:    6
           7       7:   12    7:   12    7:   12
           8       1:    6    7:   12    1:    6
Setting up quadratic distribution...
ExtMesh (bp) on 0 =    51 x    50 x    50 =      127500
PhiOnMesh: Number of (b)points on node 0 =                  252
PhiOnMesh: nlist on node 0 =                 5567

siesta: Eharris(eV) =   -2966.734043


siesta: Eharris(eV) =   -2966.734043

SCF_NOT_CONV: SCF did not converge in maximum number of steps.
Geom step, scf iteration, dmax:   5  1    1.795030

Using DM_out to compute the final energy and forces

siesta: Atomic forces (eV/Ang):
     1   -0.000000   -0.000000    0.000000
     2   -0.000000    0.000000    0.000000
     3   -0.000000    0.000001   -0.000001
     4    0.000000   -0.000001    0.000001
     5    2.938079   -6.571388    0.000000
     6    0.000000    3.942504   -6.022632
     7   -2.938079    2.628884    6.022633
     8   -2.938079    6.571388   -0.000000
     9   -0.000000   -3.942504    6.022632
    10    2.938079   -2.628884   -6.022633
----------------------------------------
   Tot   -0.000000   -0.000000   -0.000000
----------------------------------------
   Max    6.571388
   Res    3.219175    sqrt( Sum f_i^2 / 3N )
----------------------------------------
   Max    6.571388    constrained

Stress-tensor-Voigt (kbar):      723.41      471.85      435.93      140.57       41.14       92.02
(Free)E + p*V (eV/cell)    -2977.3085
Target enthalpy (eV/cell)    -2939.9187

siesta: Stress tensor (static) (eV/Ang**3):
         0.451696    0.087450    0.057246
         0.087450    0.295202    0.025595
         0.057246    0.025595    0.272858

siesta: Pressure (static):       -544.61607212  kBar

siesta: Stress tensor (total) (eV/Ang**3):
         0.451511    0.087739    0.057435
         0.087739    0.294500    0.025679
         0.057435    0.025679    0.272082

siesta: Pressure (total):       -543.72809904  kBar

siesta: E_kin PR =     427.980 K

siesta: Temp_ion =     118.457 K

                     ====================================
                        Begin MD step =      6
                     ====================================

outcoor: Atomic coordinates (fractional):                   
   -0.00000000   -0.00000000    0.00000000   1       1  Mg
    0.50000000    0.50000000    0.50000000   1       2  Mg
    0.25000000    0.25000000    0.25000000   2       3  C
   -0.25000000   -0.25000000   -0.25000000   2       4  C
    0.52846303   -0.02846303    0.25000000   3       5  O
    0.25000000    0.52846303   -0.02846303   3       6  O
   -0.02846303    0.25000000    0.52846303   3       7  O
   -0.52846303    0.02846303   -0.25000000   3       8  O
   -0.25000000   -0.52846303    0.02846303   3       9  O
    0.02846303   -0.25000000   -0.52846303   3      10  O

outcell: Unit cell vectors (Ang):
        5.676012    0.001105    0.000724
        3.785621    4.229207    0.000724
        3.785621    1.692557    3.875750

outcell: Cell vector modules (Ang)   :    5.676012    5.676012    5.676012
outcell: Cell angles (23,13,12) (deg):     48.1567     48.1567     48.1567
outcell: Cell volume (Ang**3)        :     93.0074
 Folding of H and S is implicitly performed
New_DM. Step:     6
Initializing Density Matrix...
Note: For starting DM, Qtot, Tr[D*S] =         48.00000000         48.59364513
New grid distribution:   1
           1       1:   12    1:    6    1:    3
           2       1:   12    1:    6    4:    6
           3       1:   12    1:    6    7:    9
           4       1:   12    1:    6   10:   12
           5       1:   12    7:   12    1:    3
           6       1:   12    7:   12    4:    6
           7       1:   12    7:   12    7:    9
           8       1:   12    7:   12   10:   12

InitMesh: MESH =    24 x    24 x    24 =       13824
InitMesh: (bp) =    12 x    12 x    12 =        1728
InitMesh: Mesh cutoff (required, used) =    50.000    63.507 Ry
ExtMesh (bp) on 0 =    56 x    50 x    47 =      131600
New grid distribution:   2
           1       6:   12    1:    6    1:    6
           2       7:   12    7:   12    1:    6
           3       1:    6    1:    6    7:   12
           4       1:    5    1:    6    1:    6
           5       7:   12    1:    6    7:   12
           6       1:    6    7:   12    1:    6
           7       1:    7    7:   12    7:   12
           8       8:   12    7:   12    7:   12
New grid distribution:   3
           1       1:    6    7:   12    7:   12
           2       7:   12    1:    6    1:    6
           3       7:   12    1:    6    7:   12
           4       7:   12    7:   12    1:    6
           5       1:    6    1:    6    7:   12
           6       1:    6    1:    6    1:    6
           7       7:   12    7:   12    7:   12
           8       1:    6    7:   12    1:    6
Setting up quadratic distribution...
ExtMesh (bp) on 0 =    51 x    50 x    50 =      127500
PhiOnMesh: Number of (b)points on node 0 =                  252
PhiOnMesh: nlist on node 0 =                 5567

siesta: Eharris(eV) =   -2966.810256


siesta: Eharris(eV) =   -2966.810256

SCF_NOT_CONV: SCF did not converge in maximum number of steps.
Geom step, scf iteration, dmax:   6  1    1.795033

Using DM_out to compute the final energy and forces

siesta: Atomic forces (eV/Ang):
     1    0.000000   -0.000000    0.000000
     2   -0.000000    0.000000    0.000000
     3    0.000000    0.000000   -0.000000
     4   -0.000000   -0.000000    0.000000
     5    2.893815   -6.472386   -0.000001
     6   -0.000000    3.883107   -5.931897
     7   -2.893815    2.589279    5.931898
     8   -2.893815    6.472386    0.000001
     9    0.000000   -3.883107    5.931897
    10    2.893815   -2.589279   -5.931898
----------------------------------------
   Tot   -0.000000   -0.000000   -0.000000
----------------------------------------
   Max    6.472386
   Res    3.170676    sqrt( Sum f_i^2 / 3N )
----------------------------------------
   Max    6.472386    constrained

Stress-tensor-Voigt (kbar):      724.22      477.41      442.17      137.92       40.37       90.28
(Free)E + p*V (eV/cell)    -2977.5689
Target enthalpy (eV/cell)    -2939.9565

siesta: Stress tensor (static) (eV/Ang**3):
         0.452342    0.085570    0.056015
         0.085570    0.299213    0.025044
         0.056015    0.025044    0.277349

siesta: Pressure (static):       -549.50118037  kBar

siesta: Stress tensor (total) (eV/Ang**3):
         0.452016    0.086081    0.056350
         0.086081    0.297971    0.025194
         0.056350    0.025194    0.275977

siesta: Pressure (total):       -547.93083219  kBar

siesta: E_kin PR =     642.244 K

siesta: Temp_ion =     183.604 K

                     ====================================
                        Begin MD step =      7
                     ====================================

outcoor: Atomic coordinates (fractional):                   
   -0.00000000   -0.00000000    0.00000000   1       1  Mg
    0.50000000    0.50000000    0.50000000   1       2  Mg
    0.25000000    0.25000000    0.25000000   2       3  C
   -0.25000000   -0.25000000   -0.25000000   2       4  C
    0.52892728   -0.02892728    0.25000000   3       5  O
    0.25000000    0.52892728   -0.02892728   3       6  O
   -0.02892728    0.25000000    0.52892728   3       7  O
   -0.52892728    0.02892728   -0.25000000   3       8  O
   -0.25000000   -0.52892728    0.02892728   3       9  O
    0.02892728   -0.25000000   -0.52892728   3      10  O

outcell: Unit cell vectors (Ang):
        5.675283    0.001551    0.001015
        3.785466    4.228366    0.001015
        3.785466    1.692488    3.874863

outcell: Cell vector modules (Ang)   :    5.675283    5.675283    5.675283
outcell: Cell angles (23,13,12) (deg):     48.1477     48.1477     48.1477
outcell: Cell volume (Ang**3)        :     92.9435
 Folding of H and S is implicitly performed
New_DM. Step:     7
Initializing Density Matrix...
Note: For starting DM, Qtot, Tr[D*S] =         48.00000000         48.59526075
New grid distribution:   1
           1       1:   12    1:    6    1:    3
           2       1:   12    1:    6    4:    6
           3       1:   12    1:    6    7:    9
           4       1:   12    1:    6   10:   12
           5       1:   12    7:   12    1:    3
           6       1:   12    7:   12    4:    6
           7       1:   12    7:   12    7:    9
           8       1:   12    7:   12   10:   12

InitMesh: MESH =    24 x    24 x    24 =       13824
InitMesh: (bp) =    12 x    12 x    12 =        1728
InitMesh: Mesh cutoff (required, used) =    50.000    63.517 Ry
ExtMesh (bp) on 0 =    56 x    50 x    47 =      131600
New grid distribution:   2
           1       6:   12    1:    6    1:    6
           2       7:   12    7:   12    1:    6
           3       1:    6    1:    6    7:   12
           4       1:    5    1:    6    1:    6
           5       7:   12    1:    6    7:   12
           6       1:    6    7:   12    1:    6
           7       1:    7    7:   12    7:   12
           8       8:   12    7:   12    7:   12
New grid distribution:   3
           1       1:    6    7:   12    7:   12
           2       7:   12    1:    6    1:    6
           3       7:   12    1:    6    7:   12
           4       7:   12    7:   12    1:    6
           5       1:    6    1:    6    7:   12
           6       1:    6    1:    6    1:    6
           7       7:   12    7:   12    7:   12
           8       1:    6    7:   12    1:    6
Setting up quadratic distribution...
ExtMesh (bp) on 0 =    51 x    50 x    50 =      127500
PhiOnMesh: Number of (b)points on node 0 =                  252
PhiOnMesh: nlist on node 0 =                 5567

siesta: Eharris(eV) =   -2966.901942


siesta: Eharris(eV) =   -2966.901942

SCF_NOT_CONV: SCF did not converge in maximum number of steps.
Geom step, scf iteration, dmax:   7  1    1.795038

Using DM_out to compute the final energy and forces

siesta: Atomic forces (eV/Ang):
     1    0.000000   -0.000000    0.000000
     2   -0.000000    0.000000    0.000000
     3   -0.000000   -0.000000    0.000000
     4    0.000000    0.000000   -0.000000
     5    2.844476   -6.362033    0.000000
     6   -0.000000    3.816902   -5.830761
     7   -2.844476    2.545132    5.830760
     8   -2.844476    6.362033   -0.000000
     9    0.000000   -3.816902    5.830761
    10    2.844476   -2.545132   -5.830760
----------------------------------------
   Tot   -0.000000   -0.000000   -0.000000
----------------------------------------
   Max    6.362033
   Res    3.116617    sqrt( Sum f_i^2 / 3N )
----------------------------------------
   Max    6.362033    constrained

Stress-tensor-Voigt (kbar):      727.94      486.02      451.48      135.19       39.57       88.50
(Free)E + p*V (eV/cell)    -2978.0057
Target enthalpy (eV/cell)    -2940.0005

siesta: Stress tensor (static) (eV/Ang**3):
         0.454847    0.083583    0.054715
         0.083583    0.305273    0.024463
         0.054715    0.024463    0.283917

siesta: Pressure (static):       -557.58271219  kBar

siesta: Stress tensor (total) (eV/Ang**3):
         0.454340    0.084376    0.055234
         0.084376    0.303347    0.024695
         0.055234    0.024695    0.281789

siesta: Pressure (total):       -555.14732124  kBar

siesta: E_kin PR =     903.330 K

siesta: Temp_ion =     261.630 K

                     ====================================
                        Begin MD step =      8
                     ====================================

outcoor: Atomic coordinates (fractional):                   
   -0.00000000   -0.00000000    0.00000000   1       1  Mg
    0.50000000    0.50000000    0.50000000   1       2  Mg
    0.25000000    0.25000000    0.25000000   2       3  C
   -0.25000000   -0.25000000   -0.25000000   2       4  C
    0.52947296   -0.02947296    0.25000000   3       5  O
    0.25000000    0.52947296   -0.02947296   3       6  O
   -0.02947296    0.25000000    0.52947296   3       7  O
   -0.52947296    0.02947296   -0.25000000   3       8  O
   -0.25000000   -0.52947296    0.02947296   3       9  O
    0.02947296   -0.25000000   -0.52947296   3      10  O

outcell: Unit cell vectors (Ang):
        5.674429    0.002074    0.001358
        3.785287    4.227381    0.001358
        3.785287    1.692408    3.873823

outcell: Cell vector modules (Ang)   :    5.674430    5.674430    5.674430
outcell: Cell angles (23,13,12) (deg):     48.1371     48.1371     48.1371
outcell: Cell volume (Ang**3)        :     92.8687
 Folding of H and S is implicitly performed
New_DM. Step:     8
Initializing Density Matrix...
Note: For starting DM, Qtot, Tr[D*S] =         48.00000000         48.59715941
New grid distribution:   1
           1       1:   12    1:    6    1:    3
           2       1:   12    1:    6    4:    6
           3       1:   12    1:    6    7:    9
           4       1:   12    1:    6   10:   12
           5       1:   12    7:   12    1:    3
           6       1:   12    7:   12    4:    6
           7       1:   12    7:   12    7:    9
           8       1:   12    7:   12   10:   12

InitMesh: MESH =    24 x    24 x    24 =       13824
InitMesh: (bp) =    12 x    12 x    12 =        1728
InitMesh: Mesh cutoff (required, used) =    50.000    63.529 Ry
ExtMesh (bp) on 0 =    56 x    50 x    47 =      131600
New grid distribution:   2
           1       6:   12    1:    6    1:    6
           2       7:   12    7:   12    1:    6
           3       1:    6    1:    6    7:   12
           4       1:    5    1:    6    1:    6
           5       7:   12    1:    6    7:   12
           6       1:    6    7:   12    1:    6
           7       1:    7    7:   12    7:   12
           8       8:   12    7:   12    7:   12
New grid distribution:   3
           1       1:    6    7:   12    7:   12
           2       7:   12    1:    6    1:    6
           3       7:   12    1:    6    7:   12
           4       7:   12    7:   12    1:    6
           5       1:    6    1:    6    7:   12
           6       1:    6    1:    6    1:    6
           7       7:   12    7:   12    7:   12
           8       1:    6    7:   12    1:    6
Setting up quadratic distribution...
ExtMesh (bp) on 0 =    51 x    50 x    50 =      127500
PhiOnMesh: Number of (b)points on node 0 =                  252
PhiOnMesh: nlist on node 0 =                 5577

siesta: Eharris(eV) =   -2967.007753


siesta: Eharris(eV) =   -2967.007753

SCF_NOT_CONV: SCF did not converge in maximum number of steps.
Geom step, scf iteration, dmax:   8  1    1.795049

Using DM_out to compute the final energy and forces

siesta: Atomic forces (eV/Ang):
     1    0.000000   -0.000000    0.000000
     2   -0.000000    0.000000    0.000000
     3    0.000000   -0.000000    0.000000
     4   -0.000000    0.000000   -0.000000
     5    2.738140   -6.124198    0.000000
     6    0.000000    3.674213   -5.612788
     7   -2.738140    2.449986    5.612787
     8   -2.738140    6.124198   -0.000000
     9   -0.000000   -3.674213    5.612788
    10    2.738140   -2.449986   -5.612787
----------------------------------------
   Tot   -0.000000   -0.000000   -0.000000
----------------------------------------
   Max    6.124198
   Res    3.000107    sqrt( Sum f_i^2 / 3N )
----------------------------------------
   Max    6.124198    constrained

Stress-tensor-Voigt (kbar):      734.27      505.15      472.44      128.03       37.47       83.81
(Free)E + p*V (eV/cell)    -2978.9212
Target enthalpy (eV/cell)    -2940.0498

siesta: Stress tensor (static) (eV/Ang**3):
         0.459010    0.078779    0.051570
         0.078779    0.318034    0.023057
         0.051570    0.023057    0.297905

siesta: Pressure (static):       -574.09231948  kBar

siesta: Stress tensor (total) (eV/Ang**3):
         0.458288    0.079909    0.052310
         0.079909    0.315288    0.023388
         0.052310    0.023388    0.294870

siesta: Pressure (total):       -570.61953164  kBar

siesta: E_kin PR =    1216.983 K

siesta: Temp_ion =     350.833 K

                     ====================================
                        Begin MD step =      9
                     ====================================

outcoor: Atomic coordinates (fractional):                   
   -0.00000000   -0.00000000    0.00000000   1       1  Mg
    0.50000000    0.50000000    0.50000000   1       2  Mg
    0.25000000    0.25000000    0.25000000   2       3  C
   -0.25000000   -0.25000000   -0.25000000   2       4  C
    0.53009720   -0.03009720    0.25000000   3       5  O
    0.25000000    0.53009720   -0.03009720   3       6  O
   -0.03009720    0.25000000    0.53009720   3       7  O
   -0.53009720    0.03009720   -0.25000000   3       8  O
   -0.25000000   -0.53009720    0.03009720   3       9  O
    0.03009720   -0.25000000   -0.53009720   3      10  O

outcell: Unit cell vectors (Ang):
        5.673449    0.002680    0.001754
        3.785085    4.226247    0.001754
        3.785085    1.692318    3.872626

outcell: Cell vector modules (Ang)   :    5.673450    5.673450    5.673450
outcell: Cell angles (23,13,12) (deg):     48.1249     48.1249     48.1249
outcell: Cell volume (Ang**3)        :     92.7826
 Folding of H and S is implicitly performed
New_DM. Step:     9
Initializing Density Matrix...
Note: For starting DM, Qtot, Tr[D*S] =         48.00000000         48.59935459
New grid distribution:   1
           1       1:   12    1:    6    1:    3
           2       1:   12    1:    6    4:    6
           3       1:   12    1:    6    7:    9
           4       1:   12    1:    6   10:   12
           5       1:   12    7:   12    1:    3
           6       1:   12    7:   12    4:    6
           7       1:   12    7:   12    7:    9
           8       1:   12    7:   12   10:   12

InitMesh: MESH =    24 x    24 x    24 =       13824
InitMesh: (bp) =    12 x    12 x    12 =        1728
InitMesh: Mesh cutoff (required, used) =    50.000    63.542 Ry
ExtMesh (bp) on 0 =    56 x    50 x    47 =      131600
New grid distribution:   2
           1       6:   12    1:    6    1:    6
           2       7:   12    7:   12    1:    6
           3       1:    6    1:    6    7:   12
           4       1:    5    1:    6    1:    6
           5       7:   12    1:    6    7:   12
           6       1:    6    7:   12    1:    6
           7       1:    7    7:   12    7:   12
           8       8:   12    7:   12    7:   12
New grid distribution:   3
           1       1:    6    7:   12    7:   12
           2       7:   12    1:    6    1:    6
           3       7:   12    1:    6    7:   12
           4       7:   12    7:   12    1:    6
           5       1:    6    1:    6    7:   12
           6       1:    6    1:    6    1:    6
           7       7:   12    7:   12    7:   12
           8       1:    6    7:   12    1:    6
Setting up quadratic distribution...
ExtMesh (bp) on 0 =    51 x    50 x    50 =      127500
PhiOnMesh: Number of (b)points on node 0 =                  252
PhiOnMesh: nlist on node 0 =                 5593

siesta: Eharris(eV) =   -2967.125475


siesta: Eharris(eV) =   -2967.125475

SCF_NOT_CONV: SCF did not converge in maximum number of steps.
Geom step, scf iteration, dmax:   9  1    1.795081

Using DM_out to compute the final energy and forces

siesta: Atomic forces (eV/Ang):
     1    0.000000   -0.000000    0.000000
     2   -0.000000    0.000000    0.000000
     3   -0.000000    0.000000    0.000000
     4    0.000000   -0.000000   -0.000000
     5    2.679555   -5.993166    0.000000
     6   -0.000000    3.595600   -5.492697
     7   -2.679554    2.397567    5.492697
     8   -2.679555    5.993166   -0.000000
     9    0.000000   -3.595600    5.492697
    10    2.679554   -2.397567   -5.492697
----------------------------------------
   Tot   -0.000000   -0.000000   -0.000000
----------------------------------------
   Max    5.993166
   Res    2.935918    sqrt( Sum f_i^2 / 3N )
----------------------------------------
   Max    5.993166    constrained

Stress-tensor-Voigt (kbar):      737.20      512.03      479.89      125.82       36.83       82.37
(Free)E + p*V (eV/cell)    -2979.2695
Target enthalpy (eV/cell)    -2940.1010

siesta: Stress tensor (static) (eV/Ang**3):
         0.461086    0.077014    0.050414
         0.077014    0.323268    0.022540
         0.050414    0.022540    0.303590

siesta: Pressure (static):       -581.03263043  kBar

siesta: Stress tensor (total) (eV/Ang**3):
         0.460117    0.078531    0.051408
         0.078531    0.319583    0.022984
         0.051408    0.022984    0.299518

siesta: Pressure (total):       -576.37198064  kBar

siesta: E_kin PR =    1585.999 K

siesta: Temp_ion =     449.981 K

                     ====================================
                        Begin MD step =     10
                     ====================================

outcoor: Atomic coordinates (fractional):                   
   -0.00000000   -0.00000000    0.00000000   1       1  Mg
    0.50000000    0.50000000    0.50000000   1       2  Mg
    0.25000000    0.25000000    0.25000000   2       3  C
   -0.25000000   -0.25000000   -0.25000000   2       4  C
    0.53079847   -0.03079847    0.25000000   3       5  O
    0.25000000    0.53079847   -0.03079847   3       6  O
   -0.03079847    0.25000000    0.53079847   3       7  O
   -0.53079847    0.03079847   -0.25000000   3       8  O
   -0.25000000   -0.53079847    0.03079847   3       9  O
    0.03079847   -0.25000000   -0.53079847   3      10  O

outcell: Unit cell vectors (Ang):
        5.672342    0.003369    0.002205
        3.784860    4.224962    0.002205
        3.784860    1.692217    3.871268

outcell: Cell vector modules (Ang)   :    5.672343    5.672343    5.672343
outcell: Cell angles (23,13,12) (deg):     48.1109     48.1109     48.1109
outcell: Cell volume (Ang**3)        :     92.6850
 Folding of H and S is implicitly performed
New_DM. Step:    10
Initializing Density Matrix...
Note: For starting DM, Qtot, Tr[D*S] =         48.00000000         48.60185267
New grid distribution:   1
           1       1:   12    1:    6    1:    3
           2       1:   12    1:    6    4:    6
           3       1:   12    1:    6    7:    9
           4       1:   12    1:    6   10:   12
           5       1:   12    7:   12    1:    3
           6       1:   12    7:   12    4:    6
           7       1:   12    7:   12    7:    9
           8       1:   12    7:   12   10:   12

InitMesh: MESH =    24 x    24 x    24 =       13824
InitMesh: (bp) =    12 x    12 x    12 =        1728
InitMesh: Mesh cutoff (required, used) =    50.000    63.557 Ry
ExtMesh (bp) on 0 =    56 x    50 x    47 =      131600
New grid distribution:   2
           1       6:   12    1:    6    1:    6
           2       7:   12    7:   12    1:    6
           3       1:    6    1:    6    7:   12
           4       1:    5    1:    6    1:    6
           5       7:   12    1:    6    7:   12
           6       1:    6    7:   12    1:    6
           7       1:    7    7:   12    7:   12
           8       8:   12    7:   12    7:   12
New grid distribution:   3
           1       1:    6    7:   12    7:   12
           2       7:   12    1:    6    1:    6
           3       7:   12    1:    6    7:   12
           4       7:   12    7:   12    1:    6
           5       1:    6    1:    6    7:   12
           6       1:    6    1:    6    1:    6
           7       7:   12    7:   12    7:   12
           8       1:    6    7:   12    1:    6
Setting up quadratic distribution...
ExtMesh (bp) on 0 =    51 x    50 x    50 =      127500
PhiOnMesh: Number of (b)points on node 0 =                  252
PhiOnMesh: nlist on node 0 =                 5605

siesta: Eharris(eV) =   -2967.255029


siesta: Eharris(eV) =   -2967.255029

SCF_NOT_CONV: SCF did not converge in maximum number of steps.
Geom step, scf iteration, dmax:  10  1    1.795128

Using DM_out to compute the final energy and forces

siesta: Atomic forces (eV/Ang):
     1    0.000000   -0.000000    0.000000
     2   -0.000000    0.000000    0.000000
     3    0.000000   -0.000000   -0.000001
     4   -0.000000    0.000000    0.000001
     5    2.604369   -5.825002   -0.000001
     6    0.000001    3.494710   -5.338576
     7   -2.604369    2.330293    5.338576
     8   -2.604369    5.825002    0.000001
     9   -0.000001   -3.494710    5.338576
    10    2.604369   -2.330293   -5.338576
----------------------------------------
   Tot   -0.000000   -0.000000   -0.000000
----------------------------------------
   Max    5.825002
   Res    2.853538    sqrt( Sum f_i^2 / 3N )
----------------------------------------
   Max    5.825002    constrained

Stress-tensor-Voigt (kbar):      739.87      519.87      488.46      122.94       35.98       80.48
(Free)E + p*V (eV/cell)    -2979.6496
Target enthalpy (eV/cell)    -2940.1543

siesta: Stress tensor (static) (eV/Ang**3):
         0.463030    0.074782    0.048954
         0.074782    0.329205    0.021887
         0.048954    0.021887    0.310097

siesta: Pressure (static):       -588.71692807  kBar

siesta: Stress tensor (total) (eV/Ang**3):
         0.461786    0.076731    0.050229
         0.076731    0.324474    0.022457
         0.050229    0.022457    0.304869

siesta: Pressure (total):       -582.73350820  kBar

siesta: E_kin PR =    2009.181 K

siesta: Temp_ion =     558.668 K

                     ====================================
                        Begin MD step =     11
                     ====================================

outcoor: Atomic coordinates (fractional):                   
   -0.00000000   -0.00000000    0.00000000   1       1  Mg
    0.50000000    0.50000000    0.50000000   1       2  Mg
    0.25000000    0.25000000    0.25000000   2       3  C
   -0.25000000   -0.25000000   -0.25000000   2       4  C
    0.53157482   -0.03157482    0.25000000   3       5  O
    0.25000000    0.53157482   -0.03157482   3       6  O
   -0.03157482    0.25000000    0.53157482   3       7  O
   -0.53157482    0.03157482   -0.25000000   3       8  O
   -0.25000000   -0.53157482    0.03157482   3       9  O
    0.03157482   -0.25000000   -0.53157482   3      10  O

outcell: Unit cell vectors (Ang):
        5.671106    0.004143    0.002712
        3.784613    4.223525    0.002712
        3.784613    1.692107    3.869747

outcell: Cell vector modules (Ang)   :    5.671108    5.671108    5.671108
outcell: Cell angles (23,13,12) (deg):     48.0953     48.0953     48.0953
outcell: Cell volume (Ang**3)        :     92.5758
 Folding of H and S is implicitly performed
New_DM. Step:    11
Initializing Density Matrix...
Note: For starting DM, Qtot, Tr[D*S] =         48.00000000         48.60466106
New grid distribution:   1
           1       1:   12    1:    6    1:    3
           2       1:   12    1:    6    4:    6
           3       1:   12    1:    6    7:    9
           4       1:   12    1:    6   10:   12
           5       1:   12    7:   12    1:    3
           6       1:   12    7:   12    4:    6
           7       1:   12    7:   12    7:    9
           8       1:   12    7:   12   10:   12

InitMesh: MESH =    24 x    24 x    24 =       13824
InitMesh: (bp) =    12 x    12 x    12 =        1728
InitMesh: Mesh cutoff (required, used) =    50.000    63.574 Ry
ExtMesh (bp) on 0 =    56 x    50 x    47 =      131600
New grid distribution:   2
           1       6:   12    1:    6    1:    6
           2       7:   12    7:   12    1:    6
           3       1:    6    1:    6    7:   12
           4       1:    5    1:    6    1:    6
           5       7:   12    1:    6    7:   12
           6       1:    6    7:   12    1:    6
           7       1:    7    7:   12    7:   12
           8       8:   12    7:   12    7:   12
New grid distribution:   3
           1       1:    6    7:   12    7:   12
           2       7:   12    1:    6    1:    6
           3       7:   12    1:    6    7:   12
           4       7:   12    7:   12    1:    6
           5       1:    6    1:    6    7:   12
           6       1:    6    1:    6    1:    6
           7       7:   12    7:   12    7:   12
           8       1:    6    7:   12    1:    6
Setting up quadratic distribution...
ExtMesh (bp) on 0 =    51 x    50 x    50 =      127500
PhiOnMesh: Number of (b)points on node 0 =                  252
PhiOnMesh: nlist on node 0 =                 5617

siesta: Eharris(eV) =   -2967.394666


siesta: Eharris(eV) =   -2967.394666

SCF_NOT_CONV: SCF did not converge in maximum number of steps.
Geom step, scf iteration, dmax:  11  1    1.795193

Using DM_out to compute the final energy and forces

siesta: Atomic forces (eV/Ang):
     1    0.000000   -0.000000    0.000000
     2   -0.000000    0.000000    0.000000
     3   -0.000000   -0.000000    0.000001
     4    0.000000    0.000000   -0.000001
     5    2.521180   -5.638941    0.000001
     6    0.000000    3.383083   -5.168054
     7   -2.521180    2.255858    5.168052
     8   -2.521180    5.638941   -0.000001
     9   -0.000000   -3.383083    5.168054
    10    2.521180   -2.255858   -5.168052
----------------------------------------
   Tot   -0.000000   -0.000000   -0.000000
----------------------------------------
   Max    5.638941
   Res    2.762391    sqrt( Sum f_i^2 / 3N )
----------------------------------------
   Max    5.638941    constrained

Stress-tensor-Voigt (kbar):      743.56      528.41      497.69      120.23       35.19       78.70
(Free)E + p*V (eV/cell)    -2980.0698
Target enthalpy (eV/cell)    -2940.2077

siesta: Stress tensor (static) (eV/Ang**3):
         0.465634    0.072617    0.047536
         0.072617    0.335684    0.021254
         0.047536    0.021253    0.317129

siesta: Pressure (static):       -597.32293062  kBar

siesta: Stress tensor (total) (eV/Ang**3):
         0.464087    0.075038    0.049121
         0.075038    0.329804    0.021962
         0.049121    0.021962    0.310631

siesta: Pressure (total):       -589.88637355  kBar

siesta: E_kin PR =    2489.020 K

siesta: Temp_ion =     675.468 K

                     ====================================
                        Begin MD step =     12
                     ====================================

outcoor: Atomic coordinates (fractional):                   
   -0.00000000   -0.00000000    0.00000000   1       1  Mg
    0.50000000    0.50000000    0.50000000   1       2  Mg
    0.25000000    0.25000000    0.25000000   2       3  C
   -0.25000000   -0.25000000   -0.25000000   2       4  C
    0.53242409   -0.03242408    0.25000000   3       5  O
    0.25000000    0.53242408   -0.03242408   3       6  O
   -0.03242408    0.25000000    0.53242408   3       7  O
   -0.53242409    0.03242408   -0.25000000   3       8  O
   -0.25000000   -0.53242408    0.03242408   3       9  O
    0.03242408   -0.25000000   -0.53242408   3      10  O

outcell: Unit cell vectors (Ang):
        5.669739    0.005004    0.003276
        3.784344    4.221932    0.003276
        3.784344    1.691986    3.868062

outcell: Cell vector modules (Ang)   :    5.669742    5.669742    5.669742
outcell: Cell angles (23,13,12) (deg):     48.0779     48.0779     48.0779
outcell: Cell volume (Ang**3)        :     92.4548
 Folding of H and S is implicitly performed
New_DM. Step:    12
Initializing Density Matrix...
Note: For starting DM, Qtot, Tr[D*S] =         48.00000000         48.60778792
New grid distribution:   1
           1       1:   12    1:    6    1:    3
           2       1:   12    1:    6    4:    6
           3       1:   12    1:    6    7:    9
           4       1:   12    1:    6   10:   12
           5       1:   12    7:   12    1:    3
           6       1:   12    7:   12    4:    6
           7       1:   12    7:   12    7:    9
           8       1:   12    7:   12   10:   12

InitMesh: MESH =    24 x    24 x    24 =       13824
InitMesh: (bp) =    12 x    12 x    12 =        1728
InitMesh: Mesh cutoff (required, used) =    50.000    63.592 Ry
ExtMesh (bp) on 0 =    56 x    50 x    47 =      131600
New grid distribution:   2
           1       6:   12    1:    6    1:    6
           2       7:   12    7:   12    1:    6
           3       1:    6    1:    6    7:   12
           4       1:    5    1:    6    1:    6
           5       7:   12    1:    6    7:   12
           6       1:    6    7:   12    1:    6
           7       1:    7    7:   12    7:   12
           8       8:   12    7:   12    7:   12
New grid distribution:   3
           1       1:    6    7:   12    7:   12
           2       7:   12    1:    6    1:    6
           3       7:   12    1:    6    7:   12
           4       7:   12    7:   12    1:    6
           5       1:    6    1:    6    7:   12
           6       1:    6    1:    6    1:    6
           7       7:   12    7:   12    7:   12
           8       1:    6    7:   12    1:    6
Setting up quadratic distribution...
ExtMesh (bp) on 0 =    51 x    50 x    50 =      127500
PhiOnMesh: Number of (b)points on node 0 =                  252
PhiOnMesh: nlist on node 0 =                 5620

siesta: Eharris(eV) =   -2967.541044


siesta: Eharris(eV) =   -2967.541044

SCF_NOT_CONV: SCF did not converge in maximum number of steps.
Geom step, scf iteration, dmax:  12  1    1.795278

Using DM_out to compute the final energy and forces

siesta: Atomic forces (eV/Ang):
     1    0.000000   -0.000000    0.000000
     2   -0.000000    0.000000    0.000000
     3   -0.000000   -0.000001    0.000002
     4    0.000000    0.000001   -0.000002
     5    2.349544   -5.255055   -0.000000
     6   -0.000000    3.152770   -4.816225
     7   -2.349544    2.102286    4.816223
     8   -2.349544    5.255055    0.000000
     9    0.000000   -3.152770    4.816225
    10    2.349544   -2.102286   -4.816223
----------------------------------------
   Tot   -0.000000   -0.000000   -0.000000
----------------------------------------
   Max    5.255055
   Res    2.574334    sqrt( Sum f_i^2 / 3N )
----------------------------------------
   Max    5.255055    constrained

Stress-tensor-Voigt (kbar):      755.73      561.05      533.26      108.79       31.84       71.21
(Free)E + p*V (eV/cell)    -2981.6131
Target enthalpy (eV/cell)    -2940.2571

siesta: Stress tensor (static) (eV/Ang**3):
         0.473556    0.064968    0.042529
         0.064968    0.357295    0.019015
         0.042529    0.019015    0.340695

siesta: Pressure (static):       -625.68088365  kBar

siesta: Stress tensor (total) (eV/Ang**3):
         0.471684    0.067899    0.044448
         0.067899    0.350177    0.019873
         0.044448    0.019873    0.332828

siesta: Pressure (total):       -616.67885372  kBar

siesta: E_kin PR =    3039.483 K

siesta: Temp_ion =     796.922 K

                     ====================================
                        Begin MD step =     13
                     ====================================

outcoor: Atomic coordinates (fractional):                   
   -0.00000000   -0.00000000    0.00000000   1       1  Mg
    0.50000000    0.50000000    0.50000000   1       2  Mg
    0.25000000    0.25000000    0.25000000   2       3  C
   -0.25000000   -0.25000000   -0.25000000   2       4  C
    0.53334158   -0.03334158    0.25000000   3       5  O
    0.25000000    0.53334158   -0.03334158   3       6  O
   -0.03334158    0.25000000    0.53334158   3       7  O
   -0.53334158    0.03334158   -0.25000000   3       8  O
   -0.25000000   -0.53334158    0.03334158   3       9  O
    0.03334158   -0.25000000   -0.53334158   3      10  O

outcell: Unit cell vectors (Ang):
        5.668238    0.005960    0.003901
        3.784055    4.220176    0.003901
        3.784055    1.691857    3.866203

outcell: Cell vector modules (Ang)   :    5.668243    5.668243    5.668243
outcell: Cell angles (23,13,12) (deg):     48.0585     48.0585     48.0585
outcell: Cell volume (Ang**3)        :     92.3215
 Folding of H and S is implicitly performed
New_DM. Step:    13
Initializing Density Matrix...
Note: For starting DM, Qtot, Tr[D*S] =         48.00000000         48.61125666
New grid distribution:   1
           1       1:   12    1:    6    1:    3
           2       1:   12    1:    6    4:    6
[...]
           4       1:   12    1:    6   10:   12
           5       1:   12    7:   12    1:    3
           6       1:   12    7:   12    4:    6
           7       1:   12    7:   12    7:    9
           8       1:   12    7:   12   10:   12

InitMesh: MESH =    24 x    24 x    24 =       13824
InitMesh: (bp) =    12 x    12 x    12 =        1728
InitMesh: Mesh cutoff (required, used) =    50.000    65.347 Ry
ExtMesh (bp) on 0 =    60 x    54 x    51 =      165240
New grid distribution:   2
           1       1:    6    7:   12    7:   12
           2       7:   12    1:    6    1:    6
           3       7:   12    1:    6    7:   12
           4       7:   12    7:   12    1:    6
           5       1:    6    1:    6    7:   12
           6       1:    6    1:    6    1:    6
           7       7:   12    7:   12    7:   12
           8       1:    6    7:   12    1:    6
New grid distribution:   3
           1       1:    6    7:   12    7:   12
           2       7:   12    1:    6    1:    6
           3       7:   12    1:    6    7:   12
           4       7:   12    7:   12    1:    6
           5       1:    6    1:    6    7:   12
           6       1:    6    1:    6    1:    6
           7       7:   12    7:   12    7:   12
           8       1:    6    7:   12    1:    6
Setting up quadratic distribution...
ExtMesh (bp) on 0 =    54 x    54 x    54 =      157464
PhiOnMesh: Number of (b)points on node 0 =                  216
PhiOnMesh: nlist on node 0 =                 5661

siesta: Eharris(eV) =   -2971.011535


siesta: Eharris(eV) =   -2971.011535

SCF_NOT_CONV: SCF did not converge in maximum number of steps.
Geom step, scf iteration, dmax:  47  1    1.835886

Using DM_out to compute the final energy and forces

siesta: Atomic forces (eV/Ang):
     1   -0.000000   -0.000000    0.000000
     2    0.000000    0.000000    0.000000
     3   -0.000000    0.000000    0.000001
     4    0.000000   -0.000000   -0.000001
     5   -0.788851    1.764367    0.000000
     6    0.000000   -1.058532    1.617029
     7    0.788851   -0.705834   -1.617031
     8    0.788851   -1.764367   -0.000000
     9   -0.000000    1.058532   -1.617029
    10   -0.788851    0.705834    1.617031
----------------------------------------
   Tot    0.000000   -0.000000   -0.000000
----------------------------------------
   Max    1.764367
   Res    0.864323    sqrt( Sum f_i^2 / 3N )
----------------------------------------
   Max    1.764367    constrained

Stress-tensor-Voigt (kbar):     1047.15     1065.58     1068.21      -10.29       -3.01       -6.74
(Free)E + p*V (eV/cell)    -2990.5586
Target enthalpy (eV/cell)    -2933.3556

siesta: Stress tensor (static) (eV/Ang**3):
         0.659712   -0.016033   -0.010495
        -0.016033    0.688403   -0.004693
        -0.010495   -0.004693    0.692500

siesta: Pressure (static):      -1089.82000591  kBar

siesta: Stress tensor (total) (eV/Ang**3):
         0.653575   -0.006425   -0.004206
        -0.006425    0.665074   -0.001881
        -0.004206   -0.001881    0.666716

siesta: Pressure (total):      -1060.31342827  kBar

siesta: E_kin PR =   98646.327 K

siesta: Temp_ion =    1858.660 K

                     ====================================
                        Begin MD step =     48
                     ====================================

outcoor: Atomic coordinates (fractional):                   
    0.00000000   -0.00000000    0.00000000   1       1  Mg
    0.50000000    0.50000000    0.50000000   1       2  Mg
    0.25000000    0.25000000    0.25000000   2       3  C
   -0.25000000   -0.25000000   -0.25000000   2       4  C
    0.58264754   -0.08264754    0.25000000   3       5  O
    0.25000000    0.58264754   -0.08264754   3       6  O
   -0.08264754    0.25000000    0.58264754   3       7  O
   -0.58264754    0.08264754   -0.25000000   3       8  O
   -0.25000000   -0.58264754    0.08264754   3       9  O
    0.08264754   -0.25000000   -0.58264754   3      10  O

outcell: Unit cell vectors (Ang):
        5.515402    0.120928    0.079161
        3.767820    4.029617    0.079161
        3.767820    1.684599    3.661449

outcell: Cell vector modules (Ang)   :    5.517296    5.517296    5.517296
outcell: Cell angles (23,13,12) (deg):     45.6620     45.6620     45.6620
outcell: Cell volume (Ang**3)        :     78.3084
 Folding of H and S is implicitly performed
New_DM. Step:    48
Initializing Density Matrix...
Note: For starting DM, Qtot, Tr[D*S] =         48.00000000         49.10849019
New grid distribution:   1
           1       1:   12    1:    6    1:    3
           2       1:   12    1:    6    4:    6
           3       1:   12    1:    6    7:    9
           4       1:   12    1:    6   10:   12
           5       1:   12    7:   12    1:    3
           6       1:   12    7:   12    4:    6
           7       1:   12    7:   12    7:    9
           8       1:   12    7:   12   10:   12

InitMesh: MESH =    24 x    24 x    24 =       13824
InitMesh: (bp) =    12 x    12 x    12 =        1728
InitMesh: Mesh cutoff (required, used) =    50.000    65.431 Ry
ExtMesh (bp) on 0 =    60 x    54 x    51 =      165240
New grid distribution:   2
           1       1:    6    7:   12    7:   12
           2       7:   12    1:    6    1:    6
           3       7:   12    1:    6    7:   12
           4       7:   12    7:   12    1:    6
           5       1:    6    1:    6    7:   12
           6       1:    6    1:    6    1:    6
           7       7:   12    7:   12    7:   12
           8       1:    6    7:   12    1:    6
New grid distribution:   3
           1       1:    6    7:   12    7:   12
           2       7:   12    1:    6    1:    6
           3       7:   12    1:    6    7:   12
           4       7:   12    7:   12    1:    6
           5       1:    6    1:    6    7:   12
           6       1:    6    1:    6    1:    6
           7       7:   12    7:   12    7:   12
           8       1:    6    7:   12    1:    6
Setting up quadratic distribution...
ExtMesh (bp) on 0 =    54 x    54 x    54 =      157464
PhiOnMesh: Number of (b)points on node 0 =                  216
PhiOnMesh: nlist on node 0 =                 5708

siesta: Eharris(eV) =   -2971.072741


siesta: Eharris(eV) =   -2971.072741

SCF_NOT_CONV: SCF did not converge in maximum number of steps.
Geom step, scf iteration, dmax:  48  1    1.838629

Using DM_out to compute the final energy and forces

siesta: Atomic forces (eV/Ang):
     1   -0.000000    0.000000   -0.000000
     2   -0.000000   -0.000000   -0.000000
     3   -0.000000    0.000000   -0.000000
     4    0.000000   -0.000000    0.000000
     5   -0.892697    1.996631    0.000000
     6   -0.000000   -1.197880    1.829900
     7    0.892698   -0.798752   -1.829900
     8    0.892697   -1.996631   -0.000000
     9    0.000000    1.197880   -1.829900
    10   -0.892698    0.798752    1.829900
----------------------------------------
   Tot   -0.000000   -0.000000   -0.000000
----------------------------------------
   Max    1.996631
   Res    0.978105    sqrt( Sum f_i^2 / 3N )
----------------------------------------
   Max    1.996631    constrained

Stress-tensor-Voigt (kbar):     1053.13     1065.09     1066.80       -6.68       -1.96       -4.38
(Free)E + p*V (eV/cell)    -2989.6491
Target enthalpy (eV/cell)    -2932.8716

siesta: Stress tensor (static) (eV/Ang**3):
         0.663344   -0.013630   -0.008922
        -0.013630    0.687735   -0.003989
        -0.008922   -0.003989    0.691217

siesta: Pressure (static):      -1090.71815882  kBar

siesta: Stress tensor (total) (eV/Ang**3):
         0.657304   -0.004172   -0.002731
        -0.004172    0.664770   -0.001221
        -0.002731   -0.001221    0.665836

siesta: Pressure (total):      -1061.67176704  kBar

siesta: E_kin PR =  104389.377 K

siesta: Temp_ion =    1807.545 K

                     ====================================
                        Begin MD step =     49
                     ====================================

outcoor: Atomic coordinates (fractional):                   
    0.00000000   -0.00000000    0.00000000   1       1  Mg
    0.50000000    0.50000000    0.50000000   1       2  Mg
    0.25000000    0.25000000    0.25000000   2       3  C
   -0.25000000   -0.25000000   -0.25000000   2       4  C
    0.58407492   -0.08407492    0.25000000   3       5  O
    0.25000000    0.58407492   -0.08407492   3       6  O
   -0.08407492    0.25000000    0.58407492   3       7  O
   -0.58407492    0.08407492   -0.25000000   3       8  O
   -0.25000000   -0.58407492    0.08407492   3       9  O
    0.08407492   -0.25000000   -0.58407492   3      10  O

outcell: Unit cell vectors (Ang):
        5.507738    0.127159    0.083240
        3.767354    4.019751    0.083240
        3.767354    1.684390    3.650775

outcell: Cell vector modules (Ang)   :    5.509835    5.509835    5.509835
outcell: Cell angles (23,13,12) (deg):     45.5284     45.5284     45.5284
outcell: Cell volume (Ang**3)        :     77.6136
 Folding of H and S is implicitly performed
New_DM. Step:    49
Initializing Density Matrix...
Note: For starting DM, Qtot, Tr[D*S] =         48.00000000         49.14116906
New grid distribution:   1
           1       1:   12    1:    6    1:    3
           2       1:   12    1:    6    4:    6
           3       1:   12    1:    6    7:    9
           4       1:   12    1:    6   10:   12
           5       1:   12    7:   12    1:    3
           6       1:   12    7:   12    4:    6
           7       1:   12    7:   12    7:    9
           8       1:   12    7:   12   10:   12

InitMesh: MESH =    24 x    24 x    24 =       13824
InitMesh: (bp) =    12 x    12 x    12 =        1728
InitMesh: Mesh cutoff (required, used) =    50.000    65.517 Ry
ExtMesh (bp) on 0 =    60 x    54 x    51 =      165240
New grid distribution:   2
           1       1:    6    7:   12    7:   12
           2       7:   12    1:    6    1:    6
           3       7:   12    1:    6    7:   12
           4       7:   12    7:   12    1:    6
           5       1:    6    1:    6    7:   12
           6       1:    6    1:    6    1:    6
           7       7:   12    7:   12    7:   12
           8       1:    6    7:   12    1:    6
New grid distribution:   3
           1       1:    6    7:   12    7:   12
           2       7:   12    1:    6    1:    6
           3       7:   12    1:    6    7:   12
           4       7:   12    7:   12    1:    6
           5       1:    6    1:    6    7:   12
           6       1:    6    1:    6    1:    6
           7       7:   12    7:   12    7:   12
           8       1:    6    7:   12    1:    6
Setting up quadratic distribution...
ExtMesh (bp) on 0 =    54 x    54 x    54 =      157464
PhiOnMesh: Number of (b)points on node 0 =                  216
PhiOnMesh: nlist on node 0 =                 5727

siesta: Eharris(eV) =   -2971.126262


siesta: Eharris(eV) =   -2971.126262

SCF_NOT_CONV: SCF did not converge in maximum number of steps.
Geom step, scf iteration, dmax:  49  1    1.841396

Using DM_out to compute the final energy and forces

siesta: Atomic forces (eV/Ang):
     1    0.000000    0.000000    0.000000
     2    0.000000   -0.000000   -0.000000
     3    0.000001   -0.000000   -0.000001
     4   -0.000001    0.000000    0.000001
     5   -0.959684    2.146458    0.000001
     6   -0.000000   -1.287768    1.967213
     7    0.959684   -0.858690   -1.967214
     8    0.959684   -2.146458   -0.000001
     9    0.000000    1.287768   -1.967213
    10   -0.959684    0.858690    1.967214
----------------------------------------
   Tot    0.000000   -0.000000   -0.000000
----------------------------------------
   Max    2.146458
   Res    1.051501    sqrt( Sum f_i^2 / 3N )
----------------------------------------
   Max    2.146458    constrained

Stress-tensor-Voigt (kbar):     1059.02     1077.49     1080.13      -10.32       -3.02       -6.76
(Free)E + p*V (eV/cell)    -2989.1513
Target enthalpy (eV/cell)    -2932.3668

siesta: Stress tensor (static) (eV/Ang**3):
         0.666909   -0.015719   -0.010290
        -0.015719    0.695039   -0.004601
        -0.010290   -0.004601    0.699056

siesta: Pressure (static):      -1100.70919343  kBar

siesta: Stress tensor (total) (eV/Ang**3):
         0.660984   -0.006442   -0.004217
        -0.006442    0.672512   -0.001885
        -0.004217   -0.001885    0.674157

siesta: Pressure (total):      -1072.21625407  kBar

siesta: E_kin PR =  110297.103 K

siesta: Temp_ion =    1750.866 K

                     ====================================
                        Begin MD step =     50
                     ====================================

outcoor: Atomic coordinates (fractional):                   
    0.00000000   -0.00000000    0.00000000   1       1  Mg
    0.50000000    0.50000000    0.50000000   1       2  Mg
    0.25000000    0.25000000    0.25000000   2       3  C
   -0.25000000   -0.25000000   -0.25000000   2       4  C
    0.58548449   -0.08548448    0.25000000   3       5  O
    0.25000000    0.58548449   -0.08548449   3       6  O
   -0.08548448    0.25000000    0.58548449   3       7  O
   -0.58548449    0.08548448   -0.25000000   3       8  O
   -0.25000000   -0.58548449    0.08548449   3       9  O
    0.08548448   -0.25000000   -0.58548449   3      10  O

outcell: Unit cell vectors (Ang):
        5.499877    0.133574    0.087440
        3.766893    4.009615    0.087440
        3.766893    1.684184    3.639805

outcell: Cell vector modules (Ang)   :    5.502194    5.502194    5.502194
outcell: Cell angles (23,13,12) (deg):     45.3904     45.3904     45.3904
outcell: Cell volume (Ang**3)        :     76.9031
 Folding of H and S is implicitly performed
New_DM. Step:    50
Initializing Density Matrix...
Note: For starting DM, Qtot, Tr[D*S] =         48.00000000         49.17551009
New grid distribution:   1
           1       1:   12    1:    6    1:    3
           2       1:   12    1:    6    4:    6
           3       1:   12    1:    6    7:    9
           4       1:   12    1:    6   10:   12
           5       1:   12    7:   12    1:    3
           6       1:   12    7:   12    4:    6
           7       1:   12    7:   12    7:    9
           8       1:   12    7:   12   10:   12

InitMesh: MESH =    24 x    24 x    24 =       13824
InitMesh: (bp) =    12 x    12 x    12 =        1728
InitMesh: Mesh cutoff (required, used) =    50.000    65.606 Ry
ExtMesh (bp) on 0 =    60 x    54 x    51 =      165240
New grid distribution:   2
           1       1:    6    7:   12    7:   12
           2       7:   12    1:    6    1:    6
           3       7:   12    1:    6    7:   12
           4       7:   12    7:   12    1:    6
           5       1:    6    1:    6    7:   12
           6       1:    6    1:    6    1:    6
           7       7:   12    7:   12    7:   12
           8       1:    6    7:   12    1:    6
New grid distribution:   3
           1       1:    6    7:   12    7:   12
           2       7:   12    1:    6    1:    6
           3       7:   12    1:    6    7:   12
           4       7:   12    7:   12    1:    6
           5       1:    6    1:    6    7:   12
           6       1:    6    1:    6    1:    6
           7       7:   12    7:   12    7:   12
           8       1:    6    7:   12    1:    6
Setting up quadratic distribution...
ExtMesh (bp) on 0 =    54 x    54 x    54 =      157464
PhiOnMesh: Number of (b)points on node 0 =                  216
PhiOnMesh: nlist on node 0 =                 5813

siesta: Eharris(eV) =   -2971.183252


siesta: Eharris(eV) =   -2971.183252

SCF_NOT_CONV: SCF did not converge in maximum number of steps.
Geom step, scf iteration, dmax:  50  1    1.844185

Using DM_out to compute the final energy and forces

siesta: Atomic forces (eV/Ang):
     1   -0.000000   -0.000000    0.000000
     2    0.000000    0.000000   -0.000000
     3   -0.000000    0.000001   -0.000000
     4    0.000000   -0.000001    0.000000
     5   -1.042792    2.332337   -0.000001
     6    0.000000   -1.399286    2.137572
     7    1.042792   -0.933051   -2.137573
     8    1.042792   -2.332337    0.000001
     9   -0.000000    1.399286   -2.137572
    10   -1.042792    0.933051    2.137573
----------------------------------------
   Tot    0.000000   -0.000000   -0.000000
----------------------------------------
   Max    2.332337
   Res    1.142560    sqrt( Sum f_i^2 / 3N )
----------------------------------------
   Max    2.332337    constrained

Stress-tensor-Voigt (kbar):     1077.76     1118.79     1124.65      -22.93       -6.71      -15.01
(Free)E + p*V (eV/cell)    -2989.7978
Target enthalpy (eV/cell)    -2931.8602

siesta: Stress tensor (static) (eV/Ang**3):
         0.678469   -0.023378   -0.015303
        -0.023378    0.720304   -0.006842
        -0.015303   -0.006842    0.726277

siesta: Pressure (static):      -1134.91454338  kBar

siesta: Stress tensor (total) (eV/Ang**3):
         0.672678   -0.014311   -0.009368
        -0.014311    0.698287   -0.004188
        -0.009368   -0.004188    0.701944

siesta: Pressure (total):      -1107.06755812  kBar

siesta: E_kin PR =  116487.369 K

siesta: Temp_ion =    1689.673 K

outcell: Unit cell vectors (Ang):
        5.499877    0.133574    0.087440
        3.766893    4.009615    0.087440
        3.766893    1.684184    3.639805

outcell: Cell vector modules (Ang)   :    5.502194    5.502194    5.502194
outcell: Cell angles (23,13,12) (deg):     45.3904     45.3904     45.3904
outcell: Cell volume (Ang**3)        :     76.9031

siesta: Program's energy decomposition (eV):
siesta: Ebs     =      -736.099976
siesta: Eions   =      5228.674091
siesta: Ena     =      1092.841594
siesta: Ekin    =      2411.129936
siesta: Enl     =      -399.387042
siesta: DEna    =      -121.413046
siesta: DUscf   =        36.081405
siesta: DUext   =         0.000000
siesta: Exc     =      -727.238788
siesta: eta*DQ  =         0.000000
siesta: Emadel  =         0.000000
siesta: Emeta   =         0.000000
siesta: Emolmec =         0.000000
siesta: Ekinion =         1.965589
siesta: Eharris =     -2969.217663
siesta: Etot    =     -2934.694444
siesta: FreeEng =     -2934.694444

siesta: Final energy (eV):
siesta:  Band Struct. =    -736.099976
siesta:       Kinetic =    2411.129936
siesta:       Hartree =     894.739004
siesta:    Ext. field =       0.000000
siesta:   Exch.-corr. =    -727.238788
siesta:  Ion-electron =   -3750.353246
siesta:       Ion-ion =   -1764.936938
siesta:       Ekinion =       1.965589
siesta:         Total =   -2934.694444

siesta: Atomic forces (eV/Ang):
siesta:      1   -0.000000   -0.000000    0.000000
siesta:      2    0.000000    0.000000   -0.000000
siesta:      3   -0.000000    0.000001   -0.000000
siesta:      4    0.000000   -0.000001    0.000000
siesta:      5   -1.042792    2.332337   -0.000001
siesta:      6    0.000000   -1.399286    2.137572
siesta:      7    1.042792   -0.933051   -2.137573
siesta:      8    1.042792   -2.332337    0.000001
siesta:      9   -0.000000    1.399286   -2.137572
siesta:     10   -1.042792    0.933051    2.137573
siesta: ----------------------------------------
siesta:    Tot    0.000000   -0.000000   -0.000000

siesta: Stress tensor (static) (eV/Ang**3):
siesta:     0.678469   -0.023378   -0.015303
siesta:    -0.023378    0.720304   -0.006842
siesta:    -0.015303   -0.006842    0.726277

siesta: Cell volume =         76.903104 Ang**3

siesta: Pressure (static):
siesta:                Solid            Molecule  Units
siesta:          -0.00771484         -0.00668407  Ry/Bohr**3
siesta:          -0.70835029         -0.61370842  eV/Ang**3
siesta:       -1134.91454338       -983.27992570  kBar
(Free)E+ p_basis*V_orbitals  =       -2935.465736
(Free)Eharris+ p_basis*V_orbitals  =       -2969.988955
>> End of run:   2-JUL-2017  11:56:25
Job completed
