Siesta Version:                                        siesta-3.0-rc2
Architecture  : macosx-openmpi
Compiler flags: /opt/openmpi.gcc.gfortran/bin/mpif90 -O2
PARALLEL version

* Running on    2 nodes in parallel
>> Start of run:  30-JUN-2010  16:28:45

                           ***********************       
                           *  WELCOME TO SIESTA  *       
                           ***********************       

reinit: Reading from standard input
************************** Dump of input data file ****************************
#
# MgCO3 in primitive cell. SZ. Parrinello-Rahman. Harris
#
SystemName	MgCo3 R-3c Harris -- SZ, 50 R -- PR at 10 Gpa
SystemLabel	md_pr
NumberOfSpecies		3
NumberOfAtoms	       10
%block ChemicalSpeciesLabel
      1      12     Mg
      2       6     C
      3       8     O
%endblock ChemicalSpeciesLabel
PAO.BasisSize  SZ
Diag.Divide-and-Conquer F
# Rhombohedral primitive cell
# (HEX 3-fold cell had A=4.635 and C=15.023, so alpha=48.179 degrees
#  and a=5.67783 Ang)
LatticeConstant     5.67783 Ang
%block LatticeParameters
1.0 1.0 1.0 48.179 48.179 48.179
%endblock LatticeParameters
AtomicCoordinatesFormat    Fractional
%block AtomicCoordinatesAndAtomicSpecies
  0.0         0.0         0.0      1
  0.5         0.5         0.5      1
  0.25        0.25        0.25     2
 -0.25       -0.25       -0.25     2
  0.5274     -0.0274      0.25     3
  0.25        0.5274     -0.0274   3
 -0.0274      0.25        0.5274   3
 -0.5274      0.0274     -0.25     3
 -0.25       -0.5274      0.0274   3
  0.0274     -0.25       -0.5274   3
%endblock AtomicCoordinatesAndAtomicSpecies
kgrid_cutoff 2.0 Ang
Solution.Method       diagon
MeshCutoff             50 Ry
DM.NumberBroyden       4
DM.UseSaveDM           T
DM.MixingWeight        0.1         # New DM amount for next SCF cycle
DM.Tolerance           1.d-3       # Tolerance in maximum difference
                                   # between input and output DM
MaxSCFIterations       20
WriteCoorStep      .true.
WriteForces        .true.
HarrisFunctional T
WriteMDHistory     .true.
MD.UseSaveXV       T
#####MD.Initial.temperature 300 K
MD.TypeOfRun         ParrinelloRahman
MD.Target-pressure   10.0 GPa
MD.Initial.Time.Step      1
MD.Final.Time.Step        50
MD.Length.Time.Step       0.3 fs
************************** End of input data file *****************************

reinit: -----------------------------------------------------------------------
reinit: System Name: MgCo3 R-3c Harris -- SZ, 50 R -- PR at 10 Gpa
reinit: -----------------------------------------------------------------------
reinit: System Label: md_pr                                                       
reinit: -----------------------------------------------------------------------

initatom: Reading input for the pseudopotentials and atomic orbitals ----------
 Species number:            1  Label: Mg Atomic number:          12
 Species number:            2  Label: C Atomic number:           6
 Species number:            3  Label: O Atomic number:           8
Ground state valence configuration:   3s02
Reading pseudopotential information in formatted form from Mg.psf

Valence configuration for pseudopotential generation:
3s( 2.00) rc: 2.59
3p( 0.00) rc: 2.59
3d( 0.00) rc: 2.59
4f( 0.00) rc: 2.59
Ground state valence configuration:   2s02  2p02
Reading pseudopotential information in formatted form from C.psf

Valence configuration for pseudopotential generation:
2s( 2.00) rc: 1.49
2p( 2.00) rc: 1.52
3d( 0.00) rc: 1.58
Ground state valence configuration:   2s02  2p04
Reading pseudopotential information in formatted form from O.psf

Valence configuration for pseudopotential generation:
2s( 2.00) rc: 1.14
2p( 4.00) rc: 1.14
3d( 0.00) rc: 1.14
4f( 0.00) rc: 1.14
For Mg, standard SIESTA heuristics set lmxkb to 1
 (one more than the basis l, including polarization orbitals).
Use PS.lmax or PS.KBprojectors blocks to override.
For C, standard SIESTA heuristics set lmxkb to 2
 (one more than the basis l, including polarization orbitals).
Use PS.lmax or PS.KBprojectors blocks to override.
For O, standard SIESTA heuristics set lmxkb to 2
 (one more than the basis l, including polarization orbitals).
Use PS.lmax or PS.KBprojectors blocks to override.

<basis_specs>
===============================================================================
Mg                   Z=  12    Mass=  24.310        Charge= 0.17977+309
Lmxo=0 Lmxkb=1     BasisType=split      Semic=F
L=0  Nsemic=0  Cnfigmx=3
          n=1  nzeta=1  polorb=0
            splnorm:   0.15000    
               vcte:    0.0000    
               rinn:    0.0000    
                rcs:    0.0000    
            lambdas:    1.0000    
-------------------------------------------------------------------------------
L=0  Nkbl=1  erefs: 0.17977+309
L=1  Nkbl=1  erefs: 0.17977+309
===============================================================================
</basis_specs>

atom: Called for Mg                    (Z =  12)

read_vps: Pseudopotential generation method:
read_vps: ATM3      Troullier-Martins                       
Total valence charge:    2.00000

xc_check: Exchange-correlation functional:
xc_check: Ceperley-Alder
V l=0 = -2*Zval/r beyond r=  3.5878
V l=1 = -2*Zval/r beyond r=  3.5878
All V_l potentials equal beyond r=  2.5600
This should be close to max(r_c) in ps generation
All pots = -2*Zval/r beyond r=  3.5878
Using large-core scheme for Vlocal

atom: Estimated core radius    3.58779

atom: Including non-local core corrections could be a good idea
atom: Maximum radius for 4*pi*r*r*local-pseudopot. charge    3.91588
atom: Maximum radius for r*vlocal+2*Zval:    3.63292
GHOST: No ghost state for L =  0
GHOST: No ghost state for L =  1

KBgen: Kleinman-Bylander projectors: 
   l= 0   rc=  2.657845   el= -0.351328   Ekb=  2.184400   kbcos=  0.257081
   l= 1   rc=  2.657845   el= -0.101748   Ekb=  0.525536   kbcos=  0.270508

KBgen: Total number of  Kleinman-Bylander projectors:    4
atom: -------------------------------------------------------------------------

atom: SANKEY-TYPE ORBITALS:

SPLIT: Orbitals with angular momentum L= 0

SPLIT: Basis orbitals for state 3s

SPLIT: PAO cut-off radius determined from an
SPLIT: energy shift=  0.020000 Ry

   izeta = 1
                 lambda =    1.000000
                     rc =    6.619780
                 energy =   -0.332103
                kinetic =    0.289627
    potential(screened) =   -0.621729
       potential(ionic) =   -1.387191
atom: Total number of Sankey-type orbitals:  1

atm_pop: Valence configuration (for local Pseudopot. screening):
 3s( 2.00)                                                            
Vna: chval, zval:    2.00000   2.00000

Vna:  Cut-off radius for the neutral-atom potential:   6.619780

atom: _________________________________________________________________________

<basis_specs>
===============================================================================
C                    Z=   6    Mass=  12.010        Charge= 0.17977+309
Lmxo=1 Lmxkb=2     BasisType=split      Semic=F
L=0  Nsemic=0  Cnfigmx=2
          n=1  nzeta=1  polorb=0
            splnorm:   0.15000    
               vcte:    0.0000    
               rinn:    0.0000    
                rcs:    0.0000    
            lambdas:    1.0000    
L=1  Nsemic=0  Cnfigmx=2
          n=1  nzeta=1  polorb=0
            splnorm:   0.15000    
               vcte:    0.0000    
               rinn:    0.0000    
                rcs:    0.0000    
            lambdas:    1.0000    
-------------------------------------------------------------------------------
L=0  Nkbl=1  erefs: 0.17977+309
L=1  Nkbl=1  erefs: 0.17977+309
L=2  Nkbl=1  erefs: 0.17977+309
===============================================================================
</basis_specs>

atom: Called for C                     (Z =   6)

read_vps: Pseudopotential generation method:
read_vps: ATM3      Troullier-Martins                       
Total valence charge:    4.00000

xc_check: Exchange-correlation functional:
xc_check: Ceperley-Alder
V l=0 = -2*Zval/r beyond r=  1.4666
V l=1 = -2*Zval/r beyond r=  1.5038
V l=2 = -2*Zval/r beyond r=  1.5612
All V_l potentials equal beyond r=  1.5612
This should be close to max(r_c) in ps generation
All pots = -2*Zval/r beyond r=  1.5612

VLOCAL1: 99.0% of the norm of Vloc inside     17.809 Ry
VLOCAL1: 99.9% of the norm of Vloc inside     40.586 Ry
atom: Maximum radius for 4*pi*r*r*local-pseudopot. charge    1.88329
atom: Maximum radius for r*vlocal+2*Zval:    1.62091
GHOST: No ghost state for L =  0
GHOST: No ghost state for L =  1
GHOST: No ghost state for L =  2

KBgen: Kleinman-Bylander projectors: 
   l= 0   rc=  1.747182   el= -1.001947   Ekb=  5.181700   kbcos=  0.300603
   l= 1   rc=  1.747182   el= -0.398598   Ekb= -4.328763   kbcos= -0.367074
   l= 2   rc=  1.955272   el=  0.002326   Ekb= -1.016175   kbcos= -0.009979

KBgen: Total number of  Kleinman-Bylander projectors:    9
atom: -------------------------------------------------------------------------

atom: SANKEY-TYPE ORBITALS:

SPLIT: Orbitals with angular momentum L= 0

SPLIT: Basis orbitals for state 2s

SPLIT: PAO cut-off radius determined from an
SPLIT: energy shift=  0.020000 Ry

   izeta = 1
                 lambda =    1.000000
                     rc =    4.191849
                 energy =   -0.983897
                kinetic =    0.886956
    potential(screened) =   -1.870853
       potential(ionic) =   -5.479661

SPLIT: Orbitals with angular momentum L= 1

SPLIT: Basis orbitals for state 2p

SPLIT: PAO cut-off radius determined from an
SPLIT: energy shift=  0.020000 Ry

   izeta = 1
                 lambda =    1.000000
                     rc =    4.870301
                 energy =   -0.379093
                kinetic =    2.545357
    potential(screened) =   -2.924450
       potential(ionic) =   -6.433151
atom: Total number of Sankey-type orbitals:  4

atm_pop: Valence configuration (for local Pseudopot. screening):
 2s( 2.00)                                                            
 2p( 2.00)                                                            
Vna: chval, zval:    4.00000   4.00000

Vna:  Cut-off radius for the neutral-atom potential:   4.870301

atom: _________________________________________________________________________

<basis_specs>
===============================================================================
O                    Z=   8    Mass=  16.000        Charge= 0.17977+309
Lmxo=1 Lmxkb=2     BasisType=split      Semic=F
L=0  Nsemic=0  Cnfigmx=2
          n=1  nzeta=1  polorb=0
            splnorm:   0.15000    
               vcte:    0.0000    
               rinn:    0.0000    
                rcs:    0.0000    
            lambdas:    1.0000    
L=1  Nsemic=0  Cnfigmx=2
          n=1  nzeta=1  polorb=0
            splnorm:   0.15000    
               vcte:    0.0000    
               rinn:    0.0000    
                rcs:    0.0000    
            lambdas:    1.0000    
-------------------------------------------------------------------------------
L=0  Nkbl=1  erefs: 0.17977+309
L=1  Nkbl=1  erefs: 0.17977+309
L=2  Nkbl=1  erefs: 0.17977+309
===============================================================================
</basis_specs>

atom: Called for O                     (Z =   8)

read_vps: Pseudopotential generation method:
read_vps: ATM3      Troullier-Martins                       
Total valence charge:    6.00000

xc_check: Exchange-correlation functional:
xc_check: Ceperley-Alder
V l=0 = -2*Zval/r beyond r=  1.1278
V l=1 = -2*Zval/r beyond r=  1.1278
V l=2 = -2*Zval/r beyond r=  1.1278
All V_l potentials equal beyond r=  1.1278
This should be close to max(r_c) in ps generation
All pots = -2*Zval/r beyond r=  1.1278

VLOCAL1: 99.0% of the norm of Vloc inside     34.126 Ry
VLOCAL1: 99.9% of the norm of Vloc inside     77.774 Ry
atom: Maximum radius for 4*pi*r*r*local-pseudopot. charge    1.37759
atom: Maximum radius for r*vlocal+2*Zval:    1.18566
GHOST: No ghost state for L =  0
GHOST: No ghost state for L =  1
GHOST: No ghost state for L =  2

KBgen: Kleinman-Bylander projectors: 
   l= 0   rc=  1.294105   el= -1.742414   Ekb=  9.135903   kbcos=  0.326910
   l= 1   rc=  1.294105   el= -0.676589   Ekb= -8.124878   kbcos= -0.395047
   l= 2   rc=  1.448233   el=  0.002386   Ekb= -2.039267   kbcos= -0.003484

KBgen: Total number of  Kleinman-Bylander projectors:    9
atom: -------------------------------------------------------------------------

atom: SANKEY-TYPE ORBITALS:

SPLIT: Orbitals with angular momentum L= 0

SPLIT: Basis orbitals for state 2s

SPLIT: PAO cut-off radius determined from an
SPLIT: energy shift=  0.020000 Ry

   izeta = 1
                 lambda =    1.000000
                     rc =    3.305093
                 energy =   -1.723766
                kinetic =    1.614911
    potential(screened) =   -3.338677
       potential(ionic) =  -11.304675

SPLIT: Orbitals with angular momentum L= 1

SPLIT: Basis orbitals for state 2p

SPLIT: PAO cut-off radius determined from an
SPLIT: energy shift=  0.020000 Ry

   izeta = 1
                 lambda =    1.000000
                     rc =    3.937239
                 energy =   -0.658841
                kinetic =    5.005986
    potential(screened) =   -5.664827
       potential(ionic) =  -13.452360
atom: Total number of Sankey-type orbitals:  4

atm_pop: Valence configuration (for local Pseudopot. screening):
 2s( 2.00)                                                            
 2p( 4.00)                                                            
Vna: chval, zval:    6.00000   6.00000

Vna:  Cut-off radius for the neutral-atom potential:   3.937239

atom: _________________________________________________________________________

prinput: Basis input ----------------------------------------------------------

PAO.BasisType split     

%block ChemicalSpeciesLabel
    1   12 Mg                      # Species index, atomic number, species label
    2    6 C                       # Species index, atomic number, species label
    3    8 O                       # Species index, atomic number, species label
%endblock ChemicalSpeciesLabel

%block PAO.Basis                 # Define Basis set
Mg                    1                    # Species label, number of l-shells
 n=3   0   1                         # n, l, Nzeta 
   6.620   
   1.000   
C                     2                    # Species label, number of l-shells
 n=2   0   1                         # n, l, Nzeta 
   4.192   
   1.000   
 n=2   1   1                         # n, l, Nzeta 
   4.870   
   1.000   
O                     2                    # Species label, number of l-shells
 n=2   0   1                         # n, l, Nzeta 
   3.305   
   1.000   
 n=2   1   1                         # n, l, Nzeta 
   3.937   
   1.000   
%endblock PAO.Basis

prinput: ----------------------------------------------------------------------

coor:   Atomic-coordinates input format  =     Fractional

siesta: WARNING: XV file not found

siesta: Atomic coordinates (Bohr) and species
siesta:      0.00000   0.00000   0.00000  1        1
siesta:     12.51930   5.59740   3.66414  1        2
siesta:      6.25965   2.79870   1.83207  2        3
siesta:     -6.25965  -2.79870  -1.83207  2        4
siesta:      7.25136   0.58061   1.83207  3        5
siesta:      6.25965   4.12944  -0.20079  3        6
siesta:      5.26794   3.68605   3.86493  3        7
siesta:     -7.25136  -0.58061  -1.83207  3        8
siesta:     -6.25965  -4.12944   0.20079  3        9
siesta:     -5.26794  -3.68605  -3.86493  3       10

siesta: System type = bulk      

initatomlists: Number of atoms, orbitals, and projectors:     10    34    80

siesta: ******************** Simulation parameters ****************************
siesta:
siesta: The following are some of the parameters of the simulation.
siesta: A complete list of the parameters used, including default values,
siesta: can be found in file out.fdf
siesta:
redata: Non-Collinear-spin run           =     F
redata: SpinPolarized (Up/Down) run      =     F
redata: Number of spin components        =     1
redata: Long output                      =     F
redata: Number of Atomic Species         =        3
redata: Charge density info will appear in .RHO file
redata: Write Mulliken Pop.              =     NO
redata: Mesh Cutoff                      =    50.0000  Ry
redata: Net charge of the system         =     0.0000 |e|
redata: Max. number of SCF Iter          =       20
redata: Broyden mixing with     4 saved histories.
redata: Mix DM in first SCF step ?       =     F
redata: Write Pulay info on disk?        =     F
redata: Discard 1st Pulay DM after  kick =     F
redata: New DM Mixing Weight             =     0.1000
redata: New DM Occupancy tolerance       = 0.000000000001
redata: No kicks to SCF
redata: DM Mixing Weight for Kicks       =     0.5000
redata: DM Tolerance for SCF             =     0.001000
redata: Require Energy convergence for SCF =     F
redata: DM Energy tolerance for SCF      =     0.000100 eV
redata: Require Harris convergence for SCF =     F
redata: DM Harris energy tolerance for SCF =     0.000100 eV
redata: Using Saved Data (generic)   =     F
redata: Use continuation files for DM    =     T
redata: Neglect nonoverlap interactions  =     F
redata: Method of Calculation            =     Diagonalization
redata: Divide and Conquer               =     F
redata: Electronic Temperature           =     0.0019  Ry
redata: Fix the spin of the system       =     F
redata: Dynamics option                  =     Parrinello-Rahman MD run
redata: Initial MD time step             =        1
redata:   Final MD time step             =       50
redata: Length of MD time step           =     0.3000  fs
redata: Initial Temperature of MD run    =     0.0000  K
redata: Perform a MD quench              =     F
redata: Parrinello-Rahman mass           =   100.0000  Ry/fs**2
redata: Target Pressure                  =     0.0007  Ry/Bohr**3
redata: ***********************************************************************
Total number of electrons:    48.000000
Total ionic charge:    48.000000

* ProcessorY, Blocksize:    1  17

 Kpoints in:            1 . Kpoints trimmed:            1

siesta: k-grid: Number of k-points =     1
siesta: k-grid: Cutoff (effective) =     2.317 Ang
siesta: k-grid: Supercell and displacements
siesta: k-grid:    1   0   0      0.000
siesta: k-grid:    0   1   0      0.000
siesta: k-grid:    0   0   1      0.000

* Maximum dynamic memory allocated =     3 MB

siesta:                 ==============================
                            Begin MD step =      1
                        ==============================

outcoor: Atomic coordinates (fractional):                   
    0.00000000    0.00000000    0.00000000   1       1  Mg
    0.50000000    0.50000000    0.50000000   1       2  Mg
    0.25000000    0.25000000    0.25000000   2       3  C
   -0.25000000   -0.25000000   -0.25000000   2       4  C
    0.52740000   -0.02740000    0.25000000   3       5  O
    0.25000000    0.52740000   -0.02740000   3       6  O
   -0.02740000    0.25000000    0.52740000   3       7  O
   -0.52740000    0.02740000   -0.25000000   3       8  O
   -0.25000000   -0.52740000    0.02740000   3       9  O
    0.02740000   -0.25000000   -0.52740000   3      10  O

outcell: Unit cell vectors (Ang):
        5.677830    0.000000    0.000000
        3.786009    4.231299    0.000000
        3.786009    1.692731    3.877957

outcell: Cell vector modules (Ang)   :    5.677830    5.677830    5.677830
outcell: Cell angles (23,13,12) (deg):     48.1790     48.1790     48.1790
outcell: Cell volume (Ang**3)        :     93.1663

NOTE: orbital pair      1     1 (at least) is multiply connected.
NOTE: Harmless for Gamma calculations, except if a COHP analysis is intended.
New_DM. Step:     1
Initializing Density Matrix...

InitMesh: MESH =    24 x    24 x    24 =       13824
InitMesh: Mesh cutoff (required, used) =    50.000    63.482 Ry

* Maximum dynamic memory allocated =     3 MB

stepf: Fermi-Dirac step function
 Broyden: No of relevant DM elements:         1156
 maxit for broyden:            4
 cycle on maxit:  T
 variable weight:  T
 initial alpha:   0.10000000000000001     

siesta: Program's energy decomposition (eV):
siesta: Ebs     =      -718.671436
siesta: Eions   =      5228.674091
siesta: Ena     =      1092.429444
siesta: Ekin    =      2069.792750
siesta: Enl     =      -254.036133
siesta: DEna    =        15.961142
siesta: DUscf   =         0.158223
siesta: DUext   =         0.000000
siesta: Exc     =      -679.402762
siesta: eta*DQ  =         0.000000
siesta: Emadel  =         0.000000
siesta: Emeta   =         0.000000
siesta: Emolmec =         0.000000
siesta: Ekinion =         0.000000
siesta: Eharris =     -2966.596225
siesta: Etot    =     -2983.771427
siesta: FreeEng =     -2983.771427

siesta: Eharris(eV) =   -2966.596225


siesta: Eharris(eV) =   -2966.596225

timer: Routine,Calls,Time,% = IterSCF        1       0.884  43.58
elaps: Routine,Calls,Wall,% = IterSCF        1       0.453  42.18

siesta: E_KS - E_eggbox =     -2945.6640

siesta: Atomic forces (eV/Ang):
     1   -0.000000   -0.000000   -0.000000
     2   -0.000000   -0.000000    0.000000
     3    0.000001   -0.000002   -0.000005
     4   -0.000002    0.000002    0.000006
     5    2.998817   -6.707233   -0.000007
     6   -0.000012    4.024018   -6.147139
     7   -2.998821    2.683236    6.147162
     8   -2.998814    6.707234    0.000008
     9    0.000012   -4.024016    6.147141
    10    2.998822   -2.683237   -6.147164
----------------------------------------
   Tot    0.000002    0.000001    0.000001
----------------------------------------
   Max    6.707234
   Res    3.285729    sqrt( Sum f_i^2 / 3N )
----------------------------------------
   Max    6.707234    constrained

Stress-tensor-Voigt (kbar):      720.98      465.34      428.84      142.85       41.81       93.51
(Free)E + p*V (eV/cell)    -2976.9707
Target enthalpy (eV/cell)    -2939.8491

siesta: Stress tensor (static) (eV/Ang**3):
         0.449996    0.089162    0.058367
         0.089162    0.290438    0.026096
         0.058367    0.026096    0.267656

siesta: Pressure (static):       -538.38529971  kBar

siesta: Stress tensor (total) (eV/Ang**3):
         0.449996    0.089162    0.058367
         0.089162    0.290438    0.026096
         0.058367    0.026096    0.267656

siesta: Pressure (total):       -538.38529971  kBar

siesta: E_kin PR =       5.259 K

siesta: Temp_ion =       0.000 K
 iupos on opening:           16
 iupos on writing:           16
 istep, xa, va :            1 -6.13498876587392430E-013 -4.02515867087787449E-013 -2.46876827321637172E-013   12.519133739292958        5.5973260526880599        3.6640917935152166        6.2595668697221587        2.7986630262266683        1.8320458963876154       -6.2595668697751821       -2.7986630262265626       -1.8320458963627364        7.2513815142515146       0.58034305304229838        1.8320458963452442        6.2595668690512536        4.1295440234707446      -0.20102949966154371        5.2677522247835915        3.6861020035651491        3.8651212943905460       -7.2513815141367379      -0.58034305301348621       -1.8320458963226312       -6.2595668690466750       -4.1295440233969209       0.20102949977649559       -5.2677522247398718       -3.6861020036349976       -3.8651212945061753       3.75529940727606605E-029 -3.36404582272791813E-028 -4.78232798031083558E-034 -1.05895007841531133E-014 -4.29076494235711424E-015 -1.35602465895137533E-015 -1.32363406287814425E-015 -5.91799047646830528E-016  3.38986183582971975E-016  4.63261214977515311E-015  7.39792023253183061E-016  2.10327863528707971E-020  1.98534402402138186E-015 -2.21896610007384587E-016  3.39000906532213333E-016  3.51572229839946812E-015  1.85192032409637813E-017  4.23890475338685187E-017 -1.40599982958821993E-015  5.91877118735809567E-016  1.35596681877534157E-015 -1.81986299859206019E-015  1.84928727774732852E-016 -7.36147160658192584E-021 -4.13060141841719314E-016  2.92205257437655312E-015 -8.47444425951047491E-017 -1.63405820719837578E-015 -5.91896798400175883E-016 -1.35597970135329034E-015

* Maximum dynamic memory allocated =     3 MB

siesta:                 ==============================
                            Begin MD step =      2
                        ==============================

outcoor: Atomic coordinates (fractional):                   
   -0.00000000   -0.00000000   -0.00000000   1       1  Mg
    0.50000000    0.50000000    0.50000000   1       2  Mg
    0.25000000    0.25000000    0.25000000   2       3  C
   -0.25000000   -0.25000000   -0.25000000   2       4  C
    0.52744271   -0.02744271    0.25000000   3       5  O
    0.25000000    0.52744271   -0.02744271   3       6  O
   -0.02744271    0.25000000    0.52744271   3       7  O
   -0.52744271    0.02744271   -0.25000000   3       8  O
   -0.25000000   -0.52744271    0.02744271   3       9  O
    0.02744271   -0.25000000   -0.52744271   3      10  O

outcell: Unit cell vectors (Ang):
        5.677709    0.000074    0.000048
        3.785983    4.231159    0.000048
        3.785983    1.692720    3.877810

outcell: Cell vector modules (Ang)   :    5.677709    5.677709    5.677709
outcell: Cell angles (23,13,12) (deg):     48.1775     48.1775     48.1775
outcell: Cell volume (Ang**3)        :     93.1558
New_DM. Step:     2
Initializing Density Matrix...

InitMesh: MESH =    24 x    24 x    24 =       13824
InitMesh: Mesh cutoff (required, used) =    50.000    63.484 Ry

siesta: Eharris(eV) =   -2966.604744


siesta: Eharris(eV) =   -2966.604744


siesta: Atomic forces (eV/Ang):
     1    0.000000    0.000000    0.000000
     2   -0.000000   -0.000000   -0.000000
     3    0.000001    0.000002    0.000002
     4   -0.000001   -0.000003   -0.000001
     5    2.995554   -6.699934   -0.000006
     6   -0.000006    4.019631   -6.140439
     7   -2.995559    2.680310    6.140451
     8   -2.995554    6.699933    0.000004
     9    0.000006   -4.019630    6.140443
    10    2.995556   -2.680306   -6.140454
----------------------------------------
   Tot   -0.000002    0.000003   -0.000000
----------------------------------------
   Max    6.699934
   Res    3.282148    sqrt( Sum f_i^2 / 3N )
----------------------------------------
   Max    6.699934    constrained

Stress-tensor-Voigt (kbar):      720.84      465.32      428.84      142.78       41.79       93.47
(Free)E + p*V (eV/cell)    -2976.9674
Target enthalpy (eV/cell)    -2939.8531

siesta: Stress tensor (static) (eV/Ang**3):
         0.449905    0.089117    0.058337
         0.089117    0.290428    0.026083
         0.058337    0.026083    0.267658

siesta: Pressure (static):       -538.33216771  kBar

siesta: Stress tensor (total) (eV/Ang**3):
         0.449905    0.089117    0.058337
         0.089117    0.290428    0.026083
         0.058337    0.026083    0.267658

siesta: Pressure (total):       -538.33216771  kBar

siesta: E_kin PR =      47.320 K

siesta: Temp_ion =       7.493 K
 iupos on opening:           17
 iupos on writing:           17
 istep, xa, va :            2  2.53567618734615105E-012  2.15669984871184189E-013  1.97520974017241727E-012   12.518806765031577        5.5971798619227453        3.6639960949275334        6.2594033827435265        2.7985899310299498        1.8319980469799522       -6.2594033829380686       -2.7985899310900493       -1.8319980468470372        7.2515759706815039       0.57946937191672654        1.8319980459607885        6.2594033807024703        4.1299512407175394      -0.20181108015947791        5.2672307933809464        3.6863491830408517        3.8658071787729789       -7.2515759704390916      -0.57946937192449322       -1.8319980461501000       -6.2594033806459199       -4.1299512405133196       0.20181108080854118       -5.2672307935197624       -3.6863491828258250       -3.8658071792808371       4.22612697891025134E-012  3.59449974785306881E-013  3.29201623362069558E-012 -4.16020493300449956E-012 -1.10262098824479101E-011  4.53200306434405966E-012  3.77481655725201706E-010  1.08782485642155475E-010 -8.04091745513359744E-010 -7.01720161196684076E-010 -2.08947919329245575E-010  1.02561714806048288E-009  1.01721784209843737E-003 -2.27513619434060793E-003 -2.35416892982438618E-009 -3.09452583956842942E-009  1.36497114693508496E-003 -2.08514686136529329E-003 -1.01721939122557600E-003  9.10169682531770962E-004  2.08515286064860647E-003 -1.01721743808118477E-003  2.27513618139640926E-003  2.03865040252655815E-009  3.18877850990703648E-009 -1.36497080656922489E-003  2.08514794313746990E-003  1.01721915986567862E-003 -9.10169324154791394E-004 -2.08515370707842377E-003

* Maximum dynamic memory allocated =     3 MB

siesta:                 ==============================
                            Begin MD step =      3
                        ==============================

outcoor: Atomic coordinates (fractional):                   
    0.00000000   -0.00000000    0.00000000   1       1  Mg
    0.50000000    0.50000000    0.50000000   1       2  Mg
    0.25000000    0.25000000    0.25000000   2       3  C
   -0.25000000   -0.25000000   -0.25000000   2       4  C
    0.52757075   -0.02757075    0.25000000   3       5  O
    0.25000000    0.52757075   -0.02757075   3       6  O
   -0.02757075    0.25000000    0.52757075   3       7  O
   -0.52757075    0.02757075   -0.25000000   3       8  O
   -0.25000000   -0.52757075    0.02757075   3       9  O
    0.02757075   -0.25000000   -0.52757075   3      10  O

outcell: Unit cell vectors (Ang):
        5.677467    0.000220    0.000144
        3.785931    4.230881    0.000144
        3.785931    1.692696    3.877516

outcell: Cell vector modules (Ang)   :    5.677467    5.677467    5.677467
outcell: Cell angles (23,13,12) (deg):     48.1745     48.1745     48.1745
outcell: Cell volume (Ang**3)        :     93.1346
New_DM. Step:     3
Initializing Density Matrix...

InitMesh: MESH =    24 x    24 x    24 =       13824
InitMesh: Mesh cutoff (required, used) =    50.000    63.487 Ry

siesta: Eharris(eV) =   -2966.630700


siesta: Eharris(eV) =   -2966.630700


siesta: Atomic forces (eV/Ang):
     1    0.000000   -0.000000    0.000000
     2   -0.000000    0.000000    0.000000
     3    0.000001    0.000002   -0.000004
     4   -0.000001   -0.000003    0.000004
     5    2.984218   -6.674604    0.000008
     6   -0.000019    4.004412   -6.117193
     7   -2.984207    2.670163    6.117212
     8   -2.984219    6.674604   -0.000006
     9    0.000022   -4.004413    6.117188
    10    2.984212   -2.670168   -6.117214
----------------------------------------
   Tot    0.000006   -0.000007   -0.000004
----------------------------------------
   Max    6.674604
   Res    3.269728    sqrt( Sum f_i^2 / 3N )
----------------------------------------
   Max    6.674604    constrained

Stress-tensor-Voigt (kbar):      721.17      466.44      430.07      142.34       41.66       93.18
(Free)E + p*V (eV/cell)    -2977.0239
Target enthalpy (eV/cell)    -2939.8662

siesta: Stress tensor (static) (eV/Ang**3):
         0.450132    0.088811    0.058137
         0.088811    0.291203    0.025993
         0.058137    0.025993    0.268511

siesta: Pressure (static):       -539.32273170  kBar

siesta: Stress tensor (total) (eV/Ang**3):
         0.450111    0.088843    0.058158
         0.088843    0.291124    0.026002
         0.058158    0.026002    0.268424

siesta: Pressure (total):       -539.22349973  kBar

siesta: E_kin PR =     131.501 K

siesta: Temp_ion =      29.904 K
 iupos on opening:           17
 iupos on writing:           17
 istep, xa, va :            3  8.42347980296162553E-012 -1.08129729277620172E-012  4.42097762530500089E-012   12.518316352848622        5.5969605978193950        3.6638525614728819        6.2591581769319777        2.7984802994766942        1.8319262796362707       -6.2591581772633660       -2.7984802997075362       -1.8319262792959141        7.2519425832613464       0.57799132793306562        1.8319262789941968        6.2591581714047333        4.1306625868859612      -0.20313698318573198        5.2663737690726178        3.6867869834520963        3.8669895528136067       -7.2519425829963513      -0.57799132798198039       -1.8319262791913256       -6.2591581710694877       -4.1306625866575093       0.20313698381347992       -5.2663737688797108       -3.6867869834451827       -3.8669895538443342       1.50615829671778613E-011 -1.13137765343422028E-012  7.77971510793555387E-012 -1.45275344379390481E-011 -1.00271072641288415E-011  6.28346302466329518E-012  7.12766289652951025E-010  1.13554339696666690E-009 -1.21397003256086497E-009 -1.17671662793472618E-009 -1.52045231775381405E-009  1.73977949880934755E-009  2.03198377800204453E-003 -4.54479226220612549E-003 -2.01373866823084656E-009 -7.38309784316382167E-009  2.72664942083102480E-003 -4.16526423376242360E-003 -2.03198421895285208E-003  1.81814365333684397E-003  4.16527560948379803E-003 -2.03198352762255915E-003  4.54479213265866072E-003  1.64750253501864234E-009  7.93419313062371234E-009 -2.72664916309308270E-003  4.16526508846563458E-003  2.03198446762007604E-003 -1.81814352542716221E-003 -4.16527713469554486E-003

* Maximum dynamic memory allocated =     3 MB

siesta:                 ==============================
                            Begin MD step =      4
                        ==============================

outcoor: Atomic coordinates (fractional):                   
    0.00000000   -0.00000000    0.00000000   1       1  Mg
    0.50000000    0.50000000    0.50000000   1       2  Mg
    0.25000000    0.25000000    0.25000000   2       3  C
   -0.25000000   -0.25000000   -0.25000000   2       4  C
    0.52778384   -0.02778384    0.25000000   3       5  O
    0.25000000    0.52778384   -0.02778384   3       6  O
   -0.02778384    0.25000000    0.52778384   3       7  O
   -0.52778384    0.02778384   -0.25000000   3       8  O
   -0.25000000   -0.52778384    0.02778384   3       9  O
    0.02778384   -0.25000000   -0.52778384   3      10  O

outcell: Unit cell vectors (Ang):
        5.677103    0.000441    0.000289
        3.785853    4.230463    0.000289
        3.785853    1.692662    3.877075

outcell: Cell vector modules (Ang)   :    5.677103    5.677103    5.677103
outcell: Cell angles (23,13,12) (deg):     48.1701     48.1701     48.1701
outcell: Cell volume (Ang**3)        :     93.1028
New_DM. Step:     4
Initializing Density Matrix...

InitMesh: MESH =    24 x    24 x    24 =       13824
InitMesh: Mesh cutoff (required, used) =    50.000    63.492 Ry

siesta: Eharris(eV) =   -2966.673905


siesta: Eharris(eV) =   -2966.673905


siesta: Atomic forces (eV/Ang):
     1    0.000000    0.000000    0.000000
     2   -0.000000    0.000000   -0.000000
     3   -0.000000   -0.000002    0.000005
     4   -0.000000    0.000002   -0.000005
     5    2.964997   -6.631569    0.000010
     6    0.000004    3.978625   -6.077796
     7   -2.964992    2.652972    6.077792
     8   -2.964995    6.631572   -0.000009
     9   -0.000003   -3.978626    6.077793
    10    2.964992   -2.652972   -6.077789
----------------------------------------
   Tot    0.000003    0.000002    0.000001
----------------------------------------
   Max    6.631572
   Res    3.248661    sqrt( Sum f_i^2 / 3N )
----------------------------------------
   Max    6.631572    constrained

Stress-tensor-Voigt (kbar):      722.05      468.69      432.51      141.58       41.44       92.68
(Free)E + p*V (eV/cell)    -2977.1415
Target enthalpy (eV/cell)    -2939.8883

siesta: Stress tensor (static) (eV/Ang**3):
         0.450748    0.088238    0.057762
         0.088238    0.292843    0.025825
         0.057762    0.025825    0.270297

siesta: Pressure (static):       -541.48187187  kBar

siesta: Stress tensor (total) (eV/Ang**3):
         0.450665    0.088367    0.057846
         0.088367    0.292530    0.025863
         0.057846    0.025863    0.269951

siesta: Pressure (total):       -541.08576541  kBar

siesta: E_kin PR =     258.163 K

siesta: Temp_ion =      67.015 K
 iupos on opening:           17
 iupos on writing:           17
 istep, xa, va :            4  1.64017059368934400E-011  1.33931038591236706E-012  1.02123017121106449E-011   12.517662480414124        5.5966682503722831        3.6636611865698403        6.2588312409856419        2.7983341260099599        1.8318305922787952       -6.2588312414672673       -2.7983341264291299       -1.8318305916418820        7.2524791263443404       0.57591387366238023        1.8318305922678761        6.2588312324123248        4.1316750859379727      -0.20500267304729664        5.2651833544774505        3.6874134190838435        3.8686638718347410       -7.2524791258289065      -0.57591387341234102       -1.8318305924585054       -6.2588312316947681       -4.1316750858348517       0.20500267337645331       -5.2651833539614259       -3.6874134192570396       -3.8686638731086296       2.31104526474625906E-011  1.87237490357067539E-012  1.37293289677737973E-011 -3.10704806222667540E-011 -3.29646885889471163E-012  9.58759575922367859E-012  9.02631219746010233E-010  1.25710949665207670E-009 -8.66019166635678189E-010 -1.38115455889123902E-009 -1.85556743423803253E-009  1.70611245314313492E-009  3.04169174212036647E-003 -6.80313219223512358E-003  1.05803571665096279E-009 -9.99456056458014608E-009  4.08154016282518371E-003 -6.23501269887795796E-003 -3.04168946986983942E-003  2.72159258419386960E-003  6.23502668588125745E-003 -3.04169128700527069E-003  6.80313262187940034E-003 -1.06036179228597665E-009  1.10961589213851020E-008 -4.08154033125189900E-003  6.23501216604813863E-003  3.04169056125363525E-003 -2.72159323107755641E-003 -6.23502796287703307E-003

* Maximum dynamic memory allocated =     3 MB

siesta:                 ==============================
                            Begin MD step =      5
                        ==============================

outcoor: Atomic coordinates (fractional):                   
    0.00000000   -0.00000000    0.00000000   1       1  Mg
    0.50000000    0.50000000    0.50000000   1       2  Mg
    0.25000000    0.25000000    0.25000000   2       3  C
   -0.25000000   -0.25000000   -0.25000000   2       4  C
    0.52808149   -0.02808149    0.25000000   3       5  O
    0.25000000    0.52808149   -0.02808149   3       6  O
   -0.02808149    0.25000000    0.52808149   3       7  O
   -0.52808149    0.02808149   -0.25000000   3       8  O
   -0.25000000   -0.52808149    0.02808149   3       9  O
    0.02808149   -0.25000000   -0.52808149   3      10  O

outcell: Unit cell vectors (Ang):
        5.676619    0.000736    0.000482
        3.785750    4.229905    0.000482
        3.785750    1.692615    3.876487

outcell: Cell vector modules (Ang)   :    5.676619    5.676619    5.676619
outcell: Cell angles (23,13,12) (deg):     48.1641     48.1641     48.1641
outcell: Cell volume (Ang**3)        :     93.0604
New_DM. Step:     5
Initializing Density Matrix...

InitMesh: MESH =    24 x    24 x    24 =       13824
InitMesh: Mesh cutoff (required, used) =    50.000    63.499 Ry

siesta: Eharris(eV) =   -2966.734042


siesta: Eharris(eV) =   -2966.734042


siesta: Atomic forces (eV/Ang):
     1   -0.000000    0.000000    0.000000
     2   -0.000000   -0.000000    0.000000
     3    0.000004   -0.000001   -0.000001
     4   -0.000003    0.000002    0.000002
     5    2.938091   -6.571384   -0.000016
     6   -0.000014    3.942501   -6.022631
     7   -2.938089    2.628888    6.022639
     8   -2.938087    6.571386    0.000014
     9    0.000011   -3.942500    6.022630
    10    2.938092   -2.628884   -6.022643
----------------------------------------
   Tot    0.000005    0.000007   -0.000005
----------------------------------------
   Max    6.571386
   Res    3.219177    sqrt( Sum f_i^2 / 3N )
----------------------------------------
   Max    6.571386    constrained

Stress-tensor-Voigt (kbar):      723.41      471.85      435.93      140.57       41.14       92.02
(Free)E + p*V (eV/cell)    -2977.3085
Target enthalpy (eV/cell)    -2939.9188

siesta: Stress tensor (static) (eV/Ang**3):
         0.451696    0.087450    0.057246
         0.087450    0.295202    0.025595
         0.057246    0.025595    0.272858

siesta: Pressure (static):       -544.61576490  kBar

siesta: Stress tensor (total) (eV/Ang**3):
         0.451511    0.087739    0.057435
         0.087739    0.294500    0.025679
         0.057435    0.025679    0.272082

siesta: Pressure (total):       -543.72779303  kBar

siesta: E_kin PR =     427.980 K

siesta: Temp_ion =     118.457 K
 iupos on opening:           17
 iupos on writing:           17
 istep, xa, va :            5  2.29520905085359066E-011  5.87591674005200608E-012  1.64639464296735510E-011   12.516845085972893        5.5963027919633124        3.6634219521791822        6.2584225445130883        2.7981513968766509        1.8317109749787286       -6.2584225451317703       -2.7981513974155230       -1.8317109739633242        7.2531824582858926       0.57324395362969560        1.8317109741447497        6.2584225310278088        4.1329845477186540      -0.20740178086843430        5.2636626292835942        3.6882256917625851        3.8708237501777516       -7.2531824571248897      -0.57324395284811946       -1.8317109744827647       -6.2584225301437382       -4.1329845476976299       0.20740178082961880       -5.2636626280905281       -3.6882256917014518       -3.8708237520421411       2.42166970248578189E-011  1.15927372578105808E-011  2.00737811506131783E-011 -3.78517797997656142E-011 -1.01237211114450380E-011  1.22673109380776765E-011  1.67956128842035210E-009  5.41945824581960173E-010 -1.25744167818401724E-011 -2.15848851669386919E-009 -1.05543803677161187E-009  1.13795477114044915E-009  4.04380143613746260E-003 -9.04446885724378286E-003 -1.03906802763076773E-011 -1.16365631783188483E-008  5.42623240182087477E-003 -8.28918428124373989E-003 -4.04379790558751818E-003  3.61824248187509042E-003  8.28919893617752375E-003 -4.04379994267396303E-003  9.04447024132202376E-003 -2.24592457577593584E-010  1.25512555643886303E-008 -5.42623274748092483E-003  8.28918317070034133E-003  4.04379957271249098E-003 -3.61824239148419817E-003 -8.28920032638012783E-003

* Maximum dynamic memory allocated =     3 MB

siesta:                 ==============================
                            Begin MD step =      6
                        ==============================

outcoor: Atomic coordinates (fractional):                   
    0.00000000   -0.00000000    0.00000000   1       1  Mg
    0.50000000    0.50000000    0.50000000   1       2  Mg
    0.25000000    0.25000000    0.25000000   2       3  C
   -0.25000000   -0.25000000   -0.25000000   2       4  C
    0.52846303   -0.02846303    0.25000000   3       5  O
    0.25000000    0.52846303   -0.02846302   3       6  O
   -0.02846303    0.25000000    0.52846303   3       7  O
   -0.52846303    0.02846303   -0.25000000   3       8  O
   -0.25000000   -0.52846303    0.02846302   3       9  O
    0.02846303   -0.25000000   -0.52846303   3      10  O

outcell: Unit cell vectors (Ang):
        5.676012    0.001105    0.000724
        3.785621    4.229207    0.000724
        3.785621    1.692557    3.875750

outcell: Cell vector modules (Ang)   :    5.676012    5.676012    5.676012
outcell: Cell angles (23,13,12) (deg):     48.1567     48.1567     48.1567
outcell: Cell volume (Ang**3)        :     93.0074
New_DM. Step:     6
Initializing Density Matrix...

InitMesh: MESH =    24 x    24 x    24 =       13824
InitMesh: Mesh cutoff (required, used) =    50.000    63.507 Ry

siesta: Eharris(eV) =   -2966.810258


siesta: Eharris(eV) =   -2966.810258


siesta: Atomic forces (eV/Ang):
     1    0.000000    0.000000   -0.000000
     2    0.000000    0.000000   -0.000000
     3    0.000001   -0.000001    0.000004
     4    0.000000    0.000001   -0.000005
     5    2.893813   -6.472391    0.000007
     6   -0.000009    3.883103   -5.931883
     7   -2.893813    2.589274    5.931900
     8   -2.893818    6.472391   -0.000007
     9    0.000009   -3.883102    5.931882
    10    2.893808   -2.589277   -5.931901
----------------------------------------
   Tot   -0.000009   -0.000002   -0.000004
----------------------------------------
   Max    6.472391
   Res    3.170675    sqrt( Sum f_i^2 / 3N )
----------------------------------------
   Max    6.472391    constrained

Stress-tensor-Voigt (kbar):      724.22      477.41      442.17      137.92       40.37       90.28
(Free)E + p*V (eV/cell)    -2977.5689
Target enthalpy (eV/cell)    -2939.9565

siesta: Stress tensor (static) (eV/Ang**3):
         0.452342    0.085570    0.056015
         0.085570    0.299213    0.025044
         0.056015    0.025044    0.277349

siesta: Pressure (static):       -549.50115319  kBar

siesta: Stress tensor (total) (eV/Ang**3):
         0.452015    0.086081    0.056350
         0.086081    0.297971    0.025194
         0.056350    0.025194    0.275977

siesta: Pressure (total):       -547.93080630  kBar

siesta: E_kin PR =     642.244 K

siesta: Temp_ion =     183.604 K
 iupos on opening:           17
 iupos on writing:           17
 istep, xa, va :            6  3.10270208233388502E-011  1.20433951179179791E-011  1.70973136705349845E-011   12.515864411131268        5.5958643306115592        3.6631349289929349        6.2579322079214013        2.7979321661423460        1.8315674637918689       -6.2579322085791373       -2.7979321667866803       -1.8315674625040090        7.2540474932961239       0.56999326302298225        1.8315674622290337        6.2579321885128225        4.1345840414326513      -0.21032360002483136        5.2618169206678358        3.6892191972611141        3.8734585528057401       -7.2540474919848812      -0.56999326170219300       -1.8315674627210194       -6.2579321874892209       -4.1345840414106227       0.21032359946562834       -5.2618169192354554       -3.6892191973203126       -3.8734585554185776       2.43800382436226752E-011  1.78365985103926303E-011  1.14813616038504833E-011 -3.65503440848372243E-011 -1.34036446333519714E-011  1.14969572649140684E-011  2.61063608731749975E-009  1.51053459682713439E-011  5.07225018205703452E-010 -2.90434335612803042E-009 -3.90653029642371972E-010  5.78351369831969607E-010  5.03416168724072580E-003 -1.12595320379738247E-002 -1.59864954214150244E-009 -1.54926094002305614E-008  6.75515799863468051E-003 -1.03192718119244353E-002 -5.03415764327981054E-003  4.50437847884179246E-003  1.03192906386024904E-002 -5.03416036072393876E-003  1.12595338226524639E-002  1.09612257811435086E-009  1.60028865141964571E-008 -6.75515813390237512E-003  1.03192703314955760E-002  5.03415917098045881E-003 -4.50437828902426618E-003 -1.03192928713783712E-002

* Maximum dynamic memory allocated =     3 MB

siesta:                 ==============================
                            Begin MD step =      7
                        ==============================

outcoor: Atomic coordinates (fractional):                   
    0.00000000    0.00000000    0.00000000   1       1  Mg
    0.50000000    0.50000000    0.50000000   1       2  Mg
    0.25000000    0.25000000    0.25000000   2       3  C
   -0.25000000   -0.25000000   -0.25000000   2       4  C
    0.52892728   -0.02892728    0.25000000   3       5  O
    0.25000000    0.52892728   -0.02892728   3       6  O
   -0.02892728    0.25000000    0.52892728   3       7  O
   -0.52892728    0.02892728   -0.25000000   3       8  O
   -0.25000000   -0.52892728    0.02892728   3       9  O
    0.02892728   -0.25000000   -0.52892728   3      10  O

outcell: Unit cell vectors (Ang):
        5.675283    0.001551    0.001015
        3.785466    4.228366    0.001015
        3.785466    1.692488    3.874863

outcell: Cell vector modules (Ang)   :    5.675283    5.675283    5.675283
outcell: Cell angles (23,13,12) (deg):     48.1477     48.1477     48.1477
outcell: Cell volume (Ang**3)        :     92.9435
New_DM. Step:     7
Initializing Density Matrix...

InitMesh: MESH =    24 x    24 x    24 =       13824
InitMesh: Mesh cutoff (required, used) =    50.000    63.517 Ry

siesta: Eharris(eV) =   -2966.901954


siesta: Eharris(eV) =   -2966.901954


siesta: Atomic forces (eV/Ang):
     1   -0.000000   -0.000000   -0.000000
     2    0.000000    0.000000    0.000000
     3   -0.000004    0.000001    0.000002
     4    0.000003   -0.000001   -0.000002
     5    2.844481   -6.362052   -0.000016
     6   -0.000008    3.816900   -5.830766
     7   -2.844489    2.545145    5.830773
     8   -2.844482    6.362044    0.000024
     9   -0.000002   -3.816901    5.830757
    10    2.844486   -2.545133   -5.830770
----------------------------------------
   Tot   -0.000014    0.000003    0.000003
----------------------------------------
   Max    6.362052
   Res    3.116622    sqrt( Sum f_i^2 / 3N )
----------------------------------------
   Max    6.362052    constrained

Stress-tensor-Voigt (kbar):      727.94      486.02      451.48      135.19       39.57       88.50
(Free)E + p*V (eV/cell)    -2978.0057
Target enthalpy (eV/cell)    -2940.0005

siesta: Stress tensor (static) (eV/Ang**3):
         0.454846    0.083583    0.054715
         0.083583    0.305273    0.024463
         0.054715    0.024463    0.283917

siesta: Pressure (static):       -557.58253083  kBar

siesta: Stress tensor (total) (eV/Ang**3):
         0.454340    0.084376    0.055234
         0.084376    0.303347    0.024695
         0.055234    0.024695    0.281788

siesta: Pressure (total):       -555.14714152  kBar

siesta: E_kin PR =     903.330 K

siesta: Temp_ion =     261.630 K
 iupos on opening:           17
 iupos on writing:           17
 istep, xa, va :            7  3.86284476443274027E-011  1.43129856583181718E-011  1.52677898408626154E-011   12.514720201225312        5.5953527524650202        3.6628000424677758        6.2573601032218420        2.7976763771881283        1.8314000212350261       -6.2573601040384341       -2.7976763778409035       -1.8314000195853839        7.2550680598476758       0.56617526366491000        1.8314000170305802        6.2573600776209730        4.1364653990349032      -0.21375577870316728        5.2596521446962825        3.6903884716020317        3.8765558523533703       -7.2550680584874305      -0.56617526268531337       -1.8314000168403046       -6.2573600774744182       -4.1364653991283289       0.21375577676281016       -5.2596521432751988       -3.6903884705445278       -3.8765558554043906       2.61331882366744772E-011  1.40596003196826203E-011 -1.98112485457734843E-012 -3.05492585559349763E-011  1.30437898798262972E-011  1.27477129675460834E-011  1.78962433938565396E-009  1.08089609851409106E-010  1.85818633009071065E-009 -2.11980107008592759E-009 -2.98361837496298168E-010 -7.99900624882933875E-010  6.00906770820059961E-003 -1.34400363573836477E-002 -3.17558016009806205E-009 -1.84576670163305590E-008  8.06334793611911821E-003 -1.23176839626638699E-002 -6.00906482379578999E-003  5.37668917812567961E-003  1.23177068311395837E-002 -6.00906737575198843E-003  1.34400366878770269E-002  4.05542920224851770E-009  1.72288889890848118E-008 -8.06334812709547794E-003  1.23176807932206672E-002  6.00906520470872833E-003 -5.37668751763255119E-003 -1.23177088110373294E-002

* Maximum dynamic memory allocated =     3 MB

siesta:                 ==============================
                            Begin MD step =      8
                        ==============================

outcoor: Atomic coordinates (fractional):                   
    0.00000000    0.00000000    0.00000000   1       1  Mg
    0.50000000    0.50000000    0.50000000   1       2  Mg
    0.25000000    0.25000000    0.25000000   2       3  C
   -0.25000000   -0.25000000   -0.25000000   2       4  C
    0.52947296   -0.02947296    0.25000000   3       5  O
    0.25000000    0.52947296   -0.02947296   3       6  O
   -0.02947296    0.25000000    0.52947296   3       7  O
   -0.52947296    0.02947296   -0.25000000   3       8  O
   -0.25000000   -0.52947296    0.02947296   3       9  O
    0.02947296   -0.25000000   -0.52947297   3      10  O

outcell: Unit cell vectors (Ang):
        5.674429    0.002074    0.001358
        3.785287    4.227381    0.001358
        3.785287    1.692408    3.873823

outcell: Cell vector modules (Ang)   :    5.674430    5.674430    5.674430
outcell: Cell angles (23,13,12) (deg):     48.1371     48.1371     48.1371
outcell: Cell volume (Ang**3)        :     92.8687
New_DM. Step:     8
Initializing Density Matrix...

InitMesh: MESH =    24 x    24 x    24 =       13824
InitMesh: Mesh cutoff (required, used) =    50.000    63.529 Ry

siesta: Eharris(eV) =   -2967.007753


siesta: Eharris(eV) =   -2967.007753


siesta: Atomic forces (eV/Ang):
     1   -0.000000   -0.000000    0.000000
     2   -0.000000    0.000000   -0.000000
     3   -0.000001    0.000004    0.000003
     4    0.000000   -0.000003   -0.000004
     5    2.738129   -6.124223    0.000004
     6    0.000005    3.674210   -5.612794
     7   -2.738135    2.449983    5.612789
     8   -2.738130    6.124221   -0.000004
     9   -0.000003   -3.674211    5.612794
    10    2.738135   -2.449985   -5.612794
----------------------------------------
   Tot    0.000000   -0.000004   -0.000005
----------------------------------------
   Max    6.124223
   Res    3.000111    sqrt( Sum f_i^2 / 3N )
----------------------------------------
   Max    6.124223    constrained

Stress-tensor-Voigt (kbar):      734.27      505.15      472.44      128.03       37.47       83.81
(Free)E + p*V (eV/cell)    -2978.9212
Target enthalpy (eV/cell)    -2940.0498

siesta: Stress tensor (static) (eV/Ang**3):
         0.459010    0.078779    0.051570
         0.078779    0.318034    0.023057
         0.051570    0.023057    0.297905

siesta: Pressure (static):       -574.09248452  kBar

siesta: Stress tensor (total) (eV/Ang**3):
         0.458288    0.079909    0.052310
         0.079909    0.315288    0.023388
         0.052310    0.023388    0.294871

siesta: Pressure (total):       -570.61969808  kBar

siesta: E_kin PR =    1216.983 K

siesta: Temp_ion =     350.833 K
 iupos on opening:           17
 iupos on writing:           17
 istep, xa, va :            8  4.49625045900874397E-011  1.31643410761353287E-011  1.40232644803314427E-011   12.513412259179880        5.5947679694025316        3.6624172349241437        6.2567061323848252        2.7973839862592125        1.8312086185963070       -6.2567061334011216       -2.7973839868058548       -1.8312086166518775        7.2562309419466278       0.56181924623392532        1.8312086117742266        6.2567061011489891        4.1386109767080512      -0.21767146036817062        5.2571813204547571        3.6917217335249308        3.8800887333737921       -7.2562309406450165      -0.56181924573361508       -1.8312086108963876       -6.2567061016967349       -4.1386109770816555       0.21767145710897831       -5.2571813190377439       -3.6917217315899693       -3.8800887374139856       2.32348035296726624E-011  1.86992409037914319E-012 -5.11051694771988328E-012 -2.81774189419559734E-011  4.69288217505765123E-011  1.82344954825648213E-011  7.18916080761656479E-010  1.22599870442368923E-009  3.07238961243263819E-009 -1.31693769389512594E-009 -1.06381379258075347E-009 -1.97633423265739750E-009  6.95808278325755168E-003 -1.55626388601172103E-002 -5.13401374461939783E-009 -1.90542547868349788E-008  9.33679803072999699E-003 -1.42630301736992957E-002 -6.95808211774369412E-003  6.22583518180525475E-003  1.42630534855977993E-002 -6.95808279893662257E-003  1.55626374937608419E-002  7.41604332628354297E-009  1.64360061966767335E-008 -9.33679869037943623E-003  1.42630256728123097E-002  6.95808209348748596E-003 -6.22583185849411112E-003 -1.42630558680097632E-002

* Maximum dynamic memory allocated =     3 MB

siesta:                 ==============================
                            Begin MD step =      9
                        ==============================

outcoor: Atomic coordinates (fractional):                   
    0.00000000    0.00000000    0.00000000   1       1  Mg
    0.50000000    0.50000000    0.50000000   1       2  Mg
    0.25000000    0.25000000    0.25000000   2       3  C
   -0.25000000   -0.25000000   -0.25000000   2       4  C
    0.53009720   -0.03009720    0.25000000   3       5  O
    0.25000000    0.53009720   -0.03009719   3       6  O
   -0.03009720    0.25000000    0.53009720   3       7  O
   -0.53009720    0.03009720   -0.25000000   3       8  O
   -0.25000000   -0.53009720    0.03009719   3       9  O
    0.03009720   -0.25000000   -0.53009720   3      10  O

outcell: Unit cell vectors (Ang):
        5.673449    0.002680    0.001754
        3.785085    4.226247    0.001754
        3.785085    1.692318    3.872626

outcell: Cell vector modules (Ang)   :    5.673450    5.673450    5.673450
outcell: Cell angles (23,13,12) (deg):     48.1249     48.1249     48.1249
outcell: Cell volume (Ang**3)        :     92.7826
New_DM. Step:     9
Initializing Density Matrix...

InitMesh: MESH =    24 x    24 x    24 =       13824
InitMesh: Mesh cutoff (required, used) =    50.000    63.542 Ry

siesta: Eharris(eV) =   -2967.125472


siesta: Eharris(eV) =   -2967.125472


siesta: Atomic forces (eV/Ang):
     1   -0.000000   -0.000000   -0.000000
     2   -0.000000    0.000000    0.000000
     3   -0.000002    0.000002    0.000000
     4    0.000001   -0.000002   -0.000002
     5    2.679552   -5.993174    0.000010
     6    0.000008    3.595596   -5.492697
     7   -2.679551    2.397568    5.492714
     8   -2.679554    5.993177   -0.000006
     9   -0.000005   -3.595596    5.492693
    10    2.679555   -2.397573   -5.492706
----------------------------------------
   Tot    0.000004   -0.000002    0.000006
----------------------------------------
   Max    5.993177
   Res    2.935920    sqrt( Sum f_i^2 / 3N )
----------------------------------------
   Max    5.993177    constrained

Stress-tensor-Voigt (kbar):      737.20      512.03      479.89      125.82       36.83       82.37
(Free)E + p*V (eV/cell)    -2979.2695
Target enthalpy (eV/cell)    -2940.1010

siesta: Stress tensor (static) (eV/Ang**3):
         0.461086    0.077014    0.050414
         0.077014    0.323268    0.022540
         0.050414    0.022540    0.303590

siesta: Pressure (static):       -581.03263053  kBar

siesta: Stress tensor (total) (eV/Ang**3):
         0.460117    0.078531    0.051408
         0.078531    0.319583    0.022984
         0.051408    0.022984    0.299518

siesta: Pressure (total):       -576.37198065  kBar

siesta: E_kin PR =    1585.999 K

siesta: Temp_ion =     449.981 K
 iupos on opening:           17
 iupos on writing:           17
 istep, xa, va :            9  4.99640235795282854E-011  7.48637827786923799E-012  1.22818729387485848E-011   12.511940448406166        5.5941099203763178        3.6619864663731452        6.2559702269683450        2.7970549626315369        1.8309932354793026       -6.2559702282066763       -2.7970549630613859       -1.8309932334399608        7.2575292465119414       0.55694044810427301        1.8309932270069580        6.2559701911127092        4.1410115848546001      -0.22205667289690503        5.2544112051152396        3.6932128457560349        3.8840431860296625       -7.2575292454265181      -0.55694044779778418       -1.8309932250522400       -6.2559701921398725       -4.1410115854869938       0.22205666790964529       -5.2544112033286803       -3.6932128434658207       -3.8840431902625370       1.89070653720680348E-011 -1.13755556318081677E-011 -4.96649915382680995E-012 -3.99988138095181196E-011  6.78024055366780126E-011  1.78429972850899643E-011  2.41363471419503589E-010  2.51374272492434119E-009  3.82748594259767271E-009 -9.44926730488829905E-010 -2.14291675069750979E-009 -3.17541485622180130E-009  7.87974913540511433E-003 -1.76240736417772707E-002 -2.69831998340671663E-009 -1.69553366589914045E-008  1.05735514320488798E-002 -1.61523175134827626E-002 -7.87974925485774094E-003  7.05050990002794795E-003  1.61523429485236035E-002 -7.87974959302881368E-003  1.76240725206602174E-002  5.63887410242572581E-009  1.49997489498621128E-008 -1.05735523302890599E-002  1.61523124325852196E-002  7.87974986521422505E-003 -7.05050784434399763E-003 -1.61523449229977051E-002

* Maximum dynamic memory allocated =     3 MB

siesta:                 ==============================
                            Begin MD step =     10
                        ==============================

outcoor: Atomic coordinates (fractional):                   
    0.00000000    0.00000000    0.00000000   1       1  Mg
    0.50000000    0.50000000    0.50000000   1       2  Mg
    0.25000000    0.25000000    0.25000000   2       3  C
   -0.25000000   -0.25000000   -0.25000000   2       4  C
    0.53079847   -0.03079847    0.25000000   3       5  O
    0.25000000    0.53079847   -0.03079847   3       6  O
   -0.03079847    0.25000000    0.53079847   3       7  O
   -0.53079847    0.03079847   -0.25000000   3       8  O
   -0.24999999   -0.53079847    0.03079846   3       9  O
    0.03079847   -0.25000000   -0.53079847   3      10  O

outcell: Unit cell vectors (Ang):
        5.672342    0.003369    0.002205
        3.784860    4.224962    0.002205
        3.784860    1.692217    3.871268

outcell: Cell vector modules (Ang)   :    5.672343    5.672343    5.672343
outcell: Cell angles (23,13,12) (deg):     48.1109     48.1109     48.1109
outcell: Cell volume (Ang**3)        :     92.6850
New_DM. Step:    10
Initializing Density Matrix...

InitMesh: MESH =    24 x    24 x    24 =       13824
InitMesh: Mesh cutoff (required, used) =    50.000    63.557 Ry

siesta: Eharris(eV) =   -2967.255037


siesta: Eharris(eV) =   -2967.255037


siesta: Atomic forces (eV/Ang):
     1    0.000000   -0.000000    0.000000
     2    0.000000    0.000000   -0.000000
     3   -0.000004    0.000001    0.000003
     4    0.000004   -0.000002   -0.000002
     5    2.604373   -5.825009   -0.000001
     6    0.000001    3.494709   -5.338578
     7   -2.604364    2.330284    5.338575
     8   -2.604372    5.825005    0.000001
     9   -0.000003   -3.494706    5.338583
    10    2.604369   -2.330291   -5.338575
----------------------------------------
   Tot    0.000004   -0.000008    0.000006
----------------------------------------
   Max    5.825009
   Res    2.853539    sqrt( Sum f_i^2 / 3N )
----------------------------------------
   Max    5.825009    constrained

Stress-tensor-Voigt (kbar):      739.87      519.87      488.46      122.94       35.98       80.48
(Free)E + p*V (eV/cell)    -2979.6496
Target enthalpy (eV/cell)    -2940.1543

siesta: Stress tensor (static) (eV/Ang**3):
         0.463030    0.074782    0.048954
         0.074782    0.329205    0.021887
         0.048954    0.021887    0.310098

siesta: Pressure (static):       -588.71694817  kBar

siesta: Stress tensor (total) (eV/Ang**3):
         0.461786    0.076731    0.050229
         0.076731    0.324474    0.022457
         0.050229    0.022457    0.304869

siesta: Pressure (total):       -582.73352690  kBar

siesta: E_kin PR =    2009.181 K

siesta: Temp_ion =     558.668 K
 iupos on opening:           17
 iupos on writing:           17
 istep, xa, va :           10  5.71678208280340269E-011  1.38720783192310031E-013  1.16977463415582182E-011   12.510304773628397        5.5933786074998677        3.6615077382243144        6.2551523890155885        2.7966893072538879        1.8307538730213238       -6.2551523904202755       -2.7966893076239110       -1.8307538707144071        7.2589543198041042       0.55155823254288727        1.8307538623049815        6.2551523491603431        4.1436556085289142      -0.22689367057066520        5.2513504579461170        3.6948540625342785        3.8884014639991111       -7.2589543188663477      -0.55155823281170324       -1.8307538592947041       -6.2551523508289675       -4.1436556090626748       0.22689366440386244       -5.2513504552989847       -3.6948540606101128       -3.8884014684407631       2.03635467459511078E-011 -2.17112805059715665E-011 -3.86818745011607917E-012 -4.83978678500649894E-011  7.81678244215433869E-011  1.11151093794488547E-011 -1.01242244400955393E-009  3.28335559572967550E-009  4.63123775925379021E-009  3.64093157407976348E-010 -2.98959710180260233E-009 -4.02368667786707249E-009  8.77945624286024205E-003 -1.96363851225392488E-002 -1.18631830907533492E-009 -1.55178915967058018E-008  1.17808354595093454E-002 -1.79965856757936492E-002 -8.77945467939517457E-003  7.85553311245074798E-003  1.79966136086296899E-002 -8.77945684885395039E-003  1.96363838407214164E-002  4.74133000046395341E-009  1.36504639848544773E-008 -1.17808357263345740E-002  1.79965808248632106E-002  8.77945673087522291E-003 -7.85553312772159333E-003 -1.79966142847082546E-002

* Maximum dynamic memory allocated =     3 MB

siesta:                 ==============================
                            Begin MD step =     11
                        ==============================

outcoor: Atomic coordinates (fractional):                   
    0.00000000   -0.00000000    0.00000000   1       1  Mg
    0.50000000    0.50000000    0.50000000   1       2  Mg
    0.25000000    0.25000000    0.25000000   2       3  C
   -0.25000000   -0.25000000   -0.25000000   2       4  C
    0.53157482   -0.03157482    0.25000000   3       5  O
    0.24999999    0.53157482   -0.03157482   3       6  O
   -0.03157482    0.25000000    0.53157482   3       7  O
   -0.53157482    0.03157482   -0.25000000   3       8  O
   -0.24999999   -0.53157482    0.03157482   3       9  O
    0.03157482   -0.25000000   -0.53157483   3      10  O

outcell: Unit cell vectors (Ang):
        5.671106    0.004143    0.002712
        3.784613    4.223525    0.002712
        3.784613    1.692107    3.869747

outcell: Cell vector modules (Ang)   :    5.671108    5.671108    5.671108
outcell: Cell angles (23,13,12) (deg):     48.0953     48.0953     48.0953
outcell: Cell volume (Ang**3)        :     92.5758
New_DM. Step:    11
Initializing Density Matrix...

InitMesh: MESH =    24 x    24 x    24 =       13824
InitMesh: Mesh cutoff (required, used) =    50.000    63.574 Ry

siesta: Eharris(eV) =   -2967.394670


siesta: Eharris(eV) =   -2967.394670


siesta: Atomic forces (eV/Ang):
     1   -0.000000    0.000000   -0.000000
     2    0.000000   -0.000000    0.000000
     3   -0.000001   -0.000000    0.000001
     4    0.000001   -0.000002   -0.000002
     5    2.521185   -5.638939   -0.000005
     6   -0.000004    3.383080   -5.168058
     7   -2.521181    2.255851    5.168058
     8   -2.521185    5.638943    0.000003
     9    0.000003   -3.383073    5.168053
    10    2.521172   -2.255847   -5.168061
----------------------------------------
   Tot   -0.000011    0.000011   -0.000010
----------------------------------------
   Max    5.638943
   Res    2.762391    sqrt( Sum f_i^2 / 3N )
----------------------------------------
   Max    5.638943    constrained

Stress-tensor-Voigt (kbar):      743.56      528.41      497.69      120.23       35.19       78.70
(Free)E + p*V (eV/cell)    -2980.0698
Target enthalpy (eV/cell)    -2940.2078

siesta: Stress tensor (static) (eV/Ang**3):
         0.465634    0.072617    0.047536
         0.072617    0.335684    0.021253
         0.047536    0.021253    0.317129

siesta: Pressure (static):       -597.32276986  kBar

siesta: Stress tensor (total) (eV/Ang**3):
         0.464087    0.075038    0.049121
         0.075038    0.329804    0.021962
         0.049121    0.021962    0.310631

siesta: Pressure (total):       -589.88621049  kBar

siesta: E_kin PR =    2489.020 K

siesta: Temp_ion =     675.468 K
 iupos on opening:           17
 iupos on writing:           17
 istep, xa, va :           11  6.18102120214523837E-011 -4.51715646358895307E-012  7.12515142738238579E-012   12.508505057992926        5.5925739516876192        3.6609809987515436        6.2542525305023382        2.7962869803694375        1.8304905050517681       -6.2542525321153599       -2.7962869809588140       -1.8304905025273868        7.2604965217711070       0.54569392438575171        1.8304904914103293        6.2542524864000217        4.1465301909497265      -0.23216290030482364        5.2480085416493294        3.6966367978850179        3.8931439626971756       -7.2604965209998902      -0.54569392485080437       -1.8304904875177637       -6.2542524888248439       -4.1465301907398162       0.23216289239362889       -5.2480085390914288       -3.6966367959828839       -3.8931439676127093       1.97744006511269421E-011 -2.00194995237089393E-011 -8.58984810558991443E-012 -3.91202113750058223E-011  6.60576066788837275E-011  1.88456018904070272E-011 -2.11831939125218906E-009  3.50576596770312501E-009  5.65099683536103424E-009  1.49245325701061041E-009 -3.77203505838902362E-009 -4.83857750817677350E-009  9.65312807430609467E-003 -2.15904608777986728E-002 -2.22463412492887867E-009 -1.59832349820587805E-008  1.29531820907580458E-002 -1.97874838343971293E-002 -9.65312435045573639E-003  8.63725812284044450E-003  1.97875113269277252E-002 -9.65312859791864382E-003  2.15904595915967744E-002  5.45741524527724755E-009  1.36548929420554632E-008 -1.29531806867498132E-002  1.97874789528586087E-002  9.65312563762398337E-003 -8.63725876617914973E-003 -1.97875124729836489E-002

* Maximum dynamic memory allocated =     3 MB

siesta:                 ==============================
                            Begin MD step =     12
                        ==============================

outcoor: Atomic coordinates (fractional):                   
    0.00000000   -0.00000000    0.00000000   1       1  Mg
    0.50000000    0.50000000    0.50000000   1       2  Mg
    0.25000000    0.25000000    0.25000000   2       3  C
   -0.25000000   -0.25000000   -0.25000000   2       4  C
    0.53242409   -0.03242409    0.25000000   3       5  O
    0.24999999    0.53242408   -0.03242408   3       6  O
   -0.03242409    0.25000000    0.53242409   3       7  O
   -0.53242409    0.03242409   -0.25000000   3       8  O
   -0.24999999   -0.53242408    0.03242408   3       9  O
    0.03242409   -0.25000000   -0.53242409   3      10  O

outcell: Unit cell vectors (Ang):
        5.669739    0.005004    0.003276
        3.784344    4.221932    0.003276
        3.784344    1.691986    3.868062

outcell: Cell vector modules (Ang)   :    5.669742    5.669742    5.669742
outcell: Cell angles (23,13,12) (deg):     48.0779     48.0779     48.0779
outcell: Cell volume (Ang**3)        :     92.4548
New_DM. Step:    12
Initializing Density Matrix...

InitMesh: MESH =    24 x    24 x    24 =       13824
InitMesh: Mesh cutoff (required, used) =    50.000    63.592 Ry

siesta: Eharris(eV) =   -2967.541050


siesta: Eharris(eV) =   -2967.541050


siesta: Atomic forces (eV/Ang):
     1   -0.000000   -0.000000    0.000000
     2    0.000000    0.000000    0.000000
     3   -0.000001   -0.000000    0.000004
     4    0.000001    0.000002   -0.000005
     5    2.349545   -5.255051    0.000003
     6    0.000008    3.152778   -4.816224
     7   -2.349540    2.102279    4.816216
     8   -2.349541    5.255039   -0.000004
     9   -0.000011   -3.152780    4.816225
    10    2.349537   -2.102283   -4.816212
----------------------------------------
   Tot   -0.000002   -0.000016    0.000004
----------------------------------------
   Max    5.255051
   Res    2.574331    sqrt( Sum f_i^2 / 3N )
----------------------------------------
   Max    5.255051    constrained

Stress-tensor-Voigt (kbar):      755.73      561.05      533.26      108.79       31.84       71.21
(Free)E + p*V (eV/cell)    -2981.6131
Target enthalpy (eV/cell)    -2940.2571

siesta: Stress tensor (static) (eV/Ang**3):
         0.473556    0.064968    0.042529
         0.064968    0.357295    0.019015
         0.042529    0.019015    0.340695

siesta: Pressure (static):       -625.68100507  kBar

siesta: Stress tensor (total) (eV/Ang**3):
         0.471684    0.067899    0.044448
         0.067899    0.350177    0.019873
         0.044448    0.019873    0.332828

siesta: Pressure (total):       -616.67897230  kBar

siesta: E_kin PR =    3039.483 K

siesta: Temp_ion =     796.922 K
 iupos on opening:           17
 iupos on writing:           17
 istep, xa, va :           12  6.53835029447429238E-011 -1.28298347093749573E-011  9.31920140398745738E-012   12.506540625996148        5.5916956509108848        3.6604060502134388        6.2532703136636325        2.7958478309891319        1.8302030331189292       -6.2532703154549800       -2.7958478315126940       -1.8302030304425236        7.2621341116312781       0.53939524253168492        1.8302030163102281        6.2532702662411799        4.1496064627735620      -0.23782058804239758        5.2444065216239393        3.6985417506935931        3.8982267094977563       -7.2621341106354196      -0.53939524441870912       -1.8302030116522685       -6.2532702697040152       -4.1496064620312456       0.23782057851764332       -5.2444065194449072       -3.6985417491943240       -3.8982267145032568       1.37368400521292751E-011 -2.16464364934330668E-011 -3.96162392938550207E-012 -3.13991462260572113E-011  5.39195444565141572E-011  3.43612263089226277E-011 -2.57680545184533377E-009  3.41437252226558289E-009  6.86184144344344097E-009  1.93057816040721299E-009 -3.67054619541533857E-009 -6.24100657655617601E-009  1.04844783925041821E-002 -2.34498788128978536E-002 -2.54995679645753861E-009 -1.52879925455207122E-008  1.40687412742168932E-002 -2.14916300655083777E-002 -1.04844731357434072E-002  9.38111640988089669E-003  2.14916561878544417E-002 -1.04844782957867790E-002  2.34498761144265218E-002  5.30164109192706779E-009  1.22986794463819660E-008 -1.40687391465246277E-002  2.14916244576411342E-002  1.04844723583363206E-002 -9.38111711529693304E-003 -2.14916571374360876E-002

* Maximum dynamic memory allocated =     3 MB

siesta:                 ==============================
                            Begin MD step =     13
                        ==============================

outcoor: Atomic coordinates (fractional):                   
    0.00000000   -0.00000000    0.00000000   1       1  Mg
    0.50000000    0.50000000    0.50000000   1       2  Mg
    0.25000000    0.25000000    0.25000000   2       3  C
   -0.25000000   -0.25000000   -0.25000000   2       4  C
    0.53334158   -0.03334158    0.25000000   3       5  O
    0.24999999    0.53334157   -0.03334157   3       6  O
   -0.03334158    0.25000000    0.53334158   3       7  O
   -0.53334158    0.03334158   -0.25000000   3       8  O
   -0.24999999   -0.53334157    0.03334157   3       9  O
    0.03334158   -0.25000000   -0.53334158   3      10  O

outcell: Unit cell vectors (Ang):
        5.668238    0.005960    0.003901
        3.784055    4.220176    0.003901
        3.784055    1.691857    3.866203

outcell: Cell vector modules (Ang)   :    5.668243    5.668243    5.668243
outcell: Cell angles (23,13,12) (deg):     48.0585     48.0585     48.0585
outcell: Cell volume (Ang**3)        :     92.3215
New_DM. Step:    13
Initializing Density Matrix...

InitMesh: MESH =    24 x    24 x    24 =       13824
InitMesh: Mesh cutoff (required, used) =    50.000    63.612 Ry

siesta: Eharris(eV) =   -2967.692947


siesta: Eharris(eV) =   -2967.692947


siesta: Atomic forces (eV/Ang):
     1    0.000000    0.000000    0.000000
     2    0.000000    0.000000    0.000000
     3   -0.000002   -0.000003    0.000003
     4    0.000001    0.000004   -0.000004
     5    2.241035   -5.012343   -0.000004
     6   -0.000003    3.007151   -4.593785
     7   -2.241016    2.005195    4.593767
     8   -2.241035    5.012340    0.000004
     9   -0.000007   -3.007149    4.593772
    10    2.241019   -2.005198   -4.593777
----------------------------------------
   Tot   -0.000007   -0.000003   -0.000023
----------------------------------------
   Max    5.012343
   Res    2.455433    sqrt( Sum f_i^2 / 3N )
----------------------------------------
   Max    5.012343    constrained

Stress-tensor-Voigt (kbar):      760.49      571.68      544.72      105.51       30.88       69.07
(Free)E + p*V (eV/cell)    -2982.1139
Target enthalpy (eV/cell)    -2940.3019

siesta: Stress tensor (static) (eV/Ang**3):
         0.476866    0.062391    0.040842
         0.062391    0.365216    0.018261
         0.040842    0.018261    0.349274

siesta: Pressure (static):       -636.26147729  kBar

siesta: Stress tensor (total) (eV/Ang**3):
         0.474655    0.065854    0.043109
         0.065854    0.356808    0.019274
         0.043109    0.019274    0.339981

siesta: Pressure (total):       -625.62678548  kBar

siesta: E_kin PR =    3667.226 K

siesta: Temp_ion =     920.816 K
 iupos on opening:           17
 iupos on writing:           17
 istep, xa, va :           13  7.53931241215601279E-011 -1.88597450289840676E-011  1.36203788395644456E-011   12.504411215186563        5.5907435878079861        3.6597828157870871        6.2522056070825442        2.7953718000213579        1.8298914186623145       -6.2522056091963316       -2.7953718003834718       -1.8298914159164437        7.2638545451915322       0.53268989277359391        1.8298913978525073        6.2522055563821617        4.1528677065468562      -0.24384132640259290        5.2405566810327464        3.7005577562846712        3.9036242191902319       -7.2638545439317230      -0.53268989644507470       -1.8298913924458344       -6.2522055618649270       -4.1528677050636222       0.24384131396024522       -5.2405566789010516       -3.7005577554293327       -3.9036242252915132       2.26951782508648335E-011 -2.39510821477668399E-011  1.08174192827584874E-011 -3.00642926411703822E-011  5.54910471995020154E-011  5.15360254459700296E-011 -3.37953893324051571E-009  2.68773695424270152E-009  8.52446869969259283E-009  2.54281177020045735E-009 -2.30961808072562502E-009 -8.14920653614517427E-009  1.12693319221984899E-002 -2.52052999283595563E-002 -2.67948279906115993E-009 -1.44813717198322145E-008  1.51219071464951307E-002 -2.31004634175585449E-002 -1.12693225408058359E-002  1.00833731892059110E-002  2.31004851169309480E-002 -1.12693311083985562E-002  2.52052945822601529E-002  5.21108213132215757E-009  9.38550104301327792E-009 -1.51219050210676872E-002  2.31004558496601953E-002  1.12693218336016379E-002 -1.00833749307579768E-002 -2.31004871049861615E-002

* Maximum dynamic memory allocated =     3 MB

siesta:                 ==============================
                            Begin MD step =     14
                        ==============================

outcoor: Atomic coordinates (fractional):                   
    0.00000000   -0.00000000    0.00000000   1       1  Mg
    0.50000000    0.50000000    0.50000000   1       2  Mg
    0.25000000    0.25000000    0.25000000   2       3  C
   -0.25000000   -0.25000000   -0.25000000   2       4  C
    0.53432444   -0.03432444    0.25000000   3       5  O
    0.24999999    0.53432443   -0.03432443   3       6  O
   -0.03432444    0.25000000    0.53432444   3       7  O
   -0.53432444    0.03432444   -0.25000000   3       8  O
   -0.24999999   -0.53432443    0.03432443   3       9  O
    0.03432444   -0.25000000   -0.53432444   3      10  O

outcell: Unit cell vectors (Ang):
        5.666600    0.007012    0.004590
        3.783747    4.218255    0.004590
        3.783747    1.691720    3.864166

outcell: Cell vector modules (Ang)   :    5.666607    5.666607    5.666607
outcell: Cell angles (23,13,12) (deg):     48.0372     48.0372     48.0372
outcell: Cell volume (Ang**3)        :     92.1755
New_DM. Step:    14
Initializing Density Matrix...

[...]

outcell: Unit cell vectors (Ang):
        5.515402    0.120928    0.079161
        3.767820    4.029617    0.079161
        3.767820    1.684599    3.661449

outcell: Cell vector modules (Ang)   :    5.517296    5.517296    5.517296
outcell: Cell angles (23,13,12) (deg):     45.6620     45.6620     45.6620
outcell: Cell volume (Ang**3)        :     78.3084
New_DM. Step:    48
Initializing Density Matrix...

InitMesh: MESH =    24 x    24 x    24 =       13824
InitMesh: Mesh cutoff (required, used) =    50.000    65.431 Ry

siesta: Eharris(eV) =   -2971.072734


siesta: Eharris(eV) =   -2971.072734


siesta: Atomic forces (eV/Ang):
     1    0.000000   -0.000000    0.000000
     2   -0.000000   -0.000001   -0.000000
     3    0.000001    0.000003   -0.000003
     4    0.000000   -0.000004    0.000001
     5   -0.892687    1.996623    0.000004
     6    0.000001   -1.197875    1.829884
     7    0.892692   -0.798751   -1.829901
     8    0.892688   -1.996630   -0.000008
     9    0.000006    1.197875   -1.829882
    10   -0.892698    0.798760    1.829899
----------------------------------------
   Tot    0.000002    0.000000   -0.000006
----------------------------------------
   Max    1.996630
   Res    0.978101    sqrt( Sum f_i^2 / 3N )
----------------------------------------
   Max    1.996630    constrained

Stress-tensor-Voigt (kbar):     1053.13     1065.09     1066.80       -6.68       -1.96       -4.38
(Free)E + p*V (eV/cell)    -2989.6491
Target enthalpy (eV/cell)    -2932.8716

siesta: Stress tensor (static) (eV/Ang**3):
         0.663344   -0.013630   -0.008922
        -0.013630    0.687735   -0.003989
        -0.008922   -0.003989    0.691217

siesta: Pressure (static):      -1090.71824014  kBar

siesta: Stress tensor (total) (eV/Ang**3):
         0.657304   -0.004172   -0.002731
        -0.004172    0.664770   -0.001221
        -0.002731   -0.001221    0.665836

siesta: Pressure (total):      -1061.67186710  kBar

siesta: E_kin PR =  104389.380 K

siesta: Temp_ion =    1807.543 K
 iupos on opening:           17
 iupos on writing:           17
 istep, xa, va :           48  1.02926321983912939E-009 -1.43581935792476737E-009  1.62665130133755205E-009   12.323330194306550        5.5097819591078769        3.6067841471687569        6.1616650249420486        2.7548909298813187        1.8033922218507339       -6.1616650160704660       -2.7548909391769882       -1.8033922336163055        7.2603878100834169       0.29745722739782365        1.8033919878457567        6.1616650315805206        4.2292280895900323      -0.44882934589816925        5.0629423106045808        3.7379873889759381        4.0556137834928991       -7.2603877271588724      -0.29745740913627949       -1.8033918413982946       -6.1616650301616129       -4.2292281881368350       0.44882927731014521       -5.0629423393658151       -3.7379874137954960       -4.0556137193126949      -4.23625073675606287E-011 -5.11076242760961441E-010  5.26088460476570344E-010 -1.10645100161846257E-009 -1.09198587676173051E-009 -6.50001472820875791E-010 -9.69925934772903897E-009 -8.44956302540186881E-009  1.35457096925750145E-008  1.17276328058227522E-008  4.77905241859737049E-009 -1.72810568102035368E-008  1.57351207287769156E-002 -3.51936305250041478E-002 -1.80815457207785877E-009  1.02076575525522628E-008  2.11143958828656775E-002 -3.22547112310630560E-002 -1.57351268611814130E-002  1.40792016171974888E-002  3.22547251576452837E-002 -1.57350976917170621E-002  3.51936031046491751E-002  7.85857092563424112E-009 -9.48889499613470022E-009 -2.11144080553985758E-002  3.22547172522823153E-002  1.57351240053936053E-002 -1.40792207104399325E-002 -3.22547237644146695E-002

* Maximum dynamic memory allocated =     3 MB

siesta:                 ==============================
                            Begin MD step =     49
                        ==============================

outcoor: Atomic coordinates (fractional):                   
    0.00000000   -0.00000000    0.00000000   1       1  Mg
    0.50000000    0.50000000    0.50000000   1       2  Mg
    0.24999999    0.24999998    0.25000002   2       3  C
   -0.24999999   -0.24999999   -0.25000002   2       4  C
    0.58407492   -0.08407492    0.24999999   3       5  O
    0.25000000    0.58407489   -0.08407490   3       6  O
   -0.08407492    0.24999999    0.58407494   3       7  O
   -0.58407490    0.08407488   -0.24999997   3       8  O
   -0.24999999   -0.58407490    0.08407489   3       9  O
    0.08407492   -0.24999999   -0.58407493   3      10  O

outcell: Unit cell vectors (Ang):
        5.507738    0.127159    0.083240
        3.767354    4.019751    0.083240
        3.767354    1.684390    3.650775

outcell: Cell vector modules (Ang)   :    5.509835    5.509835    5.509835
outcell: Cell angles (23,13,12) (deg):     45.5284     45.5284     45.5284
outcell: Cell volume (Ang**3)        :     77.6136
New_DM. Step:    49
Initializing Density Matrix...

InitMesh: MESH =    24 x    24 x    24 =       13824
InitMesh: Mesh cutoff (required, used) =    50.000    65.517 Ry

siesta: Eharris(eV) =   -2971.126261


siesta: Eharris(eV) =   -2971.126261


siesta: Atomic forces (eV/Ang):
     1   -0.000000   -0.000000   -0.000000
     2   -0.000000   -0.000001   -0.000000
     3   -0.000001   -0.000002    0.000004
     4    0.000000   -0.000001   -0.000002
     5   -0.959682    2.146457    0.000004
     6    0.000003   -1.287755    1.967217
     7    0.959671   -0.858689   -1.967214
     8    0.959679   -2.146454   -0.000008
     9   -0.000011    1.287765   -1.967215
    10   -0.959675    0.858695    1.967214
----------------------------------------
   Tot   -0.000016    0.000014   -0.000001
----------------------------------------
   Max    2.146457
   Res    1.051500    sqrt( Sum f_i^2 / 3N )
----------------------------------------
   Max    2.146457    constrained

Stress-tensor-Voigt (kbar):     1059.02     1077.49     1080.13      -10.32       -3.02       -6.76
(Free)E + p*V (eV/cell)    -2989.1513
Target enthalpy (eV/cell)    -2932.3668

siesta: Stress tensor (static) (eV/Ang**3):
         0.666909   -0.015719   -0.010290
        -0.015719    0.695039   -0.004601
        -0.010290   -0.004601    0.699055

siesta: Pressure (static):      -1100.70889960  kBar

siesta: Stress tensor (total) (eV/Ang**3):
         0.660983   -0.006442   -0.004217
        -0.006442    0.672511   -0.001885
        -0.004217   -0.001885    0.674157

siesta: Pressure (total):      -1072.21597721  kBar

siesta: E_kin PR =  110297.105 K

siesta: Temp_ion =    1750.865 K
 iupos on opening:           17
 iupos on writing:           17
 istep, xa, va :           49  1.00032829417372903E-009 -1.61053448741904487E-009  1.77549125476936855E-009   12.315032199848506        5.5060719114826604        3.6043554956793473        6.1575160250854308        2.7530359037332657        1.8021778999540008       -6.1575160156303861       -2.7530359146398782       -1.8021779127345472        7.2561830589496097       0.29572689838942490        1.8021776622542780        6.1575160380693932        4.2272982503743473      -0.44992938602517718        5.0588490649037743        3.7360824782710997        4.0542851750720503       -7.2561829696021141      -0.29572708766036293       -1.8021775150958077       -6.1575160371280981       -4.2272983511952429       0.44992931982589568       -5.0588490951380196       -3.7360825077789923       -4.0542851109139910      -6.48206094870009036E-011 -5.65391274478927336E-010  5.29908766024037048E-010 -1.14973074182137427E-009 -1.25495363659698948E-009 -7.07503206660344218E-010 -9.73596812070397510E-009 -8.36613742220065188E-009  1.38383482221060244E-008  1.18471536769381296E-008  3.65891740447181947E-009 -1.76802130975246590E-008  1.54843766853462548E-002 -3.46328061151058852E-002 -3.64428906335481532E-010  1.08990513905671271E-008  2.07779310373467155E-002 -3.17407199313188698E-002 -1.54843838811187171E-002  1.38548435146795771E-002  3.17407315965631404E-002 -1.54843540524094280E-002  3.46327778708808431E-002  5.21376296115762432E-009 -1.04475532530790005E-008 -2.07779414644428395E-002  3.17407267056716430E-002  1.54843793912196256E-002 -1.38548602603346185E-002 -3.17407306313508761E-002

* Maximum dynamic memory allocated =     3 MB

siesta:                 ==============================
                            Begin MD step =     50
                        ==============================

outcoor: Atomic coordinates (fractional):                   
    0.00000000   -0.00000000    0.00000000   1       1  Mg
    0.50000000    0.50000000    0.50000000   1       2  Mg
    0.24999999    0.24999998    0.25000002   2       3  C
   -0.24999999   -0.24999998   -0.25000002   2       4  C
    0.58548448   -0.08548449    0.24999999   3       5  O
    0.25000000    0.58548446   -0.08548447   3       6  O
   -0.08548449    0.24999999    0.58548451   3       7  O
   -0.58548447    0.08548445   -0.24999997   3       8  O
   -0.24999999   -0.58548447    0.08548446   3       9  O
    0.08548449   -0.24999999   -0.58548450   3      10  O

outcell: Unit cell vectors (Ang):
        5.499877    0.133574    0.087440
        3.766893    4.009615    0.087440
        3.766893    1.684184    3.639805

outcell: Cell vector modules (Ang)   :    5.502194    5.502194    5.502194
outcell: Cell angles (23,13,12) (deg):     45.3904     45.3904     45.3904
outcell: Cell volume (Ang**3)        :     76.9031
New_DM. Step:    50
Initializing Density Matrix...

InitMesh: MESH =    24 x    24 x    24 =       13824
InitMesh: Mesh cutoff (required, used) =    50.000    65.606 Ry

siesta: Eharris(eV) =   -2971.183255


siesta: Eharris(eV) =   -2971.183255


siesta: Atomic forces (eV/Ang):
     1   -0.000000   -0.000000    0.000000
     2   -0.000000   -0.000001   -0.000000
     3   -0.000000    0.000000   -0.000001
     4   -0.000000    0.000000    0.000002
     5   -1.042786    2.332332   -0.000010
     6    0.000011   -1.399284    2.137565
     7    1.042789   -0.933040   -2.137568
     8    1.042787   -2.332324    0.000006
     9   -0.000009    1.399276   -2.137566
    10   -1.042792    0.933037    2.137580
----------------------------------------
   Tot   -0.000000   -0.000005    0.000007
----------------------------------------
   Max    2.332332
   Res    1.142556    sqrt( Sum f_i^2 / 3N )
----------------------------------------
   Max    2.332332    constrained

Stress-tensor-Voigt (kbar):     1077.76     1118.79     1124.65      -22.93       -6.71      -15.01
(Free)E + p*V (eV/cell)    -2989.7978
Target enthalpy (eV/cell)    -2931.8602

siesta: Stress tensor (static) (eV/Ang**3):
         0.678469   -0.023378   -0.015303
        -0.023378    0.720304   -0.006842
        -0.015303   -0.006842    0.726277

siesta: Pressure (static):      -1134.91454792  kBar

siesta: Stress tensor (total) (eV/Ang**3):
         0.672678   -0.014311   -0.009368
        -0.014311    0.698287   -0.004188
        -0.009368   -0.004188    0.701944

siesta: Pressure (total):      -1107.06757677  kBar

siesta: E_kin PR =  116487.371 K

siesta: Temp_ion =    1689.673 K
 iupos on opening:           17
 iupos on writing:           17
 istep, xa, va :           50  9.55841944087646419E-010 -1.79123362562237663E-009  1.93598013422727481E-009   12.306559259607800        5.5022836452239794        3.6018756411635771        6.1532795523233998        2.7511417683038073        1.8009379763709041       -6.1532795423589794       -2.7511417808026515       -1.8009379900951583        7.2516513752994314       0.29449304298825307        1.8009377342227275        6.1532795727435454        4.2250079788273682      -0.45056416980963904        5.0549078063467201        3.7339241992267986        4.0524401068614910       -7.2516512794540624      -0.29449323900238522       -1.8009375867879018       -6.1532795720665279       -4.2250080827701924       0.45056410589322804       -5.0549078382780079       -3.7339242337616967       -4.0524400415655979      -1.15704150599365562E-010 -6.16632510010142768E-010  5.36551457306734939E-010 -1.19972116927863472E-009 -1.44676984624573565E-009 -7.66745805846415551E-010 -9.93948838831045634E-009 -8.94852070335955833E-009  1.44265403206039687E-008  1.18764361459891129E-008  3.47091494472885967E-009 -1.78636478547906510E-008  1.52092531732432607E-002 -3.40174548834945648E-002 -1.33648760665494106E-009  1.32492405241491085E-008  2.04087526896156932E-002 -3.11767542127696085E-002 -1.52092615476518978E-002  1.36086739580312532E-002  3.11767659166005233E-002 -1.52092308658650904E-002  3.40174282906968092E-002  4.96454095039013332E-009 -1.38746993408322972E-008 -2.04087628355296251E-002  3.11767611857005529E-002  1.52092560492496712E-002 -1.36086904183129725E-002 -3.11767630764393650E-002

* Maximum dynamic memory allocated =     3 MB

outcell: Unit cell vectors (Ang):
        5.491815    0.140182    0.091765
        3.766441    3.999200    0.091765
        3.766441    1.683982    3.628530

outcell: Cell vector modules (Ang)   :    5.494370    5.494370    5.494370
outcell: Cell angles (23,13,12) (deg):     45.2480     45.2480     45.2480
outcell: Cell volume (Ang**3)        :     76.1767

siesta: Program's energy decomposition (eV):
siesta: Ebs     =      -736.099990
siesta: Eions   =      5228.674091
siesta: Ena     =      1092.841592
siesta: Ekin    =      2411.129950
siesta: Enl     =      -399.387048
siesta: DEna    =      -121.413049
siesta: DUscf   =        36.081406
siesta: DUext   =         0.000000
siesta: Exc     =      -727.238791
siesta: eta*DQ  =         0.000000
siesta: Emadel  =         0.000000
siesta: Emeta   =         0.000000
siesta: Emolmec =         0.000000
siesta: Ekinion =         1.965588
siesta: Eharris =     -2969.217667
siesta: Etot    =     -2934.694444
siesta: FreeEng =     -2934.694444

siesta: Final energy (eV):
siesta:  Band Struct. =    -736.099990
siesta:       Kinetic =    2411.129950
siesta:       Hartree =     894.739036
siesta:    Ext. field =       0.000000
siesta:   Exch.-corr. =    -727.238791
siesta:  Ion-electron =   -3750.353330
siesta:       Ion-ion =   -1764.936897
siesta:       Ekinion =       1.965588
siesta:         Total =   -2934.694444

siesta: Atomic forces (eV/Ang):
siesta:      1   -0.000000   -0.000000    0.000000
siesta:      2   -0.000000   -0.000001   -0.000000
siesta:      3   -0.000000    0.000000   -0.000001
siesta:      4   -0.000000    0.000000    0.000002
siesta:      5   -1.042786    2.332332   -0.000010
siesta:      6    0.000011   -1.399284    2.137565
siesta:      7    1.042789   -0.933040   -2.137568
siesta:      8    1.042787   -2.332324    0.000006
siesta:      9   -0.000009    1.399276   -2.137566
siesta:     10   -1.042792    0.933037    2.137580
siesta: ----------------------------------------
siesta:    Tot   -0.000000   -0.000005    0.000007

siesta: Stress tensor (static) (eV/Ang**3):
siesta:     0.678469   -0.023378   -0.015303
siesta:    -0.023378    0.720304   -0.006842
siesta:    -0.015303   -0.006842    0.726277

siesta: Cell volume =         76.903104 Ang**3

siesta: Pressure (static):
siesta:                Solid            Molecule  Units
siesta:          -0.00771484         -0.00668408  Ry/Bohr**3
siesta:          -0.70835029         -0.61370907  eV/Ang**3
siesta:       -1134.91454792       -983.28095245  kBar
(Free)E+ p_basis*V_orbitals  =       -2935.465735
(Free)Eharris+ p_basis*V_orbitals  =       -2919.595473

* Maximum dynamic memory allocated : Node    0 =     3 MB
* Maximum dynamic memory allocated : Node    1 =     3 MB

* Maximum memory occured during ranger                        

timer: CPU execution times:
timer:  Routine       Calls   Time/call    Tot.time        %
timer:  siesta            1      36.445      36.445   100.00
timer:  Setup             1       0.977       0.977     2.68
timer:  bands             1       0.001       0.001     0.00
timer:  writewave         1       0.002       0.002     0.01
timer:  KSV_init          1       0.000       0.000     0.00
timer:  IterMD           50       0.709      35.441    97.25
timer:  hsparse          50       0.035       1.726     4.73
timer:  overlap          50       0.006       0.304     0.83
timer:  IterSCF          50       0.335      16.730    45.90
timer:  kinefsm         100       0.005       0.531     1.46
timer:  nlefsm          100       0.041       4.100    11.25
timer:  DHSCF           100       0.258      25.829    70.87
timer:  DHSCF1           50       0.071       3.539     9.71
timer:  DHSCF2           50       0.147       7.330    20.11
timer:  REORD           900       0.000       0.045     0.12
timer:  POISON          150       0.007       1.026     2.81
timer:  DHSCF3          100       0.060       6.002    16.47
timer:  rhoofd          100       0.028       2.817     7.73
timer:  cellXC          150       0.008       1.267     3.48
timer:  vmat            100       0.015       1.473     4.04
timer:  MolMec          100       0.000       0.002     0.00
timer:  diagon           50       0.004       0.213     0.59
timer:  r-eigvec         50       0.004       0.202     0.55
timer:  r-buildHS        50       0.000       0.001     0.00
timer:  rdiag            50       0.004       0.200     0.55
timer:  rdiag1           50       0.000       0.013     0.04
timer:  rdiag2           50       0.000       0.016     0.04
timer:  rdiag3           50       0.003       0.141     0.39
timer:  rdiag4           50       0.000       0.011     0.03
timer:  r-buildD         50       0.000       0.008     0.02
timer:  DHSCF4           50       0.179       8.927    24.49
timer:  dfscf            50       0.118       5.912    16.22
timer:  overfsm          50       0.005       0.245     0.67
timer:  optical           1       0.014       0.014     0.04
  

elaps: ELAPSED times:
elaps:  Routine       Calls   Time/call    Tot.time        %
elaps:  siesta            1      19.079      19.079    99.99
elaps:  Setup             1       0.504       0.504     2.64
elaps:  bands             1       0.001       0.001     0.01
elaps:  writewave         1       0.001       0.001     0.01
elaps:  KSV_init          1       0.000       0.000     0.00
elaps:  IterMD           50       0.371      18.560    97.27
elaps:  hsparse          50       0.020       1.011     5.30
elaps:  overlap          50       0.004       0.194     1.02
elaps:  IterSCF          50       0.176       8.803    46.13
elaps:  kinefsm         100       0.003       0.306     1.60
elaps:  nlefsm          100       0.024       2.427    12.72
elaps:  DHSCF           100       0.134      13.378    70.11
elaps:  DHSCF1           50       0.040       2.010    10.53
elaps:  DHSCF2           50       0.074       3.711    19.45
elaps:  REORD           900       0.000       0.023     0.12
elaps:  POISON          150       0.003       0.514     2.69
elaps:  DHSCF3          100       0.031       3.058    16.03
elaps:  rhoofd          100       0.015       1.468     7.69
elaps:  cellXC          150       0.004       0.648     3.40
elaps:  vmat            100       0.008       0.752     3.94
elaps:  MolMec          100       0.000       0.001     0.01
elaps:  diagon           50       0.002       0.111     0.58
elaps:  r-eigvec         50       0.002       0.102     0.53
elaps:  r-buildHS        50       0.000       0.002     0.01
elaps:  rdiag            50       0.002       0.100     0.52
elaps:  rdiag1           50       0.000       0.008     0.04
elaps:  rdiag2           50       0.000       0.006     0.03
elaps:  rdiag3           50       0.001       0.071     0.37
elaps:  rdiag4           50       0.000       0.003     0.02
elaps:  r-buildD         50       0.000       0.007     0.04
elaps:  DHSCF4           50       0.091       4.551    23.85
elaps:  dfscf            50       0.060       3.017    15.81
elaps:  overfsm          50       0.003       0.135     0.71
elaps:  optical           1       0.000       0.000     0.00
  
>> End of run:  30-JUN-2010  16:29:04
