Siesta Version (Arch framework):
siesta@uam.es--2005/siesta-devel--reference--1.5--patch-15
Architecture  : intel9-mkl8
Compiler flags: ifort -w -xP -O3 -mp1
SERIAL version

* Running in serial mode
>> Start of run:  26-JAN-2006  17:24:07

                           ***********************       
                           *  WELCOME TO SIESTA  *       
                           ***********************       

reinit: Reading from standard input
************************** Dump of input data file ****************************
#
# MgCO3 in primitive cell. SZ. Parrinello-Rahman. Harris
#
SystemName	MgCo3 R-3c Harris -- SZ, 50 R -- PR at 10 Gpa
SystemLabel	md_pr
NumberOfSpecies		3
NumberOfAtoms	       10
%block ChemicalSpeciesLabel
      1      12     Mg
      2       6     C
      3       8     O
%endblock ChemicalSpeciesLabel
PAO.BasisSize  SZ
Diag.Divide-and-Conquer F
# Rhombohedral primitive cell
# (HEX 3-fold cell had A=4.635 and C=15.023, so alpha=48.179 degrees
#  and a=5.67783 Ang)
LatticeConstant     5.67783 Ang
%block LatticeParameters
1.0 1.0 1.0 48.179 48.179 48.179
%endblock LatticeParameters
AtomicCoordinatesFormat    Fractional
%block AtomicCoordinatesAndAtomicSpecies
  0.0         0.0         0.0      1
  0.5         0.5         0.5      1
  0.25        0.25        0.25     2
 -0.25       -0.25       -0.25     2
  0.5274     -0.0274      0.25     3
  0.25        0.5274     -0.0274   3
 -0.0274      0.25        0.5274   3
 -0.5274      0.0274     -0.25     3
 -0.25       -0.5274      0.0274   3
  0.0274     -0.25       -0.5274   3
%endblock AtomicCoordinatesAndAtomicSpecies
kgrid_cutoff 2.0 Ang
Solution.Method       diagon
MeshCutoff             50 Ry
DM.NumberBroyden       4
DM.UseSaveDM           T
DM.MixingWeight        0.1         # New DM amount for next SCF cycle
DM.Tolerance           1.d-3       # Tolerance in maximum difference
                                   # between input and output DM
MaxSCFIterations       20
WriteCoorStep      .true.
WriteForces        .true.
HarrisFunctional T
WriteMDHistory     .true.
MD.UseSaveXV       T
MD.TypeOfRun         ParrinelloRahman
MD.Target-pressure   10.0 GPa
MD.Initial.Time.Step      1
MD.Final.Time.Step        50
MD.Length.Time.Step       0.3 fs
************************** End of input data file *****************************

reinit: -----------------------------------------------------------------------
reinit: System Name: MgCo3 R-3c Harris -- SZ, 50 R -- PR at 10 Gpa              
reinit: -----------------------------------------------------------------------
reinit: System Label: md_pr                                                       
reinit: -----------------------------------------------------------------------

initatom: Reading input for the pseudopotentials and atomic orbitals ----------
 Species number:            1  Label: Mg Atomic number:          12
 Species number:            2  Label: C Atomic number:           6
 Species number:            3  Label: O Atomic number:           8
Ground state valence configuration:   3s02
Reading pseudopotential information in formatted form from Mg.psf
Ground state valence configuration:   2s02  2p02
Reading pseudopotential information in formatted form from C.psf
Ground state valence configuration:   2s02  2p04
Reading pseudopotential information in formatted form from O.psf
For Mg, standard SIESTA heuristics set lmxkb to 1
 (one more than the basis l, including polarization orbitals).
Use PS.lmax or PS.KBprojectors blocks to override.
For C, standard SIESTA heuristics set lmxkb to 2
 (one more than the basis l, including polarization orbitals).
Use PS.lmax or PS.KBprojectors blocks to override.
For O, standard SIESTA heuristics set lmxkb to 2
 (one more than the basis l, including polarization orbitals).
Use PS.lmax or PS.KBprojectors blocks to override.

<basis_specs>
===============================================================================
Mg                   Z=  12    Mass=  24.310        Charge=  0.0000    
Lmxo=0 Lmxkb=1     BasisType=split      Semic=F
L=0  Nsemic=0  Cnfigmx=3
          n=1  nzeta=1  polorb=0
               vcte:    0.0000    
               rinn:    0.0000    
                rcs:    0.0000    
            lambdas:    1.0000    
-------------------------------------------------------------------------------
L=0  Nkbl=1  erefs: 0.17977+309
L=1  Nkbl=1  erefs: 0.17977+309
===============================================================================
</basis_specs>

atom: Called for Mg  (Z =  12)

read_vps: Pseudopotential generation method:
read_vps: ATM3      Troullier-Martins                       

read_vps: Valence configuration (pseudopotential and basis set generation):
3s( 2.00) rc: 2.59
3p( 0.00) rc: 2.59
Total valence charge:    2.00000

xc_check: Exchange-correlation functional:
xc_check: Ceperley-Alder
V l=0 = -2*Zval/r beyond r=  3.5878
V l=1 = -2*Zval/r beyond r=  3.5878
All V_l potentials equal beyond r=  2.5600
This should be close to max(r_c) in ps generation
All pots = -2*Zval/r beyond r=  3.5878
Using large-core scheme for Vlocal

atom: Estimated core radius    3.58779

atom: Including non-local core corrections could be a good idea
atom: Maximum radius for 4*pi*r*r*local-pseudopot. charge    3.91588
atom: Maximum radius for r*vlocal+2*Zval:    3.63292
GHOST: No ghost state for L =  0
GHOST: No ghost state for L =  1

KBgen: Kleinman-Bylander projectors: 
   l= 0   rc=  2.657845   el= -0.351328   Ekb=  2.184400   kbcos=  0.257081
   l= 1   rc=  2.657845   el= -0.101748   Ekb=  0.525536   kbcos=  0.270508

KBgen: Total number of  Kleinman-Bylander projectors:    4
atom: -------------------------------------------------------------------------

atom: SANKEY-TYPE ORBITALS:

SPLIT: Orbitals with angular momentum L= 0

SPLIT: Basis orbitals for state 3s

SPLIT: PAO cut-off radius determinated from an
SPLIT: energy shift=  0.020000 Ry

   izeta = 1
                 lambda =    1.000000
                     rc =    6.619780
                 energy =   -0.332103
                kinetic =    0.289627
    potential(screened) =   -0.621729
       potential(ionic) =   -1.387191
atom: Total number of Sankey-type orbitals:  1

atm_pop: Valence configuration(local Pseudopot. screening):
 3s( 2.00)                                                            
Vna: chval, zval:    2.00000   2.00000

Vna:  Cut-off radius for the neutral-atom potential:   6.619780

atom: _________________________________________________________________________

<basis_specs>
===============================================================================
C                    Z=   6    Mass=  12.010        Charge=  0.0000    
Lmxo=1 Lmxkb=2     BasisType=split      Semic=F
L=0  Nsemic=0  Cnfigmx=2
          n=1  nzeta=1  polorb=0
               vcte:    0.0000    
               rinn:    0.0000    
                rcs:    0.0000    
            lambdas:    1.0000    
L=1  Nsemic=0  Cnfigmx=2
          n=1  nzeta=1  polorb=0
               vcte:    0.0000    
               rinn:    0.0000    
                rcs:    0.0000    
            lambdas:    1.0000    
-------------------------------------------------------------------------------
L=0  Nkbl=1  erefs: 0.17977+309
L=1  Nkbl=1  erefs: 0.17977+309
L=2  Nkbl=1  erefs: 0.17977+309
===============================================================================
</basis_specs>

atom: Called for C   (Z =   6)

read_vps: Pseudopotential generation method:
read_vps: ATM3      Troullier-Martins                       

read_vps: Valence configuration (pseudopotential and basis set generation):
2s( 2.00) rc: 1.49
2p( 2.00) rc: 1.52
3d( 0.00) rc: 1.58
Total valence charge:    4.00000

xc_check: Exchange-correlation functional:
xc_check: Ceperley-Alder
V l=0 = -2*Zval/r beyond r=  1.4666
V l=1 = -2*Zval/r beyond r=  1.5038
V l=2 = -2*Zval/r beyond r=  1.5612
All V_l potentials equal beyond r=  1.5612
This should be close to max(r_c) in ps generation
All pots = -2*Zval/r beyond r=  1.5612

VLOCAL1: 99.0% of the norm of Vloc inside     17.809 Ry
VLOCAL1: 99.9% of the norm of Vloc inside     40.586 Ry
atom: Maximum radius for 4*pi*r*r*local-pseudopot. charge    1.88329
atom: Maximum radius for r*vlocal+2*Zval:    1.62091
GHOST: No ghost state for L =  0
GHOST: No ghost state for L =  1
GHOST: No ghost state for L =  2

KBgen: Kleinman-Bylander projectors: 
   l= 0   rc=  1.747182   el= -1.001947   Ekb=  5.181700   kbcos=  0.300603
   l= 1   rc=  1.747182   el= -0.398598   Ekb= -4.328763   kbcos= -0.367074
   l= 2   rc=  1.955272   el=  0.002326   Ekb= -1.016175   kbcos= -0.009979

KBgen: Total number of  Kleinman-Bylander projectors:    9
atom: -------------------------------------------------------------------------

atom: SANKEY-TYPE ORBITALS:

SPLIT: Orbitals with angular momentum L= 0

SPLIT: Basis orbitals for state 2s

SPLIT: PAO cut-off radius determinated from an
SPLIT: energy shift=  0.020000 Ry

   izeta = 1
                 lambda =    1.000000
                     rc =    4.191849
                 energy =   -0.983897
                kinetic =    0.886956
    potential(screened) =   -1.870853
       potential(ionic) =   -5.479661

SPLIT: Orbitals with angular momentum L= 1

SPLIT: Basis orbitals for state 2p

SPLIT: PAO cut-off radius determinated from an
SPLIT: energy shift=  0.020000 Ry

   izeta = 1
                 lambda =    1.000000
                     rc =    4.870301
                 energy =   -0.379093
                kinetic =    2.545357
    potential(screened) =   -2.924450
       potential(ionic) =   -6.433151
atom: Total number of Sankey-type orbitals:  4

atm_pop: Valence configuration(local Pseudopot. screening):
 2s( 2.00)                                                            
 2p( 2.00)                                                            
Vna: chval, zval:    4.00000   4.00000

Vna:  Cut-off radius for the neutral-atom potential:   4.870301

atom: _________________________________________________________________________

<basis_specs>
===============================================================================
O                    Z=   8    Mass=  16.000        Charge=  0.0000    
Lmxo=1 Lmxkb=2     BasisType=split      Semic=F
L=0  Nsemic=0  Cnfigmx=2
          n=1  nzeta=1  polorb=0
               vcte:    0.0000    
               rinn:    0.0000    
                rcs:    0.0000    
            lambdas:    1.0000    
L=1  Nsemic=0  Cnfigmx=2
          n=1  nzeta=1  polorb=0
               vcte:    0.0000    
               rinn:    0.0000    
                rcs:    0.0000    
            lambdas:    1.0000    
-------------------------------------------------------------------------------
L=0  Nkbl=1  erefs: 0.17977+309
L=1  Nkbl=1  erefs: 0.17977+309
L=2  Nkbl=1  erefs: 0.17977+309
===============================================================================
</basis_specs>

atom: Called for O   (Z =   8)

read_vps: Pseudopotential generation method:
read_vps: ATM3      Troullier-Martins                       

read_vps: Valence configuration (pseudopotential and basis set generation):
2s( 2.00) rc: 1.14
2p( 4.00) rc: 1.14
3d( 0.00) rc: 1.14
Total valence charge:    6.00000

xc_check: Exchange-correlation functional:
xc_check: Ceperley-Alder
V l=0 = -2*Zval/r beyond r=  1.1278
V l=1 = -2*Zval/r beyond r=  1.1278
V l=2 = -2*Zval/r beyond r=  1.1278
All V_l potentials equal beyond r=  1.1278
This should be close to max(r_c) in ps generation
All pots = -2*Zval/r beyond r=  1.1278

VLOCAL1: 99.0% of the norm of Vloc inside     34.126 Ry
VLOCAL1: 99.9% of the norm of Vloc inside     77.774 Ry
atom: Maximum radius for 4*pi*r*r*local-pseudopot. charge    1.37759
atom: Maximum radius for r*vlocal+2*Zval:    1.18566
GHOST: No ghost state for L =  0
GHOST: No ghost state for L =  1
GHOST: No ghost state for L =  2

KBgen: Kleinman-Bylander projectors: 
   l= 0   rc=  1.294105   el= -1.742414   Ekb=  9.135903   kbcos=  0.326910
   l= 1   rc=  1.294105   el= -0.676589   Ekb= -8.124878   kbcos= -0.395047
   l= 2   rc=  1.448233   el=  0.002386   Ekb= -2.039267   kbcos= -0.003484

KBgen: Total number of  Kleinman-Bylander projectors:    9
atom: -------------------------------------------------------------------------

atom: SANKEY-TYPE ORBITALS:

SPLIT: Orbitals with angular momentum L= 0

SPLIT: Basis orbitals for state 2s

SPLIT: PAO cut-off radius determinated from an
SPLIT: energy shift=  0.020000 Ry

   izeta = 1
                 lambda =    1.000000
                     rc =    3.305093
                 energy =   -1.723766
                kinetic =    1.614911
    potential(screened) =   -3.338677
       potential(ionic) =  -11.304675

SPLIT: Orbitals with angular momentum L= 1

SPLIT: Basis orbitals for state 2p

SPLIT: PAO cut-off radius determinated from an
SPLIT: energy shift=  0.020000 Ry

   izeta = 1
                 lambda =    1.000000
                     rc =    3.937239
                 energy =   -0.658841
                kinetic =    5.005986
    potential(screened) =   -5.664827
       potential(ionic) =  -13.452360
atom: Total number of Sankey-type orbitals:  4

atm_pop: Valence configuration(local Pseudopot. screening):
 2s( 2.00)                                                            
 2p( 4.00)                                                            
Vna: chval, zval:    6.00000   6.00000

Vna:  Cut-off radius for the neutral-atom potential:   3.937239

atom: _________________________________________________________________________

prinput: Basis input ----------------------------------------------------------

PAO.BasisType split     

%block ChemicalSpeciesLabel
    1   12 Mg                      # Species index, atomic number, species label
    2    6 C                       # Species index, atomic number, species label
    3    8 O                       # Species index, atomic number, species label
%endblock ChemicalSpeciesLabel

%block PAO.Basis                 # Define Basis set
Mg          1                    # Species label, number of l-shells
 n=3   0   1                         # n, l, Nzeta 
   6.620   
   1.000   
C           2                    # Species label, number of l-shells
 n=2   0   1                         # n, l, Nzeta 
   4.192   
   1.000   
 n=2   1   1                         # n, l, Nzeta 
   4.870   
   1.000   
O           2                    # Species label, number of l-shells
 n=2   0   1                         # n, l, Nzeta 
   3.305   
   1.000   
 n=2   1   1                         # n, l, Nzeta 
   3.937   
   1.000   
%endblock PAO.Basis

prinput: ----------------------------------------------------------------------


siesta: ******************** Simulation parameters ****************************
siesta:
siesta: The following are some of the parameters of the simulation.
siesta: A complete list of the parameters used, including defect values,
siesta: can be found in file out.fdf
siesta:
coor:   Atomic-coordinates input format  =     Fractional
redata: Number of spin components        =     1
redata: Long output                      =     F
redata: Number of Atomic Species         =     3
redata: Charge density info will appear in .RHO file
redata: Write Mulliken Pop.              =     NO
redata: Mesh Cutoff                      =    50.0000  Ry
redata: Net charge of the system         =     0.0000 |e|
redata: Max. number of SCF Iter          =    20
redata: Broyden mixing with     4 saved histories.
redata: Mix DM in first SCF step ?       =     F
redata: Write Pulay info on disk?        =     F
redata: New DM Mixing Weight             =     0.1000
redata: New DM Occupancy tolerance       = 0.000000000001
redata: No kicks to SCF
redata: DM Mixing Weight for Kicks       =     0.5000
redata: DM Tolerance for SCF             =     0.001000
redata: Require Energy convergence for SCF =     F
redata: DM Energy tolerance for SCF      =     0.000100 eV
redata: Using Saved Data (generic)   =     F
redata: Use continuation files for DM    =     T
redata: Neglect nonoverlap interactions  =     F
redata: Method of Calculation            =     Diagonalization
redata: Divide and Conquer               =     F
redata: Electronic Temperature           =     0.0019  Ry
redata: Fix the spin of the system       =     F
redata: Dynamics option                  =     Parrinello-Rahman MD run
redata: Broyden Optimization             = F
redata: Initial MD time step             =     1
redata:   Final MD time step             =    50
redata: Length of MD time step           =     0.3000  fs
redata: Initial Temperature of MD run    =     0.0000  K
redata: Perform a MD quench              =     F
redata: Parrinello-Rahman mass           =   100.0000  Ry/fs**2
redata: Target Pressure                  =     0.0007  Ry/Bohr**3
redata: ***********************************************************************

siesta: WARNING: XV file not found

siesta: Atomic coordinates (Bohr) and species
siesta:      0.00000   0.00000   0.00000  1        1
siesta:     12.51930   5.59740   3.66414  1        2
siesta:      6.25965   2.79870   1.83207  2        3
siesta:     -6.25965  -2.79870  -1.83207  2        4
siesta:      7.25136   0.58061   1.83207  3        5
siesta:      6.25965   4.12944  -0.20079  3        6
siesta:      5.26794   3.68605   3.86493  3        7
siesta:     -7.25136  -0.58061  -1.83207  3        8
siesta:     -6.25965  -4.12944   0.20079  3        9
siesta:     -5.26794  -3.68605  -3.86493  3       10

initatomlists: Number of atoms, orbitals, and projectors:        10       34       80

siesta: System type = bulk      

* Maximum dynamic memory allocated =     1 MB

siesta:                 ==============================
                            Begin MD step =      1
                        ==============================

outcoor: Atomic coordinates (fractional):                   
    0.00000000    0.00000000    0.00000000   1  Mg         1
    0.50000000    0.50000000    0.50000000   1  Mg         2
    0.25000000    0.25000000    0.25000000   2  C          3
   -0.25000000   -0.25000000   -0.25000000   2  C          4
    0.52740000   -0.02740000    0.25000000   3  O          5
    0.25000000    0.52740000   -0.02740000   3  O          6
   -0.02740000    0.25000000    0.52740000   3  O          7
   -0.52740000    0.02740000   -0.25000000   3  O          8
   -0.25000000   -0.52740000    0.02740000   3  O          9
    0.02740000   -0.25000000   -0.52740000   3  O         10

outcell: Unit cell vectors (Ang):
        5.677830    0.000000    0.000000
        3.786009    4.231299    0.000000
        3.786009    1.692731    3.877957

outcell: Cell vector modules (Ang)   :    5.677830    5.677830    5.677830
outcell: Cell angles (23,13,12) (deg):     48.1790     48.1790     48.1790
outcell: Cell volume (Ang**3)        :     93.1663

InitMesh: MESH =    24 x    24 x    24 =       13824
InitMesh: Mesh cutoff (required, used) =    50.000    63.482 Ry

* Maximum dynamic memory allocated =     4 MB

stepf: Fermi-Dirac step function
 Broyden: No of relevant DM elements:         1156
 maxit for broyden:            4
 cycle on maxit:  T
 variable weight:  T
 initial alpha:   0.100000000000000     

siesta: Program's energy decomposition (eV):
siesta: Eions   =      5228.674091
siesta: Ena     =      1092.429478
siesta: Ekin    =      2069.792750
siesta: Enl     =      -254.036139
siesta: DEna    =        15.961142
siesta: DUscf   =         0.158223
siesta: DUext   =         0.000000
siesta: Exc     =      -679.402762
siesta: eta*DQ  =         0.000000
siesta: Emadel  =         0.000000
siesta: Ekinion =         0.000000
siesta: Eharris =     -2966.596178
siesta: Etot    =     -2983.771399
siesta: FreeEng =     -2983.771399

siesta: Eharris(eV) =   -2966.596178


siesta: Eharris(eV) =   -2966.596178

timer: Routine,Calls,Time,% = IterSCF        1       0.689  45.72
elaps: Routine,Calls,Wall,% = IterSCF        1       0.689  45.62

siesta: E_KS - E_eggbox =     -2945.6640

siesta: Atomic forces (eV/Ang):
     1    0.000000    0.000000    0.000000
     2    0.000047    0.000004    0.000009
     3    0.000453    0.000036    0.000079
     4   -0.000454   -0.000035   -0.000079
     5    2.998887   -6.707375   -0.000007
     6   -0.000010    4.024099   -6.147271
     7   -2.998896    2.683302    6.147290
     8   -2.998887    6.707375    0.000006
     9    0.000010   -4.024098    6.147272
    10    2.998897   -2.683301   -6.147291
----------------------------------------
 Tot    0.000048    0.000005    0.000009
----------------------------------------
 Max    6.707375
 Res    3.285800    sqrt( Sum f_i^2 / 3N )
----------------------------------------
 Max    6.707375    constrained

Stress-tensor-Voigt (kbar):      720.98      465.33      428.83      142.86       41.81       93.52
Target enthalpy (eV/cell)    -2939.8490

siesta: Stress tensor (static) (eV/Ang**3):
         0.449994    0.089164    0.058368
         0.089164    0.290433    0.026096
         0.058368    0.026096    0.267650

siesta: Pressure (static):       -538.37804756  kBar

siesta: Stress tensor (total) (eV/Ang**3):
         0.449994    0.089164    0.058368
         0.089164    0.290433    0.026096
         0.058368    0.026096    0.267650

siesta: Pressure (total):       -538.37804756  kBar

siesta: E_kin PR =       5.259 K

siesta: Temp_ion =       0.000 K

* Maximum dynamic memory allocated =     4 MB

siesta:                 ==============================
                            Begin MD step =      2
                        ==============================

outcoor: Atomic coordinates (fractional):                   
    0.00000000    0.00000000    0.00000000   1  Mg         1
    0.50000000    0.50000000    0.50000000   1  Mg         2
    0.25000000    0.25000000    0.25000000   2  C          3
   -0.25000000   -0.25000000   -0.25000000   2  C          4
    0.52744271   -0.02744271    0.25000000   3  O          5
    0.25000000    0.52744271   -0.02744271   3  O          6
   -0.02744271    0.25000000    0.52744271   3  O          7
   -0.52744271    0.02744271   -0.25000000   3  O          8
   -0.25000000   -0.52744271    0.02744271   3  O          9
    0.02744271   -0.25000000   -0.52744271   3  O         10

outcell: Unit cell vectors (Ang):
        5.677709    0.000074    0.000048
        3.785983    4.231159    0.000048
        3.785983    1.692720    3.877810

outcell: Cell vector modules (Ang)   :    5.677709    5.677709    5.677709
outcell: Cell angles (23,13,12) (deg):     48.1775     48.1775     48.1775
outcell: Cell volume (Ang**3)        :     93.1558

InitMesh: MESH =    24 x    24 x    24 =       13824
InitMesh: Mesh cutoff (required, used) =    50.000    63.484 Ry

siesta: Eharris(eV) =   -2966.604701


siesta: Eharris(eV) =   -2966.604701


siesta: Atomic forces (eV/Ang):
     1    0.000010    0.000034   -0.000033
     2   -0.000047   -0.000004   -0.000009
     3   -0.000452   -0.000036   -0.000079
     4    0.000453    0.000036    0.000078
     5    2.995619   -6.700084   -0.000005
     6   -0.000001    4.019715   -6.140581
     7   -2.995624    2.680364    6.140590
     8   -2.995619    6.700083    0.000004
     9    0.000001   -4.019718    6.140580
    10    2.995624   -2.680363   -6.140591
----------------------------------------
 Tot   -0.000037    0.000027   -0.000045
----------------------------------------
 Max    6.700084
 Res    3.282221    sqrt( Sum f_i^2 / 3N )
----------------------------------------
 Max    6.700084    constrained

Stress-tensor-Voigt (kbar):      720.83      465.31      428.83      142.79       41.79       93.47
Target enthalpy (eV/cell)    -2939.8531

siesta: Stress tensor (static) (eV/Ang**3):
         0.449904    0.089120    0.058339
         0.089120    0.290422    0.026083
         0.058339    0.026083    0.267651

siesta: Pressure (static):       -538.32509999  kBar

siesta: Stress tensor (total) (eV/Ang**3):
         0.449904    0.089120    0.058339
         0.089120    0.290422    0.026083
         0.058339    0.026083    0.267651

siesta: Pressure (total):       -538.32509999  kBar

siesta: E_kin PR =      47.319 K

siesta: Temp_ion =       7.494 K

* Maximum dynamic memory allocated =     4 MB

siesta:                 ==============================
                            Begin MD step =      3
                        ==============================

outcoor: Atomic coordinates (fractional):                   
    0.00000000    0.00000000    0.00000000   1  Mg         1
    0.50000000    0.50000000    0.50000000   1  Mg         2
    0.25000000    0.25000000    0.25000000   2  C          3
   -0.25000000   -0.25000000   -0.25000000   2  C          4
    0.52757075   -0.02757075    0.25000000   3  O          5
    0.25000000    0.52757075   -0.02757075   3  O          6
   -0.02757075    0.25000000    0.52757075   3  O          7
   -0.52757075    0.02757075   -0.25000000   3  O          8
   -0.25000000   -0.52757075    0.02757075   3  O          9
    0.02757075   -0.25000000   -0.52757075   3  O         10

outcell: Unit cell vectors (Ang):
        5.677467    0.000220    0.000144
        3.785931    4.230881    0.000144
        3.785931    1.692696    3.877516

outcell: Cell vector modules (Ang)   :    5.677467    5.677467    5.677467
outcell: Cell angles (23,13,12) (deg):     48.1745     48.1745     48.1745
outcell: Cell volume (Ang**3)        :     93.1346

InitMesh: MESH =    24 x    24 x    24 =       13824
InitMesh: Mesh cutoff (required, used) =    50.000    63.487 Ry

siesta: Eharris(eV) =   -2966.630660


siesta: Eharris(eV) =   -2966.630660


siesta: Atomic forces (eV/Ang):
     1   -0.000010   -0.000034    0.000033
     2    0.000001    0.000048   -0.000004
     3   -0.000323    0.000123   -0.000310
     4    0.000373   -0.000067    0.000267
     5    2.984286   -6.674749    0.000000
     6   -0.000019    4.004498   -6.117335
     7   -2.984275    2.670229    6.117347
     8   -2.984287    6.674750    0.000000
     9    0.000023   -4.004497    6.117334
    10    2.984272   -2.670230   -6.117349
----------------------------------------
 Tot    0.000040    0.000071   -0.000018
----------------------------------------
 Max    6.674750
 Res    3.269801    sqrt( Sum f_i^2 / 3N )
----------------------------------------
 Max    6.674750    constrained

Stress-tensor-Voigt (kbar):      721.19      466.55      430.16      142.30       41.63       93.17
Target enthalpy (eV/cell)    -2939.8662

siesta: Stress tensor (static) (eV/Ang**3):
         0.450131    0.088813    0.058138
         0.088813    0.291197    0.025994
         0.058138    0.025994    0.268505

siesta: Pressure (static):       -539.31566688  kBar

siesta: Stress tensor (total) (eV/Ang**3):
         0.450125    0.088818    0.058149
         0.088818    0.291193    0.025984
         0.058149    0.025984    0.268483

siesta: Pressure (total):       -539.29912744  kBar

siesta: E_kin PR =     131.497 K

siesta: Temp_ion =      29.906 K

* Maximum dynamic memory allocated =     4 MB

siesta:                 ==============================
                            Begin MD step =      4
                        ==============================

outcoor: Atomic coordinates (fractional):                   
    0.00000000    0.00000000    0.00000000   1  Mg         1
    0.50000000    0.50000000    0.50000000   1  Mg         2
    0.24999999    0.25000000    0.24999999   2  C          3
   -0.24999999   -0.25000000   -0.24999999   2  C          4
    0.52778385   -0.02778385    0.25000000   3  O          5
    0.25000000    0.52778385   -0.02778385   3  O          6
   -0.02778385    0.25000000    0.52778385   3  O          7
   -0.52778385    0.02778385   -0.25000000   3  O          8
   -0.25000000   -0.52778385    0.02778385   3  O          9
    0.02778385   -0.25000000   -0.52778385   3  O         10

outcell: Unit cell vectors (Ang):
        5.677103    0.000441    0.000289
        3.785853    4.230463    0.000289
        3.785853    1.692662    3.877075

outcell: Cell vector modules (Ang)   :    5.677103    5.677103    5.677103
outcell: Cell angles (23,13,12) (deg):     48.1701     48.1701     48.1701
outcell: Cell volume (Ang**3)        :     93.1028

InitMesh: MESH =    24 x    24 x    24 =       13824
InitMesh: Mesh cutoff (required, used) =    50.000    63.492 Ry

siesta: Eharris(eV) =   -2966.673861


siesta: Eharris(eV) =   -2966.673861


siesta: Atomic forces (eV/Ang):
     1   -0.000010   -0.000034    0.000033
     2    0.000021   -0.000043    0.000008
     3    0.000385   -0.000078    0.000250
     4   -0.000411    0.000037   -0.000215
     5    2.965053   -6.631715    0.000005
     6    0.000006    3.978709   -6.077942
     7   -2.965062    2.653020    6.077925
     8   -2.965052    6.631715   -0.000002
     9   -0.000008   -3.978708    6.077936
    10    2.965063   -2.653025   -6.077925
----------------------------------------
 Tot   -0.000015   -0.000123    0.000073
----------------------------------------
 Max    6.631715
 Res    3.248733    sqrt( Sum f_i^2 / 3N )
----------------------------------------
 Max    6.631715    constrained

Stress-tensor-Voigt (kbar):      722.15      469.16      432.92      141.41       41.32       92.62
Target enthalpy (eV/cell)    -2939.8883

siesta: Stress tensor (static) (eV/Ang**3):
         0.450746    0.088240    0.057764
         0.088240    0.292837    0.025826
         0.057764    0.025826    0.270291

siesta: Pressure (static):       -541.47444372  kBar

siesta: Stress tensor (total) (eV/Ang**3):
         0.450725    0.088259    0.057806
         0.088259    0.292821    0.025788
         0.057806    0.025788    0.270204

siesta: Pressure (total):       -541.40842293  kBar

siesta: E_kin PR =     258.154 K

siesta: Temp_ion =      67.017 K

* Maximum dynamic memory allocated =     4 MB

siesta:                 ==============================
                            Begin MD step =      5
                        ==============================

outcoor: Atomic coordinates (fractional):                   
    0.00000000    0.00000000    0.00000000   1  Mg         1
    0.50000000    0.50000000    0.50000000   1  Mg         2
    0.24999999    0.25000001    0.24999999   2  C          3
   -0.24999999   -0.25000000   -0.24999999   2  C          4
    0.52808151   -0.02808151    0.25000000   3  O          5
    0.25000000    0.52808151   -0.02808151   3  O          6
   -0.02808151    0.25000000    0.52808151   3  O          7
   -0.52808151    0.02808151   -0.25000000   3  O          8
   -0.25000000   -0.52808151    0.02808151   3  O          9
    0.02808151   -0.25000000   -0.52808151   3  O         10

outcell: Unit cell vectors (Ang):
        5.676619    0.000736    0.000482
        3.785750    4.229905    0.000482
        3.785750    1.692615    3.876487

outcell: Cell vector modules (Ang)   :    5.676619    5.676619    5.676619
outcell: Cell angles (23,13,12) (deg):     48.1641     48.1641     48.1641
outcell: Cell volume (Ang**3)        :     93.0604

InitMesh: MESH =    24 x    24 x    24 =       13824
InitMesh: Mesh cutoff (required, used) =    50.000    63.499 Ry

siesta: Eharris(eV) =   -2966.734021


siesta: Eharris(eV) =   -2966.734021


siesta: Atomic forces (eV/Ang):
     1   -0.000035   -0.000033    0.000000
     2    0.000021   -0.000043    0.000008
     3    0.000390   -0.000073    0.000239
     4   -0.000414    0.000034   -0.000203
     5    2.938150   -6.571541   -0.000004
     6   -0.000005    3.942594   -6.022768
     7   -2.938151    2.628945    6.022784
     8   -2.938149    6.571543    0.000007
     9    0.000007   -3.942594    6.022766
    10    2.938153   -2.628948   -6.022784
----------------------------------------
 Tot   -0.000033   -0.000116    0.000045
----------------------------------------
 Max    6.571543
 Res    3.219251    sqrt( Sum f_i^2 / 3N )
----------------------------------------
 Max    6.571543    constrained

Stress-tensor-Voigt (kbar):      723.63      472.90      436.85      140.18       40.87       91.87
Target enthalpy (eV/cell)    -2939.9187

siesta: Stress tensor (static) (eV/Ang**3):
         0.451695    0.087452    0.057247
         0.087452    0.295197    0.025595
         0.057247    0.025595    0.272852

siesta: Pressure (static):       -544.60872454  kBar

siesta: Stress tensor (total) (eV/Ang**3):
         0.451648    0.087493    0.057342
         0.087493    0.295160    0.025511
         0.057342    0.025511    0.272658

siesta: Pressure (total):       -544.46072251  kBar

siesta: E_kin PR =     427.965 K

siesta: Temp_ion =     118.463 K

* Maximum dynamic memory allocated =     4 MB

siesta:                 ==============================
                            Begin MD step =      6
                        ==============================

outcoor: Atomic coordinates (fractional):                   
    0.00000000    0.00000000    0.00000000   1  Mg         1
    0.50000000    0.50000000    0.50000000   1  Mg         2
    0.25000000    0.25000000    0.24999999   2  C          3
   -0.24999999   -0.25000000   -0.24999999   2  C          4
    0.52846305   -0.02846305    0.25000000   3  O          5
    0.25000000    0.52846305   -0.02846305   3  O          6
   -0.02846305    0.25000000    0.52846305   3  O          7
   -0.52846305    0.02846305   -0.25000000   3  O          8
   -0.25000000   -0.52846305    0.02846305   3  O          9
    0.02846305   -0.25000000   -0.52846305   3  O         10

outcell: Unit cell vectors (Ang):
        5.676012    0.001105    0.000724
        3.785621    4.229207    0.000724
        3.785621    1.692557    3.875750

outcell: Cell vector modules (Ang)   :    5.676012    5.676012    5.676012
outcell: Cell angles (23,13,12) (deg):     48.1567     48.1567     48.1567
outcell: Cell volume (Ang**3)        :     93.0074

InitMesh: MESH =    24 x    24 x    24 =       13824
InitMesh: Mesh cutoff (required, used) =    50.000    63.507 Ry

siesta: Eharris(eV) =   -2966.810228


siesta: Eharris(eV) =   -2966.810228


siesta: Atomic forces (eV/Ang):
     1    0.000025    0.000037   -0.000018
     2    0.000021   -0.000042    0.000008
     3    0.000384   -0.000075    0.000248
     4   -0.000409    0.000037   -0.000214
     5    2.893877   -6.472536    0.000016
     6   -0.000002    3.883196   -5.932031
     7   -2.893883    2.589325    5.932044
     8   -2.893881    6.472535   -0.000015
     9    0.000006   -3.883194    5.932025
    10    2.893878   -2.589335   -5.932041
----------------------------------------
 Tot    0.000016   -0.000053    0.000022
----------------------------------------
 Max    6.472536
 Res    3.170749    sqrt( Sum f_i^2 / 3N )
----------------------------------------
 Max    6.472536    constrained

Stress-tensor-Voigt (kbar):      724.61      479.28      443.81      137.22       39.89       90.02
Target enthalpy (eV/cell)    -2939.9565

siesta: Stress tensor (static) (eV/Ang**3):
         0.452341    0.085572    0.056017
         0.085572    0.299207    0.025045
         0.056017    0.025045    0.277342

siesta: Pressure (static):       -549.49378543  kBar

siesta: Stress tensor (total) (eV/Ang**3):
         0.452259    0.085645    0.056184
         0.085645    0.299142    0.024895
         0.056184    0.024895    0.276999

siesta: Pressure (total):       -549.23204899  kBar

siesta: E_kin PR =     642.221 K

siesta: Temp_ion =     183.612 K

* Maximum dynamic memory allocated =     4 MB

siesta:                 ==============================
                            Begin MD step =      7
                        ==============================

outcoor: Atomic coordinates (fractional):                   
    0.00000000    0.00000000    0.00000000   1  Mg         1
    0.50000000    0.50000000    0.50000000   1  Mg         2
    0.25000000    0.25000000    0.25000000   2  C          3
   -0.25000000   -0.25000000   -0.25000000   2  C          4
    0.52892731   -0.02892731    0.25000000   3  O          5
    0.25000000    0.52892731   -0.02892731   3  O          6
   -0.02892731    0.25000000    0.52892731   3  O          7
   -0.52892731    0.02892731   -0.25000000   3  O          8
   -0.25000000   -0.52892731    0.02892731   3  O          9
    0.02892731   -0.25000000   -0.52892731   3  O         10

outcell: Unit cell vectors (Ang):
        5.675283    0.001551    0.001015
        3.785466    4.228366    0.001015
        3.785466    1.692488    3.874863

outcell: Cell vector modules (Ang)   :    5.675283    5.675283    5.675283
outcell: Cell angles (23,13,12) (deg):     48.1477     48.1477     48.1477
outcell: Cell volume (Ang**3)        :     92.9435

InitMesh: MESH =    24 x    24 x    24 =       13824
InitMesh: Mesh cutoff (required, used) =    50.000    63.517 Ry

siesta: Eharris(eV) =   -2966.901912


siesta: Eharris(eV) =   -2966.901912


siesta: Atomic forces (eV/Ang):
     1    0.000025    0.000037   -0.000018
     2   -0.000021    0.000043   -0.000008
     3   -0.000376    0.000105   -0.000245
     4    0.000403   -0.000082    0.000206
     5    2.844557   -6.362194   -0.000020
     6   -0.000004    3.816992   -5.830889
     7   -2.844540    2.545198    5.830908
     8   -2.844558    6.362195    0.000022
     9    0.000009   -3.816993    5.830891
    10    2.844539   -2.545195   -5.830903
----------------------------------------
 Tot    0.000035    0.000104   -0.000057
----------------------------------------
 Max    6.362195
 Res    3.116693    sqrt( Sum f_i^2 / 3N )
----------------------------------------
 Max    6.362195    constrained

Stress-tensor-Voigt (kbar):      728.55      488.93      454.03      134.10       38.82       88.08
Target enthalpy (eV/cell)    -2940.0005

siesta: Stress tensor (static) (eV/Ang**3):
         0.454845    0.083585    0.054716
         0.083585    0.305267    0.024464
         0.054716    0.024464    0.283910

siesta: Pressure (static):       -557.57527445  kBar

siesta: Stress tensor (total) (eV/Ang**3):
         0.454718    0.083698    0.054976
         0.083698    0.305166    0.024231
         0.054976    0.024231    0.283378

siesta: Pressure (total):       -557.16935747  kBar

siesta: E_kin PR =     903.298 K

siesta: Temp_ion =     261.642 K

* Maximum dynamic memory allocated =     4 MB

siesta:                 ==============================
                            Begin MD step =      8
                        ==============================

outcoor: Atomic coordinates (fractional):                   
    0.00000000    0.00000000    0.00000000   1  Mg         1
    0.50000000    0.50000000    0.50000000   1  Mg         2
    0.25000000    0.25000000    0.25000000   2  C          3
   -0.25000000   -0.25000000   -0.25000000   2  C          4
    0.52947301   -0.02947301    0.25000000   3  O          5
    0.25000000    0.52947301   -0.02947301   3  O          6
   -0.02947301    0.25000000    0.52947301   3  O          7
   -0.52947301    0.02947301   -0.25000000   3  O          8
   -0.25000000   -0.52947301    0.02947301   3  O          9
    0.02947301   -0.25000000   -0.52947301   3  O         10

outcell: Unit cell vectors (Ang):
        5.674429    0.002074    0.001358
        3.785287    4.227381    0.001358
        3.785287    1.692408    3.873823

outcell: Cell vector modules (Ang)   :    5.674430    5.674430    5.674430
outcell: Cell angles (23,13,12) (deg):     48.1371     48.1371     48.1371
outcell: Cell volume (Ang**3)        :     92.8687

InitMesh: MESH =    24 x    24 x    24 =       13824
InitMesh: Mesh cutoff (required, used) =    50.000    63.529 Ry

siesta: Eharris(eV) =   -2967.007717


siesta: Eharris(eV) =   -2967.007717


siesta: Atomic forces (eV/Ang):
     1    0.000025    0.000037   -0.000018
     2   -0.000021    0.000043   -0.000008
     3   -0.000386    0.000057   -0.000240
     4    0.000406    0.000009    0.000207
     5    2.738202   -6.124368    0.000008
     6    0.000011    3.674298   -5.612920
     7   -2.738206    2.450041    5.612917
     8   -2.738201    6.124367   -0.000001
     9   -0.000007   -3.674298    5.612923
    10    2.738206   -2.450043   -5.612917
----------------------------------------
 Tot    0.000030    0.000142   -0.000049
----------------------------------------
 Max    6.124368
 Res    3.000181    sqrt( Sum f_i^2 / 3N )
----------------------------------------
 Max    6.124368    constrained

Stress-tensor-Voigt (kbar):      735.13      509.31      476.08      126.48       36.41       83.22
Target enthalpy (eV/cell)    -2940.0497

siesta: Stress tensor (static) (eV/Ang**3):
         0.459009    0.078781    0.051571
         0.078781    0.318028    0.023058
         0.051571    0.023058    0.297899

siesta: Pressure (static):       -574.08510615  kBar

siesta: Stress tensor (total) (eV/Ang**3):
         0.458828    0.078943    0.051941
         0.078943    0.317883    0.022726
         0.051941    0.022726    0.297140

siesta: Pressure (total):       -573.50628165  kBar

siesta: E_kin PR =    1216.940 K

siesta: Temp_ion =     350.849 K

* Maximum dynamic memory allocated =     4 MB

siesta:                 ==============================
                            Begin MD step =      9
                        ==============================

outcoor: Atomic coordinates (fractional):                   
    0.00000000    0.00000000    0.00000000   1  Mg         1
    0.50000000    0.50000000    0.50000000   1  Mg         2
    0.25000000    0.25000000    0.25000000   2  C          3
   -0.25000000   -0.25000000   -0.25000000   2  C          4
    0.53009726   -0.03009726    0.25000000   3  O          5
    0.25000000    0.53009726   -0.03009725   3  O          6
   -0.03009726    0.25000000    0.53009726   3  O          7
   -0.53009726    0.03009726   -0.25000000   3  O          8
   -0.25000000   -0.53009726    0.03009725   3  O          9
    0.03009726   -0.25000000   -0.53009726   3  O         10

outcell: Unit cell vectors (Ang):
        5.673450    0.002680    0.001754
        3.785085    4.226247    0.001754
        3.785085    1.692318    3.872626

outcell: Cell vector modules (Ang)   :    5.673450    5.673450    5.673450
outcell: Cell angles (23,13,12) (deg):     48.1249     48.1249     48.1249
outcell: Cell volume (Ang**3)        :     92.7826

InitMesh: MESH =    24 x    24 x    24 =       13824
InitMesh: Mesh cutoff (required, used) =    50.000    63.542 Ry

siesta: Eharris(eV) =   -2967.125446


siesta: Eharris(eV) =   -2967.125446


siesta: Atomic forces (eV/Ang):
     1    0.000025    0.000037   -0.000018
     2   -0.000021    0.000042   -0.000008
     3   -0.000389    0.000013   -0.000244
     4    0.000399    0.000075    0.000213
     5    2.679624   -5.993327    0.000008
     6   -0.000004    3.595697   -5.492838
     7   -2.679616    2.397631    5.492836
     8   -2.679623    5.993329   -0.000004
     9   -0.000003   -3.595698    5.492842
    10    2.679620   -2.397633   -5.492838
----------------------------------------
 Tot    0.000012    0.000165   -0.000050
----------------------------------------
 Max    5.993329
 Res    2.935994    sqrt( Sum f_i^2 / 3N )
----------------------------------------
 Max    5.993329    constrained

Stress-tensor-Voigt (kbar):      738.36      517.62      484.77      123.74       35.40       81.57
Target enthalpy (eV/cell)    -2940.1009

siesta: Stress tensor (static) (eV/Ang**3):
         0.461085    0.077016    0.050416
         0.077016    0.323262    0.022541
         0.050416    0.022541    0.303584

siesta: Pressure (static):       -581.02556424  kBar

siesta: Stress tensor (total) (eV/Ang**3):
         0.460842    0.077233    0.050913
         0.077233    0.323068    0.022097
         0.050913    0.022097    0.302566

siesta: Pressure (total):       -580.24875351  kBar

siesta: E_kin PR =    1585.944 K

siesta: Temp_ion =     450.002 K

* Maximum dynamic memory allocated =     4 MB

siesta:                 ==============================
                            Begin MD step =     10
                        ==============================

outcoor: Atomic coordinates (fractional):                   
    0.00000000    0.00000000    0.00000000   1  Mg         1
    0.50000000    0.50000000    0.50000000   1  Mg         2
    0.25000000    0.25000000    0.25000000   2  C          3
   -0.25000000   -0.25000000   -0.25000000   2  C          4
    0.53079855   -0.03079855    0.25000000   3  O          5
    0.25000000    0.53079854   -0.03079854   3  O          6
   -0.03079855    0.25000000    0.53079855   3  O          7
   -0.53079855    0.03079855   -0.25000000   3  O          8
   -0.25000000   -0.53079854    0.03079854   3  O          9
    0.03079855   -0.25000000   -0.53079855   3  O         10

outcell: Unit cell vectors (Ang):
        5.672342    0.003369    0.002205
        3.784860    4.224963    0.002205
        3.784860    1.692217    3.871268

outcell: Cell vector modules (Ang)   :    5.672343    5.672343    5.672343
outcell: Cell angles (23,13,12) (deg):     48.1109     48.1109     48.1109
outcell: Cell volume (Ang**3)        :     92.6850

InitMesh: MESH =    24 x    24 x    24 =       13824
InitMesh: Mesh cutoff (required, used) =    50.000    63.557 Ry

siesta: Eharris(eV) =   -2967.255010


siesta: Eharris(eV) =   -2967.255010


siesta: Atomic forces (eV/Ang):
     1   -0.000025   -0.000037    0.000018
     2   -0.000021    0.000042   -0.000008
     3    0.000381   -0.000051    0.000247
     4   -0.000401   -0.000032   -0.000216
     5    2.604440   -5.825148   -0.000001
     6    0.000001    3.494793   -5.338693
     7   -2.604433    2.330345    5.338695
     8   -2.604446    5.825150   -0.000006
     9    0.000001   -3.494798    5.338697
    10    2.604431   -2.330352   -5.338698
----------------------------------------
 Tot   -0.000071   -0.000087    0.000035
----------------------------------------
 Max    5.825150
 Res    2.853606    sqrt( Sum f_i^2 / 3N )
----------------------------------------
 Max    5.825150    constrained

Stress-tensor-Voigt (kbar):      741.36      527.04      494.73      120.27       34.15       79.46
Target enthalpy (eV/cell)    -2940.1543

siesta: Stress tensor (static) (eV/Ang**3):
         0.463029    0.074785    0.048955
         0.074785    0.329199    0.021888
         0.048955    0.021888    0.310091

siesta: Pressure (static):       -588.70990858  kBar

siesta: Stress tensor (total) (eV/Ang**3):
         0.462718    0.075063    0.049593
         0.075063    0.328950    0.021317
         0.049593    0.021317    0.308784

siesta: Pressure (total):       -587.71262570  kBar

siesta: E_kin PR =    2009.111 K

siesta: Temp_ion =     558.694 K

* Maximum dynamic memory allocated =     4 MB

siesta:                 ==============================
                            Begin MD step =     11
                        ==============================

outcoor: Atomic coordinates (fractional):                   
    0.00000000    0.00000000    0.00000000   1  Mg         1
    0.50000000    0.50000000    0.50000000   1  Mg         2
    0.25000000    0.25000000    0.24999999   2  C          3
   -0.25000000   -0.25000000   -0.24999999   2  C          4
    0.53157492   -0.03157492    0.25000000   3  O          5
    0.25000000    0.53157491   -0.03157491   3  O          6
   -0.03157492    0.25000000    0.53157492   3  O          7
   -0.53157492    0.03157492   -0.25000000   3  O          8
   -0.25000000   -0.53157491    0.03157491   3  O          9
    0.03157492   -0.25000000   -0.53157492   3  O         10

outcell: Unit cell vectors (Ang):
        5.671106    0.004143    0.002712
        3.784613    4.223525    0.002712
        3.784613    1.692107    3.869747

outcell: Cell vector modules (Ang)   :    5.671108    5.671108    5.671108
outcell: Cell angles (23,13,12) (deg):     48.0953     48.0953     48.0953
outcell: Cell volume (Ang**3)        :     92.5758

InitMesh: MESH =    24 x    24 x    24 =       13824
InitMesh: Mesh cutoff (required, used) =    50.000    63.574 Ry

siesta: Eharris(eV) =   -2967.394654


siesta: Eharris(eV) =   -2967.394654


siesta: Atomic forces (eV/Ang):
     1   -0.000025   -0.000037    0.000018
     2    0.000021   -0.000042    0.000008
     3    0.000384   -0.000037    0.000239
     4   -0.000401   -0.000042   -0.000209
     5    2.521249   -5.639079   -0.000007
     6   -0.000001    3.383171   -5.168176
     7   -2.521234    2.255922    5.168185
     8   -2.521248    5.639084    0.000002
     9    0.000004   -3.383162    5.168168
    10    2.521236   -2.255919   -5.168180
----------------------------------------
 Tot   -0.000015   -0.000141    0.000048
----------------------------------------
 Max    5.639084
 Res    2.762459    sqrt( Sum f_i^2 / 3N )
----------------------------------------
 Max    5.639084    constrained

Stress-tensor-Voigt (kbar):      745.41      537.33      505.49      116.90       32.92       77.43
Target enthalpy (eV/cell)    -2940.2077

siesta: Stress tensor (static) (eV/Ang**3):
         0.465632    0.072619    0.047538
         0.072619    0.335678    0.021254
         0.047538    0.021254    0.317123

siesta: Pressure (static):       -597.31597163  kBar

siesta: Stress tensor (total) (eV/Ang**3):
         0.465246    0.072965    0.048330
         0.072965    0.335369    0.020545
         0.048330    0.020545    0.315499

siesta: Pressure (total):       -596.07648770  kBar

siesta: E_kin PR =    2488.935 K

siesta: Temp_ion =     675.500 K

* Maximum dynamic memory allocated =     4 MB

siesta:                 ==============================
                            Begin MD step =     12
                        ==============================

outcoor: Atomic coordinates (fractional):                   
    0.00000000    0.00000000    0.00000000   1  Mg         1
    0.50000000    0.50000000    0.50000000   1  Mg         2
    0.25000000    0.25000000    0.25000000   2  C          3
   -0.25000000   -0.25000000   -0.25000000   2  C          4
    0.53242420   -0.03242420    0.25000000   3  O          5
    0.25000000    0.53242420   -0.03242419   3  O          6
   -0.03242420    0.25000000    0.53242420   3  O          7
   -0.53242420    0.03242420   -0.25000000   3  O          8
   -0.25000000   -0.53242420    0.03242419   3  O          9
    0.03242420   -0.25000000   -0.53242420   3  O         10

outcell: Unit cell vectors (Ang):
        5.669739    0.005004    0.003276
        3.784343    4.221933    0.003276
        3.784343    1.691986    3.868062

outcell: Cell vector modules (Ang)   :    5.669743    5.669743    5.669743
outcell: Cell angles (23,13,12) (deg):     48.0779     48.0779     48.0779
outcell: Cell volume (Ang**3)        :     92.4548

InitMesh: MESH =    24 x    24 x    24 =       13824
InitMesh: Mesh cutoff (required, used) =    50.000    63.592 Ry

siesta: Eharris(eV) =   -2967.541044


siesta: Eharris(eV) =   -2967.541044


siesta: Atomic forces (eV/Ang):
     1   -0.000025   -0.000037    0.000018
     2    0.000021   -0.000042    0.000008
     3    0.000386   -0.000025    0.000234
     4   -0.000400   -0.000047   -0.000203
     5    2.349603   -5.255189   -0.000013
     6    0.000008    3.152861   -4.816348
     7   -2.349604    2.102343    4.816336
     8   -2.349600    5.255184    0.000009
     9   -0.000004   -3.152859    4.816349
    10    2.349605   -2.102336   -4.816345
----------------------------------------
 Tot   -0.000010   -0.000147    0.000045
----------------------------------------
 Max    5.255189
 Res    2.574399    sqrt( Sum f_i^2 / 3N )
----------------------------------------
 Max    5.255189    constrained

Stress-tensor-Voigt (kbar):      757.98      571.85      542.70      104.77       29.09       69.68
Target enthalpy (eV/cell)    -2940.2570

siesta: Stress tensor (static) (eV/Ang**3):
         0.473555    0.064970    0.042530
         0.064970    0.357289    0.019015
         0.042530    0.019015    0.340689

siesta: Pressure (static):       -625.67401737  kBar

siesta: Stress tensor (total) (eV/Ang**3):
         0.473087    0.065389    0.043490
         0.065389    0.356914    0.018157
         0.043490    0.018157    0.338722

siesta: Pressure (total):       -624.17360902  kBar

siesta: E_kin PR =    3039.379 K

siesta: Temp_ion =     796.959 K

* Maximum dynamic memory allocated =     4 MB

siesta:                 ==============================
                            Begin MD step =     13
                        ==============================

outcoor: Atomic coordinates (fractional):                   
    0.00000000    0.00000000    0.00000000   1  Mg         1
    0.50000000    0.50000000    0.50000000   1  Mg         2
    0.25000000    0.25000000    0.25000000   2  C          3
   -0.25000000   -0.25000000   -0.25000000   2  C          4
    0.53334171   -0.03334171    0.25000000   3  O          5
    0.25000000    0.53334171   -0.03334171   3  O          6
   -0.03334171    0.25000000    0.53334171   3  O          7
   -0.53334171    0.03334171   -0.25000000   3  O          8
   -0.24999999   -0.53334171    0.03334170   3  O          9
    0.03334171   -0.25000000   -0.53334171   3  O         10

outcell: Unit cell vectors (Ang):
        5.668238    0.005960    0.003901
        3.784055    4.220177    0.003901
        3.784055    1.691857    3.866203

outcell: Cell vector modules (Ang)   :    5.668243    5.668243    5.668243
outcell: Cell angles (23,13,12) (deg):     48.0585     48.0585     48.0585
outcell: Cell volume (Ang**3)        :     92.3215

InitMesh: MESH =    24 x    24 x    24 =       13824
InitMesh: Mesh cutoff (required, used) =    50.000    63.612 Ry

siesta: Eharris(eV) =   -2967.692961


siesta: Eharris(eV) =   -2967.692961


siesta: Atomic forces (eV/Ang):
     1   -0.000025   -0.000037    0.000018
     2    0.000021   -0.000042    0.000008
     3   -0.000378    0.000046   -0.000239
     4    0.000396    0.000024    0.000214
     5    2.241079   -5.012465    0.000002
     6    0.000005    3.007225   -4.593890
     7   -2.241075    2.005246    4.593890
     8   -2.241077    5.012462   -0.000006
     9   -0.000004   -3.007225    4.593894
    10    2.241074   -2.005235   -4.593890
----------------------------------------
 Tot    0.000016   -0.000001    0.000001
----------------------------------------
 Max    5.012465
 Res    2.455493    sqrt( Sum f_i^2 / 3N )
----------------------------------------
 Max    5.012465    constrained

Stress-tensor-Voigt (kbar):      763.14      584.43      555.87      100.76       27.63       67.26
Target enthalpy (eV/cell)    -2940.3019

siesta: Stress tensor (static) (eV/Ang**3):
         0.476865    0.062393    0.040844
         0.062393    0.365210    0.018261
         0.040844    0.018261    0.349268

siesta: Pressure (static):       -636.25442781  kBar

siesta: Stress tensor (total) (eV/Ang**3):
         0.476312    0.062888    0.041977
         0.062888    0.364768    0.017247
         0.041977    0.017247    0.346945

siesta: Pressure (total):       -634.48189652  kBar

siesta: E_kin PR =    3667.101 K

siesta: Temp_ion =     920.859 K

* Maximum dynamic memory allocated =     4 MB

siesta:                 ==============================
                            Begin MD step =     14
                        ==============================

outcoor: Atomic coordinates (fractional):                   
    0.00000000    0.00000000    0.00000000   1  Mg         1
    0.50000000    0.50000000    0.50000000   1  Mg         2
    0.25000001    0.25000000    0.25000001   2  C          3
   -0.25000000   -0.25000000   -0.25000000   2  C          4
    0.53432460   -0.03432459    0.25000000   3  O          5
    0.25000000    0.53432459   -0.03432459   3  O          6
   -0.03432459    0.25000000    0.53432460   3  O          7
   -0.53432460    0.03432459   -0.25000000   3  O          8
   -0.24999999   -0.53432459    0.03432459   3  O          9
    0.03432459   -0.25000000   -0.53432460   3  O         10

outcell: Unit cell vectors (Ang):
        5.666601    0.007012    0.004590
        3.783747    4.218255    0.004590
        3.783747    1.691720    3.864166

outcell: Cell vector modules (Ang)   :    5.666607    5.666607    5.666607
outcell: Cell angles (23,13,12) (deg):     48.0372     48.0372     48.0372
outcell: Cell volume (Ang**3)        :     92.1755

InitMesh: MESH =    24 x    24 x    24 =       13824
InitMesh: Mesh cutoff (required, used) =    50.000    63.633 Ry

siesta: Eharris(eV) =   -2967.849038


siesta: Eharris(eV) =   -2967.849038


siesta: Atomic forces (eV/Ang):
     1    0.000026    0.000035   -0.000020
     2    0.000021   -0.000042    0.000008
     3   -0.000381    0.000037   -0.000236
     4    0.000399    0.000039    0.000204
     5    2.120935   -4.743735    0.000009
     6   -0.000009    2.846006   -4.347618
     7   -2.120931    1.897728    4.347604
     8   -2.120938    4.743739   -0.000011
     9    0.000000   -2.846013    4.347617
    10    2.120933   -1.897735   -4.347600
----------------------------------------
 Tot    0.000054    0.000061   -0.000041
----------------------------------------
 Max    4.743739
 Res    2.323852    sqrt( Sum f_i^2 / 3N )
----------------------------------------
 Max    4.743739    constrained

Stress-tensor-Voigt (kbar):      768.41      597.84      569.97       96.35       26.05       64.57
Target enthalpy (eV/cell)    -2940.3408

siesta: Stress tensor (static) (eV/Ang**3):
         0.480238    0.059562    0.038990
         0.059562    0.373650    0.017433
         0.038990    0.017433    0.358431

siesta: Pressure (static):       -647.45715095  kBar

siesta: Stress tensor (total) (eV/Ang**3):
         0.479599    0.060135    0.040302
         0.060135    0.373138    0.016259
         0.040302    0.016259    0.355743

siesta: Pressure (total):       -645.40606590  kBar

siesta: E_kin PR =    4365.796 K

siesta: Temp_ion =    1047.152 K

* Maximum dynamic memory allocated =     4 MB

siesta:                 ==============================
                            Begin MD step =     15
                        ==============================

outcoor: Atomic coordinates (fractional):                   
    0.00000000    0.00000000    0.00000000   1  Mg         1
    0.50000000    0.50000000    0.50000000   1  Mg         2
    0.25000000    0.25000000    0.25000000   2  C          3
   -0.25000000   -0.25000000   -0.25000000   2  C          4
    0.53536967   -0.03536967    0.25000000   3  O          5
    0.25000000    0.53536966   -0.03536966   3  O          6
   -0.03536967    0.25000000    0.53536967   3  O          7
   -0.53536967    0.03536967   -0.25000000   3  O          8
   -0.24999999   -0.53536966    0.03536966   3  O          9
    0.03536967   -0.25000000   -0.53536967   3  O         10

outcell: Unit cell vectors (Ang):
        5.664825    0.008162    0.005343
        3.783420    4.216164    0.005343
        3.783420    1.691574    3.861948

outcell: Cell vector modules (Ang)   :    5.664833    5.664833    5.664833
outcell: Cell angles (23,13,12) (deg):     48.0139     48.0139     48.0139
outcell: Cell volume (Ang**3)        :     92.0168

InitMesh: MESH =    24 x    24 x    24 =       13824
InitMesh: Mesh cutoff (required, used) =    50.000    63.657 Ry

siesta: Eharris(eV) =   -2968.007273


siesta: Eharris(eV) =   -2968.007273


siesta: Atomic forces (eV/Ang):
     1    0.000024    0.000038   -0.000016
     2   -0.000021    0.000042   -0.000008
     3   -0.000379    0.000029   -0.000234
     4    0.000395    0.000058    0.000198
     5    1.999660   -4.472503    0.000007
     6   -0.000002    2.683292   -4.099028
     7   -1.999664    1.789234    4.099025
     8   -1.999662    4.472509   -0.000005
     9   -0.000002   -2.683290    4.099025
    10    1.999666   -1.789229   -4.099018
----------------------------------------
 Tot    0.000016    0.000179   -0.000054
----------------------------------------
 Max    4.472509
 Res    2.190982    sqrt( Sum f_i^2 / 3N )
----------------------------------------
 Max    4.472509    constrained

Stress-tensor-Voigt (kbar):      772.48      608.49      581.08       92.81       24.72       62.46
Target enthalpy (eV/cell)    -2940.3722

siesta: Stress tensor (static) (eV/Ang**3):
         0.482867    0.057275    0.037493
         0.057275    0.380372    0.016763
         0.037493    0.016763    0.365737

siesta: Pressure (static):       -656.35245187  kBar

siesta: Stress tensor (total) (eV/Ang**3):
         0.482138    0.057927    0.038987
         0.057927    0.379788    0.015427
         0.038987    0.015427    0.362675

siesta: Pressure (total):       -654.01634288  kBar

siesta: E_kin PR =    5137.194 K

siesta: Temp_ion =    1174.232 K

* Maximum dynamic memory allocated =     4 MB

siesta:                 ==============================
                            Begin MD step =     16
                        ==============================

outcoor: Atomic coordinates (fractional):                   
    0.00000000    0.00000000    0.00000000   1  Mg         1
    0.50000000    0.50000000    0.50000000   1  Mg         2
    0.25000000    0.25000000    0.25000000   2  C          3
   -0.25000000   -0.25000000   -0.25000000   2  C          4
    0.53647374   -0.03647374    0.25000000   3  O          5
    0.25000000    0.53647373   -0.03647373   3  O          6
   -0.03647374    0.25000000    0.53647374   3  O          7
   -0.53647374    0.03647374   -0.25000000   3  O          8
   -0.24999999   -0.53647373    0.03647373   3  O          9
    0.03647374   -0.25000000   -0.53647374   3  O         10

outcell: Unit cell vectors (Ang):
        5.662910    0.009414    0.006163
        3.783076    4.213902    0.006163
        3.783076    1.691420    3.859548

outcell: Cell vector modules (Ang)   :    5.662921    5.662921    5.662921
outcell: Cell angles (23,13,12) (deg):     47.9885     47.9885     47.9885
outcell: Cell volume (Ang**3)        :     91.8451

InitMesh: MESH =    24 x    24 x    24 =       13824
InitMesh: Mesh cutoff (required, used) =    50.000    63.682 Ry

siesta: Eharris(eV) =   -2968.165869


siesta: Eharris(eV) =   -2968.165869


siesta: Atomic forces (eV/Ang):
     1    0.000023    0.000038   -0.000015
     2   -0.000020    0.000042   -0.000008
     3    0.000364   -0.000080    0.000241
     4   -0.000392   -0.000019   -0.000207
     5    1.866405   -4.174435   -0.000002
     6   -0.000011    2.504467   -3.825858
     7   -1.866409    1.669988    3.825863
     8   -1.866404    4.174432    0.000004
     9    0.000011   -2.504466    3.825862
    10    1.866411   -1.669989   -3.825868
----------------------------------------
 Tot   -0.000023   -0.000023    0.000011
----------------------------------------
 Max    4.174435
 Res    2.044970    sqrt( Sum f_i^2 / 3N )
----------------------------------------
 Max    4.174435    constrained

Stress-tensor-Voigt (kbar):      777.15      619.31      592.28       89.52       23.45       60.52
Target enthalpy (eV/cell)    -2940.3944

siesta: Stress tensor (static) (eV/Ang**3):
         0.485872    0.055141    0.036096
         0.055141    0.387195    0.016139
         0.036096    0.016139    0.373106

siesta: Pressure (static):       -665.53686421  kBar

siesta: Stress tensor (total) (eV/Ang**3):
         0.485053    0.055874    0.037774
         0.055874    0.386540    0.014637
         0.037774    0.014637    0.369666

siesta: Pressure (total):       -662.91269633  kBar

siesta: E_kin PR =    5982.198 K

siesta: Temp_ion =    1300.461 K

* Maximum dynamic memory allocated =     4 MB

siesta:                 ==============================
                            Begin MD step =     17
                        ==============================

outcoor: Atomic coordinates (fractional):                   
    0.00000000    0.00000000    0.00000000   1  Mg         1
    0.50000000    0.50000000    0.50000000   1  Mg         2
    0.25000000    0.25000000    0.25000000   2  C          3
   -0.25000000   -0.25000000   -0.25000000   2  C          4
    0.53763327   -0.03763327    0.25000000   3  O          5
    0.24999999    0.53763326   -0.03763326   3  O          6
   -0.03763327    0.25000000    0.53763327   3  O          7
   -0.53763327    0.03763327   -0.25000000   3  O          8
   -0.24999999   -0.53763326    0.03763326   3  O          9
    0.03763327   -0.25000000   -0.53763327   3  O         10

outcell: Unit cell vectors (Ang):
        5.660854    0.010768    0.007049
        3.782714    4.211468    0.007049
        3.782714    1.691258    3.856962

outcell: Cell vector modules (Ang)   :    5.660869    5.660869    5.660869
outcell: Cell angles (23,13,12) (deg):     47.9610     47.9610     47.9610
outcell: Cell volume (Ang**3)        :     91.6604

InitMesh: MESH =    24 x    24 x    24 =       13824
InitMesh: Mesh cutoff (required, used) =    50.000    63.709 Ry

siesta: Eharris(eV) =   -2968.322776


siesta: Eharris(eV) =   -2968.322776


siesta: Atomic forces (eV/Ang):
     1   -0.000025   -0.000036    0.000018
     2   -0.000020    0.000042   -0.000008
     3    0.000381    0.000005    0.000227
     4   -0.000392   -0.000049   -0.000203
     5    1.727138   -3.863006    0.000005
     6   -0.000006    2.317625   -3.540427
     7   -1.727164    1.545401    3.540425
     8   -1.727143    3.862999   -0.000011
     9    0.000001   -2.317628    3.540422
    10    1.727164   -1.545396   -3.540423
----------------------------------------
 Tot   -0.000066   -0.000044    0.000024
----------------------------------------
 Max    3.863006
 Res    1.892402    sqrt( Sum f_i^2 / 3N )
----------------------------------------
 Max    3.863006    constrained

Stress-tensor-Voigt (kbar):      782.49      631.07      604.46       86.08       22.14       58.48
Target enthalpy (eV/cell)    -2940.4060

siesta: Stress tensor (static) (eV/Ang**3):
         0.489294    0.052912    0.034637
         0.052912    0.394607    0.015486
         0.034637    0.015486    0.381087

siesta: Pressure (static):       -675.58568324  kBar

siesta: Stress tensor (total) (eV/Ang**3):
         0.488386    0.053725    0.036499
         0.053725    0.393880    0.013820
         0.036499    0.013820    0.377271

siesta: Pressure (total):       -672.67395019  kBar

siesta: E_kin PR =    6903.894 K

siesta: Temp_ion =    1424.019 K

* Maximum dynamic memory allocated =     4 MB

siesta:                 ==============================
                            Begin MD step =     18
                        ==============================

outcoor: Atomic coordinates (fractional):                   
    0.00000000    0.00000000    0.00000000   1  Mg         1
    0.50000000    0.50000000    0.50000000   1  Mg         2
    0.25000000    0.25000000    0.25000000   2  C          3
   -0.25000000   -0.25000000   -0.25000000   2  C          4
    0.53884457   -0.03884457    0.25000000   3  O          5
    0.24999999    0.53884456   -0.03884456   3  O          6
   -0.03884457    0.25000000    0.53884457   3  O          7
   -0.53884457    0.03884457   -0.25000000   3  O          8
   -0.24999999   -0.53884456    0.03884456   3  O          9
    0.03884457   -0.25000000   -0.53884457   3  O         10

outcell: Unit cell vectors (Ang):
        5.658657    0.012227    0.008004
        3.782336    4.208857    0.008004
        3.782336    1.691089    3.854188

outcell: Cell vector modules (Ang)   :    5.658676    5.658676    5.658676
outcell: Cell angles (23,13,12) (deg):     47.9314     47.9314     47.9314
outcell: Cell volume (Ang**3)        :     91.4625

InitMesh: MESH =    24 x    24 x    24 =       13824
InitMesh: Mesh cutoff (required, used) =    50.000    63.737 Ry

siesta: Eharris(eV) =   -2968.475892


siesta: Eharris(eV) =   -2968.475892


siesta: Atomic forces (eV/Ang):
     1   -0.000022   -0.000039    0.000014
     2   -0.000020    0.000041   -0.000008
     3    0.000357    0.000211    0.000144
     4   -0.000386   -0.000098   -0.000185
     5    1.564994   -3.500307    0.000004
     6   -0.000004    2.100028   -3.208012
     7   -1.565001    1.400296    3.208015
     8   -1.564992    3.500310   -0.000002
     9    0.000003   -2.100024    3.208020
    10    1.564996   -1.400298   -3.208016
----------------------------------------
 Tot   -0.000076    0.000121   -0.000026
----------------------------------------
 Max    3.500310
 Res    1.714726    sqrt( Sum f_i^2 / 3N )
----------------------------------------
 Max    3.500310    constrained

Stress-tensor-Voigt (kbar):      790.10      648.18      622.44       80.92       20.34       55.31
Target enthalpy (eV/cell)    -2940.4057

siesta: Stress tensor (static) (eV/Ang**3):
         0.494135    0.049612    0.032477
         0.049612    0.405353    0.014520
         0.032477    0.014520    0.392677

siesta: Pressure (static):       -690.09971095  kBar

siesta: Stress tensor (total) (eV/Ang**3):
         0.493138    0.050504    0.034520
         0.050504    0.404555    0.012693
         0.034520    0.012693    0.388489

siesta: Pressure (total):       -686.90486186  kBar

siesta: E_kin PR =    7909.696 K

siesta: Temp_ion =    1542.673 K

* Maximum dynamic memory allocated =     4 MB

siesta:                 ==============================
                            Begin MD step =     19
                        ==============================

outcoor: Atomic coordinates (fractional):                   
    0.00000000    0.00000000    0.00000000   1  Mg         1
    0.50000000    0.50000000    0.50000000   1  Mg         2
    0.25000000    0.25000000    0.25000000   2  C          3
   -0.25000000   -0.25000000   -0.25000000   2  C          4
    0.54010329   -0.04010329    0.25000000   3  O          5
    0.24999999    0.54010328   -0.04010328   3  O          6
   -0.04010328    0.25000000    0.54010329   3  O          7
   -0.54010329    0.04010329   -0.25000000   3  O          8
   -0.24999999   -0.54010328    0.04010327   3  O          9
    0.04010329   -0.25000000   -0.54010329   3  O         10

outcell: Unit cell vectors (Ang):
        5.656316    0.013793    0.009029
        3.781942    4.206068    0.009029
        3.781942    1.690913    3.851221

outcell: Cell vector modules (Ang)   :    5.656340    5.656340    5.656340
outcell: Cell angles (23,13,12) (deg):     47.8995     47.8995     47.8995
outcell: Cell volume (Ang**3)        :     91.2512

InitMesh: MESH =    24 x    24 x    24 =       13824
InitMesh: Mesh cutoff (required, used) =    50.000    63.767 Ry

siesta: Eharris(eV) =   -2968.623591


siesta: Eharris(eV) =   -2968.623591


siesta: Atomic forces (eV/Ang):
     1    0.000026    0.000033   -0.000020
     2    0.000020   -0.000041    0.000008
     3   -0.000377   -0.000118   -0.000187
     4    0.000385    0.000054    0.000198
     5    1.407177   -3.147325   -0.000018
     6    0.000011    1.888232   -2.884499
     7   -1.407180    1.259104    2.884522
     8   -1.407177    3.147326    0.000017
     9    0.000006   -1.888227    2.884502
    10    1.407181   -1.259097   -2.884518
----------------------------------------
 Tot    0.000072   -0.000059    0.000006
----------------------------------------
 Max    3.147326
 Res    1.541806    sqrt( Sum f_i^2 / 3N )
----------------------------------------
 Max    3.147326    constrained

Stress-tensor-Voigt (kbar):      798.87      666.44      641.59       75.74       18.54       52.12
Target enthalpy (eV/cell)    -2940.3929

siesta: Stress tensor (static) (eV/Ang**3):
         0.499691    0.046307    0.030313
         0.046307    0.416822    0.013553
         0.030314    0.013553    0.404990

siesta: Pressure (static):       -705.76799092  kBar

siesta: Stress tensor (total) (eV/Ang**3):
         0.498609    0.047276    0.032531
         0.047276    0.415956    0.011569
         0.032531    0.011569    0.400444

siesta: Pressure (total):       -702.29940207  kBar

siesta: E_kin PR =    9008.566 K

siesta: Temp_ion =    1654.508 K

* Maximum dynamic memory allocated =     4 MB

siesta:                 ==============================
                            Begin MD step =     20
                        ==============================

outcoor: Atomic coordinates (fractional):                   
    0.00000000    0.00000000    0.00000000   1  Mg         1
    0.50000000    0.50000000    0.50000000   1  Mg         2
    0.25000000    0.25000000    0.25000001   2  C          3
   -0.25000000   -0.25000000   -0.25000001   2  C          4
    0.54140521   -0.04140521    0.25000000   3  O          5
    0.24999999    0.54140520   -0.04140520   3  O          6
   -0.04140521    0.25000000    0.54140521   3  O          7
   -0.54140521    0.04140521   -0.25000000   3  O          8
   -0.24999999   -0.54140520    0.04140520   3  O          9
    0.04140521   -0.25000000   -0.54140521   3  O         10

outcell: Unit cell vectors (Ang):
        5.653828    0.015470    0.010127
        3.781533    4.203096    0.010127
        3.781533    1.690730    3.848058

outcell: Cell vector modules (Ang)   :    5.653858    5.653858    5.653858
outcell: Cell angles (23,13,12) (deg):     47.8654     47.8654     47.8654
outcell: Cell volume (Ang**3)        :     91.0261

InitMesh: MESH =    24 x    24 x    24 =       13824
InitMesh: Mesh cutoff (required, used) =    50.000    63.799 Ry

siesta: Eharris(eV) =   -2968.763458


siesta: Eharris(eV) =   -2968.763458


siesta: Atomic forces (eV/Ang):
     1   -0.000004    0.000042    0.000020
     2    0.000020   -0.000041    0.000008
     3   -0.000375   -0.000122   -0.000187
     4    0.000385    0.000064    0.000195
     5    1.210720   -2.707928    0.000003
     6    0.000005    1.624616   -2.481788
     7   -1.210717    1.083303    2.481794
     8   -1.210722    2.707928   -0.000007
     9   -0.000005   -1.624619    2.481796
    10    1.210720   -1.083299   -2.481794
----------------------------------------
 Tot    0.000026   -0.000056    0.000039
----------------------------------------
 Max    2.707928
 Res    1.326551    sqrt( Sum f_i^2 / 3N )
----------------------------------------
 Max    2.707928    constrained

Stress-tensor-Voigt (kbar):      807.33      688.96      665.67       68.02       16.00       47.26
Target enthalpy (eV/cell)    -2940.3648

siesta: Stress tensor (static) (eV/Ang**3):
         0.505056    0.041416    0.027111
         0.041416    0.430941    0.012122
         0.027111    0.012122    0.420359

siesta: Pressure (static):       -724.38171523  kBar

siesta: Stress tensor (total) (eV/Ang**3):
         0.503893    0.042457    0.029496
         0.042457    0.430010    0.009988
         0.029496    0.009988    0.415471

siesta: Pressure (total):       -720.65300634  kBar

siesta: E_kin PR =   10210.155 K

siesta: Temp_ion =    1757.031 K

* Maximum dynamic memory allocated =     4 MB

siesta:                 ==============================
                            Begin MD step =     21
                        ==============================

outcoor: Atomic coordinates (fractional):                   
    0.00000000    0.00000000    0.00000000   1  Mg         1
    0.50000000    0.50000000    0.50000000   1  Mg         2
    0.25000000    0.25000000    0.25000000   2  C          3
   -0.25000000   -0.25000000   -0.25000000   2  C          4
    0.54274500   -0.04274500    0.25000000   3  O          5
    0.24999999    0.54274500   -0.04274499   3  O          6
   -0.04274500    0.25000000    0.54274500   3  O          7
   -0.54274500    0.04274500   -0.25000000   3  O          8
   -0.24999999   -0.54274500    0.04274499   3  O          9
    0.04274500   -0.25000000   -0.54274500   3  O         10

outcell: Unit cell vectors (Ang):
        5.651190    0.017262    0.011300
        3.781110    4.199936    0.011300
        3.781110    1.690541    3.844692

outcell: Cell vector modules (Ang)   :    5.651228    5.651228    5.651228
outcell: Cell angles (23,13,12) (deg):     47.8289     47.8289     47.8289
outcell: Cell volume (Ang**3)        :     90.7870

InitMesh: MESH =    24 x    24 x    24 =       13824
InitMesh: Mesh cutoff (required, used) =    50.000    63.833 Ry

siesta: Eharris(eV) =   -2968.893564


siesta: Eharris(eV) =   -2968.893564


siesta: Atomic forces (eV/Ang):
     1   -0.000003   -0.000045   -0.000011
     2    0.000020   -0.000041    0.000008
     3   -0.000373   -0.000128   -0.000175
     4    0.000380    0.000079    0.000184
     5    1.036979   -2.319367    0.000005
     6    0.000008    1.391508   -2.125680
     7   -1.036993    0.927853    2.125663
     8   -1.036982    2.319367   -0.000007
     9    0.000001   -1.391508    2.125675
    10    1.036990   -0.927843   -2.125672
----------------------------------------
 Tot    0.000027   -0.000124   -0.000009
----------------------------------------
 Max    2.319367
 Res    1.136201    sqrt( Sum f_i^2 / 3N )
----------------------------------------
 Max    2.319367    constrained

Stress-tensor-Voigt (kbar):      815.53      706.68      684.33       62.83       14.23       44.03
Target enthalpy (eV/cell)    -2940.3203

siesta: Stress tensor (static) (eV/Ang**3):
         0.510248    0.038104    0.024944
         0.038104    0.442060    0.011152
         0.024944    0.011152    0.432324

siesta: Pressure (static):       -739.48315612  kBar

siesta: Stress tensor (total) (eV/Ang**3):
         0.509010    0.039212    0.027482
         0.039212    0.441069    0.008881
         0.027482    0.008881    0.427121

siesta: Pressure (total):       -735.51355172  kBar

siesta: E_kin PR =   11519.851 K

siesta: Temp_ion =    1848.452 K

* Maximum dynamic memory allocated =     4 MB

siesta:                 ==============================
                            Begin MD step =     22
                        ==============================

outcoor: Atomic coordinates (fractional):                   
    0.00000000    0.00000000    0.00000000   1  Mg         1
    0.50000000    0.50000000    0.50000000   1  Mg         2
    0.25000000    0.25000000    0.25000000   2  C          3
   -0.25000000   -0.25000000   -0.25000000   2  C          4
    0.54411799   -0.04411798    0.25000000   3  O          5
    0.24999999    0.54411798   -0.04411797   3  O          6
   -0.04411798    0.25000000    0.54411799   3  O          7
   -0.54411799    0.04411798   -0.25000000   3  O          8
   -0.24999999   -0.54411798    0.04411797   3  O          9
    0.04411798   -0.25000000   -0.54411799   3  O         10

outcell: Unit cell vectors (Ang):
        5.648401    0.019173    0.012551
        3.780674    4.196583    0.012551
        3.780674    1.690346    3.841119

outcell: Cell vector modules (Ang)   :    5.648448    5.648448    5.648448
outcell: Cell angles (23,13,12) (deg):     47.7899     47.7899     47.7899
outcell: Cell volume (Ang**3)        :     90.5336

InitMesh: MESH =    24 x    24 x    24 =       13824
InitMesh: Mesh cutoff (required, used) =    50.000    63.868 Ry

siesta: Eharris(eV) =   -2969.013633


siesta: Eharris(eV) =   -2969.013633


siesta: Atomic forces (eV/Ang):
     1   -0.000003   -0.000044   -0.000013
     2    0.000020   -0.000040    0.000008
     3    0.000001   -0.000419    0.000096
     4   -0.000373    0.000006   -0.000210
     5    0.872530   -1.951511   -0.000001
     6    0.000008    1.170823   -1.788559
     7   -0.872528    0.780723    1.788566
     8   -0.872527    1.951516    0.000006
     9   -0.000002   -1.170818    1.788563
    10    0.872522   -0.780716   -1.788562
----------------------------------------
 Tot   -0.000353   -0.000481   -0.000107
----------------------------------------
 Max    1.951516
 Res    0.956008    sqrt( Sum f_i^2 / 3N )
----------------------------------------
 Max    1.951516    constrained

Stress-tensor-Voigt (kbar):      822.14      720.79      699.14       58.74       12.81       41.51
Target enthalpy (eV/cell)    -2940.2581

siesta: Stress tensor (static) (eV/Ang**3):
[...]
   -0.24999998   -0.57974895    0.07974893   3  O          9
    0.07974895   -0.25000000   -0.57974896   3  O         10

outcell: Unit cell vectors (Ang):
        5.530140    0.109014    0.071362
        3.768770    4.048544    0.071362
        3.768770    1.685023    3.681915

outcell: Cell vector modules (Ang)   :    5.531675    5.531675    5.531675
outcell: Cell angles (23,13,12) (deg):     45.9163     45.9163     45.9163
outcell: Cell volume (Ang**3)        :     79.6504

InitMesh: MESH =    24 x    24 x    24 =       13824
InitMesh: Mesh cutoff (required, used) =    50.000    65.264 Ry

siesta: Eharris(eV) =   -2970.941325


siesta: Eharris(eV) =   -2970.941325


siesta: Atomic forces (eV/Ang):
     1   -0.000007   -0.000037   -0.000004
     2   -0.000017    0.000033   -0.000010
     3   -0.000244   -0.000261    0.000039
     4    0.000208    0.000295   -0.000004
     5   -0.722186    1.615230   -0.000011
     6    0.000001   -0.969072    1.480358
     7    0.722179   -0.646168   -1.480369
     8    0.722192   -1.615245    0.000008
     9   -0.000009    0.969075   -1.480362
    10   -0.722190    0.646173    1.480360
----------------------------------------
 Tot   -0.000075    0.000022    0.000005
----------------------------------------
 Max    1.615245
 Res    0.791273    sqrt( Sum f_i^2 / 3N )
----------------------------------------
 Max    1.615245    constrained

Stress-tensor-Voigt (kbar):     1048.33     1091.89     1089.56      -21.83      -11.61      -10.65
Target enthalpy (eV/cell)    -2933.8170

siesta: Stress tensor (static) (eV/Ang**3):
         0.655864   -0.015019   -0.009831
        -0.015019    0.682740   -0.004396
        -0.009831   -0.004396    0.686578

siesta: Pressure (static):      -1081.57779563  kBar

siesta: Stress tensor (total) (eV/Ang**3):
         0.654309   -0.013628   -0.006644
        -0.013628    0.681495   -0.007247
        -0.006644   -0.007247    0.680044

siesta: Pressure (total):      -1076.59350562  kBar

siesta: E_kin PR =   93061.373 K

siesta: Temp_ion =    1903.972 K

* Maximum dynamic memory allocated =     4 MB

siesta:                 ==============================
                            Begin MD step =     47
                        ==============================

outcoor: Atomic coordinates (fractional):                   
    0.00000000    0.00000000    0.00000000   1  Mg         1
    0.50000000    0.50000000    0.50000000   1  Mg         2
    0.25000000    0.25000000    0.25000000   2  C          3
   -0.25000000   -0.25000002   -0.25000000   2  C          4
    0.58120501   -0.08120501    0.25000000   3  O          5
    0.24999998    0.58120503   -0.08120500   3  O          6
   -0.08120503    0.25000001    0.58120504   3  O          7
   -0.58120501    0.08120502   -0.25000001   3  O          8
   -0.24999998   -0.58120503    0.08120500   3  O          9
    0.08120503   -0.25000000   -0.58120504   3  O         10

outcell: Unit cell vectors (Ang):
        5.522870    0.114878    0.075201
        3.768292    4.039216    0.075201
        3.768292    1.684810    3.671830

outcell: Cell vector modules (Ang)   :    5.524577    5.524577    5.524577
outcell: Cell angles (23,13,12) (deg):     45.7913     45.7913     45.7913
outcell: Cell volume (Ang**3)        :     78.9875

InitMesh: MESH =    24 x    24 x    24 =       13824
InitMesh: Mesh cutoff (required, used) =    50.000    65.347 Ry

siesta: Eharris(eV) =   -2971.011512


siesta: Eharris(eV) =   -2971.011512


siesta: Atomic forces (eV/Ang):
     1    0.000008    0.000038    0.000004
     2   -0.000017    0.000033   -0.000010
     3   -0.000278   -0.000192    0.000112
     4    0.000208    0.000292   -0.000002
     5   -0.788915    1.764498   -0.000003
     6    0.000001   -1.058609    1.617155
     7    0.788907   -0.705900   -1.617150
     8    0.788918   -1.764491    0.000000
     9   -0.000008    1.058603   -1.617151
    10   -0.788908    0.705894    1.617150
----------------------------------------
 Tot   -0.000083    0.000165    0.000104
----------------------------------------
 Max    1.764498
 Res    0.864388    sqrt( Sum f_i^2 / 3N )
----------------------------------------
 Max    1.764498    constrained

Stress-tensor-Voigt (kbar):     1054.53     1101.00     1099.21      -23.49      -12.03      -11.78
Target enthalpy (eV/cell)    -2933.3554

siesta: Stress tensor (static) (eV/Ang**3):
         0.659715   -0.016036   -0.010497
        -0.016036    0.688412   -0.004693
        -0.010497   -0.004693    0.692509

siesta: Pressure (static):      -1089.83140459  kBar

siesta: Stress tensor (total) (eV/Ang**3):
         0.658181   -0.014663   -0.007353
        -0.014663    0.687184   -0.007507
        -0.007353   -0.007507    0.686063

siesta: Pressure (total):      -1084.91366512  kBar

siesta: E_kin PR =   98646.570 K

siesta: Temp_ion =    1858.647 K

* Maximum dynamic memory allocated =     4 MB

siesta:                 ==============================
                            Begin MD step =     48
                        ==============================

outcoor: Atomic coordinates (fractional):                   
    0.00000000    0.00000000    0.00000000   1  Mg         1
    0.50000000    0.50000000    0.50000000   1  Mg         2
    0.25000000    0.24999999    0.25000000   2  C          3
   -0.25000000   -0.25000001   -0.25000000   2  C          4
    0.58264825   -0.08264825    0.25000000   3  O          5
    0.24999998    0.58264827   -0.08264824   3  O          6
   -0.08264828    0.25000001    0.58264828   3  O          7
   -0.58264826    0.08264826   -0.25000001   3  O          8
   -0.24999998   -0.58264827    0.08264824   3  O          9
    0.08264827   -0.25000000   -0.58264828   3  O         10

outcell: Unit cell vectors (Ang):
        5.515403    0.120927    0.079160
        3.767820    4.029618    0.079160
        3.767820    1.684599    3.661450

outcell: Cell vector modules (Ang)   :    5.517296    5.517296    5.517296
outcell: Cell angles (23,13,12) (deg):     45.6620     45.6620     45.6620
outcell: Cell volume (Ang**3)        :     78.3085

InitMesh: MESH =    24 x    24 x    24 =       13824
InitMesh: Mesh cutoff (required, used) =    50.000    65.431 Ry

siesta: Eharris(eV) =   -2971.072721


siesta: Eharris(eV) =   -2971.072721


siesta: Atomic forces (eV/Ang):
     1    0.000008    0.000037    0.000004
     2   -0.000016    0.000032   -0.000010
     3    0.000255    0.000243   -0.000057
     4    0.000209    0.000284   -0.000002
     5   -0.892812    1.996895    0.000002
     6   -0.000007   -1.198033    1.830126
     7    0.892817   -0.798857   -1.830147
     8    0.892812   -1.996898   -0.000002
     9   -0.000004    1.198032   -1.830129
    10   -0.892817    0.798869    1.830138
----------------------------------------
 Tot    0.000445    0.000605   -0.000078
----------------------------------------
 Max    1.996898
 Res    0.978233    sqrt( Sum f_i^2 / 3N )
----------------------------------------
 Max    1.996898    constrained

Stress-tensor-Voigt (kbar):     1060.39     1099.96     1097.31      -19.68      -10.83       -9.34
Target enthalpy (eV/cell)    -2932.8714

siesta: Stress tensor (static) (eV/Ang**3):
         0.663347   -0.013633   -0.008924
        -0.013633    0.687743   -0.003990
        -0.008924   -0.003990    0.691227

siesta: Pressure (static):      -1090.72938611  kBar

siesta: Stress tensor (total) (eV/Ang**3):
         0.661837   -0.012281   -0.005829
        -0.012281    0.686534   -0.006760
        -0.005829   -0.006760    0.684881

siesta: Pressure (total):      -1085.88835765  kBar

siesta: E_kin PR =  104389.707 K

siesta: Temp_ion =    1807.524 K

* Maximum dynamic memory allocated =     4 MB

siesta:                 ==============================
                            Begin MD step =     49
                        ==============================

outcoor: Atomic coordinates (fractional):                   
    0.00000000    0.00000000    0.00000000   1  Mg         1
    0.50000000    0.50000000    0.50000000   1  Mg         2
    0.25000000    0.24999998    0.25000001   2  C          3
   -0.25000000   -0.25000000   -0.25000000   2  C          4
    0.58407562   -0.08407562    0.25000000   3  O          5
    0.24999998    0.58407564   -0.08407561   3  O          6
   -0.08407565    0.25000001    0.58407565   3  O          7
   -0.58407563    0.08407563   -0.25000001   3  O          8
   -0.24999998   -0.58407564    0.08407562   3  O          9
    0.08407564   -0.25000000   -0.58407565   3  O         10

outcell: Unit cell vectors (Ang):
        5.507739    0.127158    0.083239
        3.767353    4.019752    0.083239
        3.767353    1.684390    3.650776

outcell: Cell vector modules (Ang)   :    5.509835    5.509835    5.509835
outcell: Cell angles (23,13,12) (deg):     45.5284     45.5284     45.5284
outcell: Cell volume (Ang**3)        :     77.6136

InitMesh: MESH =    24 x    24 x    24 =       13824
InitMesh: Mesh cutoff (required, used) =    50.000    65.517 Ry

siesta: Eharris(eV) =   -2971.126223


siesta: Eharris(eV) =   -2971.126223


siesta: Atomic forces (eV/Ang):
     1    0.000008    0.000037    0.000004
     2   -0.000017    0.000032   -0.000012
     3    0.000252    0.000239   -0.000058
     4   -0.000190   -0.000294    0.000006
     5   -0.959817    2.146743   -0.000005
     6   -0.000001   -1.287963    1.967488
     7    0.959812   -0.858796   -1.967486
     8    0.959825   -2.146746    0.000006
     9   -0.000006    1.287950   -1.967481
    10   -0.959816    0.858800    1.967481
----------------------------------------
 Tot    0.000051    0.000002   -0.000056
----------------------------------------
 Max    2.146746
 Res    1.051645    sqrt( Sum f_i^2 / 3N )
----------------------------------------
 Max    2.146746    constrained

Stress-tensor-Voigt (kbar):     1066.15     1111.70     1110.06      -23.07      -11.73      -11.62
Target enthalpy (eV/cell)    -2932.3666

siesta: Stress tensor (static) (eV/Ang**3):
         0.666912   -0.015722   -0.010292
        -0.015722    0.695048   -0.004602
        -0.010292   -0.004602    0.699065

siesta: Pressure (static):      -1100.72019935  kBar

siesta: Stress tensor (total) (eV/Ang**3):
         0.665431   -0.014397   -0.007256
        -0.014397    0.693862   -0.007319
        -0.007255   -0.007319    0.692840

siesta: Pressure (total):      -1095.97143095  kBar

siesta: E_kin PR =  110297.523 K

siesta: Temp_ion =    1750.836 K

* Maximum dynamic memory allocated =     4 MB

siesta:                 ==============================
                            Begin MD step =     50
                        ==============================

outcoor: Atomic coordinates (fractional):                   
    0.00000000    0.00000000    0.00000000   1  Mg         1
    0.50000000    0.50000000    0.50000000   1  Mg         2
    0.24999999    0.24999997    0.25000001   2  C          3
   -0.25000000   -0.24999999   -0.25000000   2  C          4
    0.58548517   -0.08548517    0.25000000   3  O          5
    0.24999998    0.58548520   -0.08548516   3  O          6
   -0.08548520    0.25000001    0.58548520   3  O          7
   -0.58548518    0.08548518   -0.25000001   3  O          8
   -0.24999998   -0.58548519    0.08548517   3  O          9
    0.08548520   -0.25000000   -0.58548520   3  O         10

outcell: Unit cell vectors (Ang):
        5.499878    0.133573    0.087439
        3.766893    4.009616    0.087439
        3.766893    1.684184    3.639806

outcell: Cell vector modules (Ang)   :    5.502195    5.502195    5.502195
outcell: Cell angles (23,13,12) (deg):     45.3905     45.3905     45.3905
outcell: Cell volume (Ang**3)        :     76.9032

InitMesh: MESH =    24 x    24 x    24 =       13824
InitMesh: Mesh cutoff (required, used) =    50.000    65.606 Ry

siesta: Eharris(eV) =   -2971.183215


siesta: Eharris(eV) =   -2971.183215


siesta: Atomic forces (eV/Ang):
     1    0.000008    0.000037    0.000004
     2    0.000016   -0.000032    0.000009
     3    0.000250    0.000235   -0.000059
     4   -0.000202   -0.000284    0.000003
     5   -1.042845    2.332461   -0.000005
     6   -0.000001   -1.399378    2.137682
     7    1.042861   -0.933106   -2.137694
     8    1.042843   -2.332464    0.000009
     9   -0.000009    1.399369   -2.137685
    10   -1.042855    0.933098    2.137688
----------------------------------------
 Tot    0.000065   -0.000064   -0.000048
----------------------------------------
 Max    2.332464
 Res    1.142623    sqrt( Sum f_i^2 / 3N )
----------------------------------------
 Max    2.332464    constrained

Stress-tensor-Voigt (kbar):     1084.72     1152.22     1153.91      -35.38      -15.22      -19.77
Target enthalpy (eV/cell)    -2931.8600

siesta: Stress tensor (static) (eV/Ang**3):
         0.678472   -0.023381   -0.015305
        -0.023381    0.720313   -0.006843
        -0.015305   -0.006843    0.726287

siesta: Pressure (static):      -1134.92569701  kBar

siesta: Stress tensor (total) (eV/Ang**3):
         0.677025   -0.022085   -0.012338
        -0.022085    0.719154   -0.009498
        -0.012338   -0.009498    0.720203

siesta: Pressure (total):      -1130.28461246  kBar

siesta: E_kin PR =  116487.885 K

siesta: Temp_ion =    1689.637 K

* Maximum dynamic memory allocated =     4 MB

outcell: Unit cell vectors (Ang):
        5.491815    0.140181    0.091764
        3.766440    3.999201    0.091764
        3.766440    1.683982    3.628531

outcell: Cell vector modules (Ang)   :    5.494370    5.494370    5.494370
outcell: Cell angles (23,13,12) (deg):     45.2480     45.2480     45.2480
outcell: Cell volume (Ang**3)        :     76.1768

siesta: Eigenvalues (eV):
  ik is    eps
   1  1 -28.64 -27.34 -25.25 -25.25 -25.10 -25.10 -16.19 -15.86 -14.81 -14.31
        -14.31 -14.13 -14.13 -11.94 -11.90 -10.06 -10.06  -9.99  -9.99  -9.93
         -8.60  -8.60  -8.28  -8.28  -2.71  -0.90  -0.31   2.14   6.47   7.17
          7.17   7.26   7.26   8.99
siesta: Fermi energy =      -5.089728 eV

siesta: Program's energy decomposition (eV):
siesta: Eions   =      5228.674091
siesta: Ena     =      1092.841819
siesta: Ekin    =      2411.129297
siesta: Enl     =      -399.386731
siesta: DEna    =      -121.413086
siesta: DUscf   =        36.081563
siesta: DUext   =         0.000000
siesta: Exc     =      -727.238635
siesta: eta*DQ  =         0.000000
siesta: Emadel  =         0.000000
siesta: Ekinion =         1.965547
siesta: Eharris =     -2969.217669
siesta: Etot    =     -2934.694317
siesta: FreeEng =     -2934.694317

siesta: Final energy (eV):
siesta:       Kinetic =    2411.129297
siesta:       Hartree =     894.738486
siesta:    Ext. field =       0.000000
siesta:   Exch.-corr. =    -727.238635
siesta:  Ion-electron =   -3750.350185
siesta:       Ion-ion =   -1764.938827
siesta:       Ekinion =       1.965547
siesta:         Total =   -2934.694317

siesta: Atomic forces (eV/Ang):
siesta:      1    0.000008    0.000037    0.000004
siesta:      2    0.000016   -0.000032    0.000009
siesta:      3    0.000250    0.000235   -0.000059
siesta:      4   -0.000202   -0.000284    0.000003
siesta:      5   -1.042845    2.332461   -0.000005
siesta:      6   -0.000001   -1.399378    2.137682
siesta:      7    1.042861   -0.933106   -2.137694
siesta:      8    1.042843   -2.332464    0.000009
siesta:      9   -0.000009    1.399369   -2.137685
siesta:     10   -1.042855    0.933098    2.137688
siesta: ----------------------------------------
siesta:  Tot    0.000065   -0.000064   -0.000048

siesta: Stress tensor (static) (eV/Ang**3):
siesta:     0.678472   -0.023381   -0.015305
siesta:    -0.023381    0.720313   -0.006843
siesta:    -0.015305   -0.006843    0.726287

siesta: Cell volume =         76.903188 Ang**3

siesta: Pressure (static):
siesta:                Solid            Molecule  Units
siesta:          -0.00771491         -0.00668419  Ry/Bohr**3
siesta:          -0.70835725         -0.61371971  eV/Ang**3
siesta:       -1134.92569701       -983.29801505  kBar

* Maximum dynamic memory allocated : Node    0 =     4 MB

* Maximum memory occured during ranger                        

timer: CPU execution times:
timer:  Routine       Calls   Time/call    Tot.time        %
timer:  siesta            1      38.498      38.498   100.00
timer:  Setup             1       0.680       0.680     1.77
timer:  bands             1       0.000       0.000     0.00
timer:  writewave         1       0.001       0.001     0.00
timer:  KSV_init          1       0.000       0.000     0.00
timer:  IterMD           50       0.756      37.812    98.22
timer:  hsparse          51       0.044       2.254     5.85
timer:  overfsm         100       0.007       0.657     1.71
timer:  IterSCF         100       0.349      34.922    90.71
timer:  kinefsm         100       0.006       0.613     1.59
timer:  nlefsm          100       0.049       4.910    12.75
timer:  DHSCF           100       0.287      28.694    74.53
timer:  DHSCF1           50       0.048       2.415     6.27
timer:  DHSCF2           50       0.166       8.314    21.60
timer:  REORD           900       0.000       0.062     0.16
timer:  POISON          150       0.003       0.446     1.16
timer:  DHSCF3          100       0.075       7.527    19.55
timer:  rhoofd          100       0.043       4.260    11.07
timer:  cellXC          150       0.008       1.273     3.31
timer:  vmat            100       0.020       2.041     5.30
timer:  diagon           50       0.002       0.100     0.26
timer:  rdiag            50       0.002       0.086     0.22
timer:  rdiag1           50       0.000       0.003     0.01
timer:  rdiag2           50       0.000       0.002     0.01
timer:  rdiag3           50       0.001       0.071     0.18
timer:  rdiag4           50       0.000       0.005     0.01
timer:  DHSCF4           50       0.209      10.427    27.09
timer:  dfscf            50       0.152       7.589    19.71
timer:  optical           1       0.001       0.001     0.00
  

elaps: ELAPSED times:
elaps:  Routine       Calls   Time/call    Tot.time        %
elaps:  siesta            1      38.499      38.499   100.00
elaps:  Setup             1       0.683       0.683     1.77
elaps:  bands             1       0.000       0.000     0.00
elaps:  writewave         1       0.001       0.001     0.00
elaps:  KSV_init          1       0.000       0.000     0.00
elaps:  IterMD           50       0.756      37.809    98.21
elaps:  hsparse          51       0.044       2.253     5.85
elaps:  overfsm         100       0.007       0.658     1.71
elaps:  IterSCF         100       0.349      34.920    90.70
elaps:  kinefsm         100       0.006       0.626     1.63
elaps:  nlefsm          100       0.049       4.900    12.73
elaps:  DHSCF           100       0.287      28.688    74.52
elaps:  DHSCF1           50       0.048       2.419     6.28
elaps:  DHSCF2           50       0.166       8.312    21.59
elaps:  REORD           900       0.000       0.070     0.18
elaps:  POISON          150       0.003       0.439     1.14
elaps:  DHSCF3          100       0.075       7.524    19.54
elaps:  rhoofd          100       0.043       4.260    11.06
elaps:  cellXC          150       0.009       1.277     3.32
elaps:  vmat            100       0.020       2.035     5.29
elaps:  diagon           50       0.002       0.100     0.26
elaps:  rdiag            50       0.002       0.086     0.22
elaps:  rdiag1           50       0.000       0.003     0.01
elaps:  rdiag2           50       0.000       0.005     0.01
elaps:  rdiag3           50       0.001       0.072     0.19
elaps:  rdiag4           50       0.000       0.003     0.01
elaps:  DHSCF4           50       0.208      10.421    27.07
elaps:  dfscf            50       0.152       7.585    19.70
elaps:  optical           1       0.000       0.000     0.00
  
>> End of run:  26-JAN-2006  17:24:46
