Siesta Version  : siesta-4.0--578
Architecture    : x86_64-linux-n-62-25-35
Compiler version: GNU Fortran (GCC) 7.3.0
Compiler flags  : mpif90 -m64 -fPIC -O3 -march=native -ftree-vectorize -fexpensive-optimizationns -funroll-loops -fprefetch-loop-arrays -fno-second-underscore
PP flags        : -I/zdata/groups/common/nicpa/2018-feb/generic/build-tools/1.0/include -I/zdatta/groups/common/nicpa/2018-feb/generic/gcc/7.3.0/include -I/zdata/groups/common/nicpa/2018-feb/generic/gcc/7.3.0/include -I/zdata/groups/common/nicpa/2018-feb/XeonE5-2660v3/zlib/1.2.11/gnu-7.3.0/include -I/zdata/groups/common/nicpa/2018-feb/generic/numactl/2.0.11/include -I/zdata/groups/common/nicpa/2018-feb/XeonE5-2660v3/libxml2/2.9.7/gnu-7.3.0/include -I/zdata/groups/common/nicpa/2018-feb/XeonE5-2660v3/hwloc/1.11.9/gnu-7.3.0/include -I/zdata/groups/common/nicpa/2018-feb/XeonE5-2660v3/openmpi/3.0.0/gnu-7.3.0/include -I/zdata/groups/common/nicpa/2018-feb/XeonE5-2660v3/szip/2.1.1/gnu-7.3.0/include -I/zdata/groups/common/nicpa/2018-feb/XeonE5-2660v3/hdf5-serial/1.8.18/gnu-7.3.0/include -I/zdata/groups/common/nicpa/2018-feb/XeonE5-2660v3/netcdf-serial/4.6.0/gnu-7.3.0/include -I/zdata/groups/common/nicpa/2018-feb/XeonE5-2660v3/scalapack/204/gnu-7.3.0/include -I/zdata/groups/common/nicpa/2018-feb/XeonE5-2660v3/openblas/0.2.20/gnu-7.3.0/include -I/zdata/groups/common/nicpa/2018-feb/XeonE5-2660v3/elpa/2017.05.003/gnu-7.3.0/include -DSIESTA__ELPA -DMPI -D1 -DFC_HAVE_ABORT -DCDF -DSIESTA__MRRR 
PARALLEL version
NetCDF support

* Running on    8 nodes in parallel
>> Start of run:  10-JUN-2018  21:50:04

                           ***********************       
                           *  WELCOME TO SIESTA  *       
                           ***********************       

reinit: Reading from standard input
************************** Dump of input data file ****************************
#
# MgCO3 in primitive cell. SZ. Parrinello-Rahman
#
SystemName	MgCo3 R-3c -- SZ, 50 R -- PR at 10 Gpa
SystemLabel	md_pr
NumberOfSpecies		3
NumberOfAtoms	       10
%block ChemicalSpeciesLabel
      1      12     Mg
      2       6     C
      3       8     O
%endblock ChemicalSpeciesLabel
PAO.BasisSize  SZ
Diag.Divide-and-Conquer F
# Rhombohedral primitive cell
# (HEX 3-fold cell had A=4.635 and C=15.023, so alpha=48.179 degrees
#  and a=5.67783 Ang)
LatticeConstant     5.67783 Ang
%block LatticeParameters
1.0 1.0 1.0 48.179 48.179 48.179
%endblock LatticeParameters
AtomicCoordinatesFormat    Fractional
%block AtomicCoordinatesAndAtomicSpecies
  0.0         0.0         0.0      1
  0.5         0.5         0.5      1
  0.25        0.25        0.25     2
 -0.25       -0.25       -0.25     2
  0.5274     -0.0274      0.25     3
  0.25        0.5274     -0.0274   3
 -0.0274      0.25        0.5274   3
 -0.5274      0.0274     -0.25     3
 -0.25       -0.5274      0.0274   3
  0.0274     -0.25       -0.5274   3
%endblock AtomicCoordinatesAndAtomicSpecies
kgrid_cutoff 2.0 Ang
Solution.Method       diagon
MeshCutoff             50 Ry
DM.NumberBroyden       4
DM.UseSaveDM           T
DM.MixingWeight        0.1         # New DM amount for next SCF cycle
DM.Tolerance           1.d-3       # Tolerance in maximum difference
                                   # between input and output DM
MaxSCFIterations       20
WriteCoorStep      .true.
WriteForces        .true.
WriteMDHistory     .true.
MD.UseSaveXV       T
#####MD.Initial.temperature 300 K
MD.TypeOfRun         ParrinelloRahman
MD.Target-pressure   10.0 GPa
MD.Initial.Time.Step      1
MD.Final.Time.Step        50
MD.Length.Time.Step       0.3 fs
************************** End of input data file *****************************

reinit: -----------------------------------------------------------------------
reinit: System Name: MgCo3 R-3c -- SZ, 50 R -- PR at 10 Gpa
reinit: -----------------------------------------------------------------------
reinit: System Label: md_pr                                                       
reinit: -----------------------------------------------------------------------

initatom: Reading input for the pseudopotentials and atomic orbitals ----------
 Species number:            1  Label: Mg Atomic number:          12
 Species number:            2  Label: C Atomic number:           6
 Species number:            3  Label: O Atomic number:           8
Ground state valence configuration:   3s02
Reading pseudopotential information in formatted form from Mg.psf

Valence configuration for pseudopotential generation:
3s( 2.00) rc: 2.59
3p( 0.00) rc: 2.59
3d( 0.00) rc: 2.59
4f( 0.00) rc: 2.59
Ground state valence configuration:   2s02  2p02
Reading pseudopotential information in formatted form from C.psf

Valence configuration for pseudopotential generation:
2s( 2.00) rc: 1.49
2p( 2.00) rc: 1.52
3d( 0.00) rc: 1.58
Ground state valence configuration:   2s02  2p04
Reading pseudopotential information in formatted form from O.psf

Valence configuration for pseudopotential generation:
2s( 2.00) rc: 1.14
2p( 4.00) rc: 1.14
3d( 0.00) rc: 1.14
4f( 0.00) rc: 1.14
For Mg, standard SIESTA heuristics set lmxkb to 1
 (one more than the basis l, including polarization orbitals).
Use PS.lmax or PS.KBprojectors blocks to override.
For C, standard SIESTA heuristics set lmxkb to 2
 (one more than the basis l, including polarization orbitals).
Use PS.lmax or PS.KBprojectors blocks to override.
For O, standard SIESTA heuristics set lmxkb to 2
 (one more than the basis l, including polarization orbitals).
Use PS.lmax or PS.KBprojectors blocks to override.

<basis_specs>
===============================================================================
Mg                   Z=  12    Mass=  24.310        Charge= 0.17977+309
Lmxo=0 Lmxkb= 1    BasisType=split      Semic=F
L=0  Nsemic=0  Cnfigmx=3
          n=1  nzeta=1  polorb=0
            splnorm:   0.15000    
               vcte:    0.0000    
               rinn:    0.0000    
               qcoe:    0.0000    
               qyuk:    0.0000    
               qwid:   0.10000E-01
                rcs:    0.0000    
            lambdas:    1.0000    
-------------------------------------------------------------------------------
L=0  Nkbl=1  erefs: 0.17977+309
L=1  Nkbl=1  erefs: 0.17977+309
===============================================================================
</basis_specs>

atom: Called for Mg                    (Z =  12)

read_vps: Pseudopotential generation method:
read_vps: ATM3      Troullier-Martins                       
Total valence charge:    2.00000

xc_check: Exchange-correlation functional:
xc_check: Ceperley-Alder
V l=0 = -2*Zval/r beyond r=  3.5878
V l=1 = -2*Zval/r beyond r=  3.5878
All V_l potentials equal beyond r=  2.5600
This should be close to max(r_c) in ps generation
All pots = -2*Zval/r beyond r=  3.5878
Using large-core scheme for Vlocal

atom: Estimated core radius    3.58779

atom: Including non-local core corrections could be a good idea
atom: Maximum radius for 4*pi*r*r*local-pseudopot. charge    3.91588
atom: Maximum radius for r*vlocal+2*Zval:    3.63292
GHOST: No ghost state for L =  0
GHOST: No ghost state for L =  1

KBgen: Kleinman-Bylander projectors: 
   l= 0   rc=  2.657845   el= -0.351328   Ekb=  2.184400   kbcos=  0.257081
   l= 1   rc=  2.657845   el= -0.101748   Ekb=  0.525536   kbcos=  0.270508

KBgen: Total number of  Kleinman-Bylander projectors:    4
atom: -------------------------------------------------------------------------

atom: SANKEY-TYPE ORBITALS:

SPLIT: Orbitals with angular momentum L= 0

SPLIT: Basis orbitals for state 3s

SPLIT: PAO cut-off radius determined from an
SPLIT: energy shift=  0.020000 Ry

   izeta = 1
                 lambda =    1.000000
                     rc =    6.619780
                 energy =   -0.332103
                kinetic =    0.289627
    potential(screened) =   -0.621729
       potential(ionic) =   -1.387191
atom: Total number of Sankey-type orbitals:  1

atm_pop: Valence configuration (for local Pseudopot. screening):
 3s( 2.00)                                                            
Vna: chval, zval:    2.00000   2.00000

Vna:  Cut-off radius for the neutral-atom potential:   6.619780

atom: _________________________________________________________________________

<basis_specs>
===============================================================================
C                    Z=   6    Mass=  12.010        Charge= 0.17977+309
Lmxo=1 Lmxkb= 2    BasisType=split      Semic=F
L=0  Nsemic=0  Cnfigmx=2
          n=1  nzeta=1  polorb=0
            splnorm:   0.15000    
               vcte:    0.0000    
               rinn:    0.0000    
               qcoe:    0.0000    
               qyuk:    0.0000    
               qwid:   0.10000E-01
                rcs:    0.0000    
            lambdas:    1.0000    
L=1  Nsemic=0  Cnfigmx=2
          n=1  nzeta=1  polorb=0
            splnorm:   0.15000    
               vcte:    0.0000    
               rinn:    0.0000    
               qcoe:    0.0000    
               qyuk:    0.0000    
               qwid:   0.10000E-01
                rcs:    0.0000    
            lambdas:    1.0000    
-------------------------------------------------------------------------------
L=0  Nkbl=1  erefs: 0.17977+309
L=1  Nkbl=1  erefs: 0.17977+309
L=2  Nkbl=1  erefs: 0.17977+309
===============================================================================
</basis_specs>

atom: Called for C                     (Z =   6)

read_vps: Pseudopotential generation method:
read_vps: ATM3      Troullier-Martins                       
Total valence charge:    4.00000

xc_check: Exchange-correlation functional:
xc_check: Ceperley-Alder
V l=0 = -2*Zval/r beyond r=  1.4666
V l=1 = -2*Zval/r beyond r=  1.5038
V l=2 = -2*Zval/r beyond r=  1.5612
All V_l potentials equal beyond r=  1.5612
This should be close to max(r_c) in ps generation
All pots = -2*Zval/r beyond r=  1.5612

VLOCAL1: 99.0% of the norm of Vloc inside     17.809 Ry
VLOCAL1: 99.9% of the norm of Vloc inside     40.586 Ry
atom: Maximum radius for 4*pi*r*r*local-pseudopot. charge    1.88329
atom: Maximum radius for r*vlocal+2*Zval:    1.62091
GHOST: No ghost state for L =  0
GHOST: No ghost state for L =  1
GHOST: No ghost state for L =  2

KBgen: Kleinman-Bylander projectors: 
   l= 0   rc=  1.747182   el= -1.001947   Ekb=  5.181700   kbcos=  0.300603
   l= 1   rc=  1.747182   el= -0.398598   Ekb= -4.328763   kbcos= -0.367074
   l= 2   rc=  1.955272   el=  0.002326   Ekb= -1.016175   kbcos= -0.009979

KBgen: Total number of  Kleinman-Bylander projectors:    9
atom: -------------------------------------------------------------------------

atom: SANKEY-TYPE ORBITALS:

SPLIT: Orbitals with angular momentum L= 0

SPLIT: Basis orbitals for state 2s

SPLIT: PAO cut-off radius determined from an
SPLIT: energy shift=  0.020000 Ry

   izeta = 1
                 lambda =    1.000000
                     rc =    4.191849
                 energy =   -0.983897
                kinetic =    0.886956
    potential(screened) =   -1.870853
       potential(ionic) =   -5.479661

SPLIT: Orbitals with angular momentum L= 1

SPLIT: Basis orbitals for state 2p

SPLIT: PAO cut-off radius determined from an
SPLIT: energy shift=  0.020000 Ry

   izeta = 1
                 lambda =    1.000000
                     rc =    4.870301
                 energy =   -0.379093
                kinetic =    2.545357
    potential(screened) =   -2.924450
       potential(ionic) =   -6.433151
atom: Total number of Sankey-type orbitals:  4

atm_pop: Valence configuration (for local Pseudopot. screening):
 2s( 2.00)                                                            
 2p( 2.00)                                                            
Vna: chval, zval:    4.00000   4.00000

Vna:  Cut-off radius for the neutral-atom potential:   4.870301

atom: _________________________________________________________________________

<basis_specs>
===============================================================================
O                    Z=   8    Mass=  16.000        Charge= 0.17977+309
Lmxo=1 Lmxkb= 2    BasisType=split      Semic=F
L=0  Nsemic=0  Cnfigmx=2
          n=1  nzeta=1  polorb=0
            splnorm:   0.15000    
               vcte:    0.0000    
               rinn:    0.0000    
               qcoe:    0.0000    
               qyuk:    0.0000    
               qwid:   0.10000E-01
                rcs:    0.0000    
            lambdas:    1.0000    
L=1  Nsemic=0  Cnfigmx=2
          n=1  nzeta=1  polorb=0
            splnorm:   0.15000    
               vcte:    0.0000    
               rinn:    0.0000    
               qcoe:    0.0000    
               qyuk:    0.0000    
               qwid:   0.10000E-01
                rcs:    0.0000    
            lambdas:    1.0000    
-------------------------------------------------------------------------------
L=0  Nkbl=1  erefs: 0.17977+309
L=1  Nkbl=1  erefs: 0.17977+309
L=2  Nkbl=1  erefs: 0.17977+309
===============================================================================
</basis_specs>

atom: Called for O                     (Z =   8)

read_vps: Pseudopotential generation method:
read_vps: ATM3      Troullier-Martins                       
Total valence charge:    6.00000

xc_check: Exchange-correlation functional:
xc_check: Ceperley-Alder
V l=0 = -2*Zval/r beyond r=  1.1278
V l=1 = -2*Zval/r beyond r=  1.1278
V l=2 = -2*Zval/r beyond r=  1.1278
All V_l potentials equal beyond r=  1.1278
This should be close to max(r_c) in ps generation
All pots = -2*Zval/r beyond r=  1.1278

VLOCAL1: 99.0% of the norm of Vloc inside     34.126 Ry
VLOCAL1: 99.9% of the norm of Vloc inside     77.774 Ry
atom: Maximum radius for 4*pi*r*r*local-pseudopot. charge    1.37759
atom: Maximum radius for r*vlocal+2*Zval:    1.18566
GHOST: No ghost state for L =  0
GHOST: No ghost state for L =  1
GHOST: No ghost state for L =  2

KBgen: Kleinman-Bylander projectors: 
   l= 0   rc=  1.294105   el= -1.742414   Ekb=  9.135903   kbcos=  0.326910
   l= 1   rc=  1.294105   el= -0.676589   Ekb= -8.124878   kbcos= -0.395047
   l= 2   rc=  1.448233   el=  0.002386   Ekb= -2.039267   kbcos= -0.003484

KBgen: Total number of  Kleinman-Bylander projectors:    9
atom: -------------------------------------------------------------------------

atom: SANKEY-TYPE ORBITALS:

SPLIT: Orbitals with angular momentum L= 0

SPLIT: Basis orbitals for state 2s

SPLIT: PAO cut-off radius determined from an
SPLIT: energy shift=  0.020000 Ry

   izeta = 1
                 lambda =    1.000000
                     rc =    3.305093
                 energy =   -1.723766
                kinetic =    1.614911
    potential(screened) =   -3.338677
       potential(ionic) =  -11.304675

SPLIT: Orbitals with angular momentum L= 1

SPLIT: Basis orbitals for state 2p

SPLIT: PAO cut-off radius determined from an
SPLIT: energy shift=  0.020000 Ry

   izeta = 1
                 lambda =    1.000000
                     rc =    3.937239
                 energy =   -0.658841
                kinetic =    5.005986
    potential(screened) =   -5.664827
       potential(ionic) =  -13.452360
atom: Total number of Sankey-type orbitals:  4

atm_pop: Valence configuration (for local Pseudopot. screening):
 2s( 2.00)                                                            
 2p( 4.00)                                                            
Vna: chval, zval:    6.00000   6.00000

Vna:  Cut-off radius for the neutral-atom potential:   3.937239

atom: _________________________________________________________________________

prinput: Basis input ----------------------------------------------------------

PAO.BasisType split     

%block ChemicalSpeciesLabel
    1   12 Mg                      # Species index, atomic number, species label
    2    6 C                       # Species index, atomic number, species label
    3    8 O                       # Species index, atomic number, species label
%endblock ChemicalSpeciesLabel

%block PAO.Basis                 # Define Basis set
Mg                    1                    # Species label, number of l-shells
 n=3   0   1                         # n, l, Nzeta 
   6.620   
   1.000   
C                     2                    # Species label, number of l-shells
 n=2   0   1                         # n, l, Nzeta 
   4.192   
   1.000   
 n=2   1   1                         # n, l, Nzeta 
   4.870   
   1.000   
O                     2                    # Species label, number of l-shells
 n=2   0   1                         # n, l, Nzeta 
   3.305   
   1.000   
 n=2   1   1                         # n, l, Nzeta 
   3.937   
   1.000   
%endblock PAO.Basis

prinput: ----------------------------------------------------------------------

Dumping basis to NetCDF file Mg.ion.nc
Dumping basis to NetCDF file C.ion.nc
Dumping basis to NetCDF file O.ion.nc
coor:   Atomic-coordinates input format  =     Fractional

siesta: WARNING: XV file not found

siesta: Atomic coordinates (Bohr) and species
siesta:      0.00000   0.00000   0.00000  1        1
siesta:     12.51930   5.59740   3.66414  1        2
siesta:      6.25965   2.79870   1.83207  2        3
siesta:     -6.25965  -2.79870  -1.83207  2        4
siesta:      7.25136   0.58061   1.83207  3        5
siesta:      6.25965   4.12944  -0.20079  3        6
siesta:      5.26794   3.68605   3.86493  3        7
siesta:     -7.25136  -0.58061  -1.83207  3        8
siesta:     -6.25965  -4.12944   0.20079  3        9
siesta:     -5.26794  -3.68605  -3.86493  3       10

siesta: System type = bulk      

initatomlists: Number of atoms, orbitals, and projectors:     10    34    80

siesta: ******************** Simulation parameters ****************************
siesta:
siesta: The following are some of the parameters of the simulation.
siesta: A complete list of the parameters used, including default values,
siesta: can be found in file out.fdf
siesta:
redata: Non-Collinear-spin run           =     F
redata: SpinPolarized (Up/Down) run      =     F
redata: Number of spin components        =     1
redata: Long output                      =     F
redata: Number of Atomic Species         =        3
redata: Charge density info will appear in .RHO file
redata: Write Mulliken Pop.              =     NO
redata: Matel table size (NRTAB)         =     1024
redata: Mesh Cutoff                      =    50.0000 Ry
redata: Net charge of the system         =     0.0000 |e|
redata: Min. number of SCF Iter          =        0
redata: Max. number of SCF Iter          =       20
redata: Mix DM or H after convergence    =     F
redata: Recompute H after scf cycle      =     F
redata: Broyden mixing with     4 saved histories.
redata: Mix DM in first SCF step ?       =     F
redata: Write Pulay info on disk?        =     F
redata: Discard 1st Pulay DM after  kick =     F
redata: New DM Mixing Weight             =     0.1000
redata: New DM Occupancy tolerance       = 0.000000000001
redata: No kicks to SCF
redata: DM Mixing Weight for Kicks       =     0.5000
redata: DM Tolerance for SCF             =     0.001000
redata: Require (free) Energy convergence in SCF =     F
redata: DM (free)Energy tolerance for SCF =     0.000010 eV
redata: Require Harris convergence for SCF =     F
redata: DM Harris energy tolerance for SCF =     0.000010 eV
redata: Using Saved Data (generic)   =     F
redata: Use continuation files for DM    =     T
redata: Neglect nonoverlap interactions  =     F
redata: Method of Calculation            =     Diagonalization
redata: Divide and Conquer               =     F
redata: Electronic Temperature           =     0.0019  Ry
redata: Fix the spin of the system       =     F
redata: Dynamics option                  =     Parrinello-Rahman MD run
redata: Initial MD time step             =        1
redata:   Final MD time step             =       50
redata: Length of MD time step           =     0.3000  fs
redata: Initial Temperature of MD run    =     0.0000  K
redata: Perform a MD quench              =     F
redata: Parrinello-Rahman mass           =   100.0000  Ry/fs**2
redata: Target Pressure                  =     0.0007  Ry/Bohr**3
redata: ***********************************************************************
Total number of electrons:    48.000000
Total ionic charge:    48.000000

* ProcessorY, Blocksize:    2   4


* Orbital distribution balance (max,min):     6     4

 Kpoints in:            1 . Kpoints trimmed:            1

siesta: k-grid: Number of k-points =     1
siesta: k-grid: Cutoff (effective) =     2.317 Ang
siesta: k-grid: Supercell and displacements
siesta: k-grid:    1   0   0      0.000
siesta: k-grid:    0   1   0      0.000
siesta: k-grid:    0   0   1      0.000

                     ====================================
                        Begin MD step =      1
                     ====================================

outcoor: Atomic coordinates (fractional):                   
    0.00000000    0.00000000    0.00000000   1       1  Mg
    0.50000000    0.50000000    0.50000000   1       2  Mg
    0.25000000    0.25000000    0.25000000   2       3  C
   -0.25000000   -0.25000000   -0.25000000   2       4  C
    0.52740000   -0.02740000    0.25000000   3       5  O
    0.25000000    0.52740000   -0.02740000   3       6  O
   -0.02740000    0.25000000    0.52740000   3       7  O
   -0.52740000    0.02740000   -0.25000000   3       8  O
   -0.25000000   -0.52740000    0.02740000   3       9  O
    0.02740000   -0.25000000   -0.52740000   3      10  O

outcell: Unit cell vectors (Ang):
        5.677830    0.000000    0.000000
        3.786009    4.231299    0.000000
        3.786009    1.692731    3.877957

outcell: Cell vector modules (Ang)   :    5.677830    5.677830    5.677830
outcell: Cell angles (23,13,12) (deg):     48.1790     48.1790     48.1790
outcell: Cell volume (Ang**3)        :     93.1663
Gamma-point calculation with interaction between periodic images
Some features might not work optimally:
e.g. DM initialization from atomic data
New_DM. Step:     1
Initializing Density Matrix...
New grid distribution:   1
           1       1:   12    1:    6    1:    3
           2       1:   12    1:    6    4:    6
           3       1:   12    1:    6    7:    9
           4       1:   12    1:    6   10:   12
           5       1:   12    7:   12    1:    3
           6       1:   12    7:   12    4:    6
           7       1:   12    7:   12    7:    9
           8       1:   12    7:   12   10:   12

InitMesh: MESH =    24 x    24 x    24 =       13824
InitMesh: (bp) =    12 x    12 x    12 =        1728
InitMesh: Mesh cutoff (required, used) =    50.000    63.482 Ry
ExtMesh (bp) on 0 =    56 x    50 x    47 =      131600
New grid distribution:   2
           1       6:   12    1:    6    1:    6
           2       7:   12    7:   12    1:    6
           3       1:    6    1:    6    7:   12
           4       1:    5    1:    6    1:    6
           5       7:   12    1:    6    7:   12
           6       1:    6    7:   12    1:    6
           7       1:    7    7:   12    7:   12
           8       8:   12    7:   12    7:   12
New grid distribution:   3
           1       1:    6    7:   12    7:   12
           2       7:   12    1:    6    1:    6
           3       7:   12    1:    6    7:   12
           4       7:   12    7:   12    1:    6
           5       1:    6    1:    6    7:   12
           6       1:    6    1:    6    1:    6
           7       7:   12    7:   12    7:   12
           8       1:    6    7:   12    1:    6
Setting up quadratic distribution...
ExtMesh (bp) on 0 =    51 x    50 x    50 =      127500
PhiOnMesh: Number of (b)points on node 0 =                  252
PhiOnMesh: nlist on node 0 =                 5554

stepf: Fermi-Dirac step function

siesta: Program's energy decomposition (eV):
siesta: Ebs     =      -692.463260
siesta: Eions   =      5228.674091
siesta: Ena     =      1092.439512
siesta: Ekin    =      2093.980631
siesta: Enl     =      -258.689349
siesta: DEna    =         0.303225
siesta: DUscf   =         0.115005
siesta: DUext   =         0.000000
siesta: Exc     =      -684.483412
siesta: eta*DQ  =         0.000000
siesta: Emadel  =         0.000000
siesta: Emeta   =         0.000000
siesta: Emolmec =         0.000000
siesta: Ekinion =         0.000000
siesta: Eharris =     -2965.613904
siesta: Etot    =     -2985.008478
siesta: FreeEng =     -2985.008478

   scf: iscf   Eharris(eV)      E_KS(eV)   FreeEng(eV)    dDmax  Ef(eV)
   scf:    1    -2965.6139    -2985.0085    -2985.0085  1.59734 -2.6239
 Broyden: No of relevant DM elements:         1156
 maxit for broyden:            4
 cycle on maxit:  T
 variable weight:  T
 initial alpha:   0.10000000000000001     
timer: Routine,Calls,Time,% =    IterSCF     1       0.014   2.65
   scf:    2    -2966.8681    -2946.1474    -2946.1474  0.93251 -1.4014
   scf:    3    -2962.4797    -2947.9745    -2947.9745  0.72964 -1.1927
   scf:    4    -2955.5099    -2951.3523    -2951.3523  0.04920 -2.9254
   scf:    5    -2955.5050    -2952.0380    -2952.0380  0.04118 -2.9440
   scf:    6    -2955.4908    -2955.2650    -2955.2650  0.00630 -3.0164
   scf:    7    -2955.4907    -2955.3368    -2955.3368  0.00225 -3.0042
   scf:    8    -2955.4907    -2955.4932    -2955.4932  0.00025 -3.0042

SCF Convergence by dMax criterion
max |DM_out - DM_in|:     0.00025258
SCF cycle converged after    8 iterations

Using DM_out to compute the final energy and forces

siesta: E_KS(eV) =            -2955.4907

siesta: E_KS - E_eggbox =     -2955.4907

siesta: Atomic forces (eV/Ang):
     1    0.000000   -0.000000   -0.000000
     2    0.000000   -0.000000    0.000000
     3   -0.000041    0.000143   -0.000082
     4    0.000041   -0.000144    0.000082
     5    3.358888   -7.512609    0.000015
     6    0.000002    4.507073   -6.885112
     7   -3.358841    3.005361    6.885196
     8   -3.358888    7.512609   -0.000015
     9   -0.000002   -4.507073    6.885112
    10    3.358841   -3.005361   -6.885196
----------------------------------------
   Tot   -0.000000    0.000000   -0.000000
----------------------------------------
   Max    7.512609
   Res    3.680216    sqrt( Sum f_i^2 / 3N )
----------------------------------------
   Max    7.512609    constrained

Stress-tensor-Voigt (kbar):      164.13     -273.54     -336.02      244.57       71.58      160.10
(Free)E + p*V (eV/cell)    -2946.8570
Target enthalpy (eV/cell)    -2949.6758

siesta: Stress tensor (static) (eV/Ang**3):
         0.102441    0.152647    0.099924
         0.152647   -0.170725    0.044675
         0.099924    0.044675   -0.209725

siesta: Pressure (static):        148.47497268  kBar

siesta: Stress tensor (total) (eV/Ang**3):
         0.102441    0.152647    0.099924
         0.152647   -0.170725    0.044675
         0.099924    0.044675   -0.209725

siesta: Pressure (total):        148.47497268  kBar

siesta: E_kin PR =       1.567 K

siesta: Temp_ion =       0.000 K

                     ====================================
                        Begin MD step =      2
                     ====================================

outcoor: Atomic coordinates (fractional):                   
    0.00000000   -0.00000000   -0.00000000   1       1  Mg
    0.50000000    0.50000000    0.50000000   1       2  Mg
    0.25000000    0.25000000    0.25000000   2       3  C
   -0.25000000   -0.25000000   -0.25000000   2       4  C
    0.52744783   -0.02744783    0.25000000   3       5  O
    0.25000000    0.52744783   -0.02744783   3       6  O
   -0.02744783    0.25000000    0.52744783   3       7  O
   -0.52744783    0.02744783   -0.25000000   3       8  O
   -0.25000000   -0.52744783    0.02744783   3       9  O
    0.02744783   -0.25000000   -0.52744783   3      10  O

outcell: Unit cell vectors (Ang):
        5.677839   -0.000068   -0.000044
        3.785965    4.231351   -0.000044
        3.785965    1.692711    3.878022

outcell: Cell vector modules (Ang)   :    5.677839    5.677839    5.677839
outcell: Cell angles (23,13,12) (deg):     48.1804     48.1804     48.1804
outcell: Cell volume (Ang**3)        :     93.1711
Gamma-point calculation with interaction between periodic images
Some features might not work optimally:
e.g. DM initialization from atomic data
New_DM. Step:     2
Re-using DM from previous geometry...
Re-using DM without extrapolation for lack of history
Density Matrix sparsity pattern changed.
New grid distribution:   1
           1       1:   12    1:    6    1:    3
           2       1:   12    1:    6    4:    6
           3       1:   12    1:    6    7:    9
           4       1:   12    1:    6   10:   12
           5       1:   12    7:   12    1:    3
           6       1:   12    7:   12    4:    6
           7       1:   12    7:   12    7:    9
           8       1:   12    7:   12   10:   12

InitMesh: MESH =    24 x    24 x    24 =       13824
InitMesh: (bp) =    12 x    12 x    12 =        1728
InitMesh: Mesh cutoff (required, used) =    50.000    63.483 Ry
ExtMesh (bp) on 0 =    56 x    50 x    47 =      131600
New grid distribution:   2
           1       6:   12    1:    6    1:    6
           2       7:   12    7:   12    1:    6
           3       1:    6    1:    6    7:   12
           4       1:    5    1:    6    1:    6
           5       7:   12    1:    6    7:   12
           6       1:    6    7:   12    1:    6
           7       1:    7    7:   12    7:   12
           8       8:   12    7:   12    7:   12
New grid distribution:   3
           1       1:    6    7:   12    7:   12
           2       7:   12    1:    6    1:    6
           3       7:   12    1:    6    7:   12
           4       7:   12    7:   12    1:    6
           5       1:    6    1:    6    7:   12
           6       1:    6    1:    6    1:    6
           7       7:   12    7:   12    7:   12
           8       1:    6    7:   12    1:    6
Setting up quadratic distribution...
ExtMesh (bp) on 0 =    51 x    50 x    50 =      127500
PhiOnMesh: Number of (b)points on node 0 =                  252
PhiOnMesh: nlist on node 0 =                 5552

   scf: iscf   Eharris(eV)      E_KS(eV)   FreeEng(eV)    dDmax  Ef(eV)
   scf:    1    -2955.5030    -2955.4817    -2955.4817  0.00058 -3.0104

SCF Convergence by dMax criterion
max |DM_out - DM_in|:     0.00058423
SCF cycle converged after    1 iterations

Using DM_out to compute the final energy and forces

siesta: E_KS(eV) =            -2955.5030

siesta: Atomic forces (eV/Ang):
     1   -0.000000    0.000000    0.000000
     2   -0.000000    0.000000   -0.000000
     3    0.000104   -0.000373    0.000214
     4   -0.000104    0.000373   -0.000214
     5    3.353783   -7.501096   -0.000038
     6   -0.000006    4.500585   -6.875080
     7   -3.353904    3.000964    6.874859
     8   -3.353783    7.501095    0.000038
     9    0.000006   -4.500585    6.875080
    10    3.353904   -3.000964   -6.874859
----------------------------------------
   Tot    0.000000   -0.000000    0.000000
----------------------------------------
   Max    7.501096
   Res    3.674728    sqrt( Sum f_i^2 / 3N )
----------------------------------------
   Max    7.501096    constrained

Stress-tensor-Voigt (kbar):      163.19     -275.82     -338.52      245.32       71.81      160.60
(Free)E + p*V (eV/cell)    -2946.7577
Target enthalpy (eV/cell)    -2949.6878

siesta: Stress tensor (static) (eV/Ang**3):
         0.101852    0.153117    0.100235
         0.153117   -0.172154    0.044819
         0.100236    0.044819   -0.211286

siesta: Pressure (static):        150.38634197  kBar

siesta: Stress tensor (total) (eV/Ang**3):
         0.101852    0.153117    0.100235
         0.153117   -0.172154    0.044819
         0.100236    0.044819   -0.211286

siesta: Pressure (total):        150.38634197  kBar

siesta: E_kin PR =      14.184 K

siesta: Temp_ion =       9.395 K

                     ====================================
                        Begin MD step =      3
                     ====================================

outcoor: Atomic coordinates (fractional):                   
   -0.00000000    0.00000000    0.00000000   1       1  Mg
    0.50000000    0.50000000    0.50000000   1       2  Mg
    0.25000000    0.25000000    0.25000000   2       3  C
   -0.25000000   -0.25000000   -0.25000000   2       4  C
    0.52759118   -0.02759118    0.25000000   3       5  O
    0.25000000    0.52759118   -0.02759118   3       6  O
   -0.02759118    0.25000000    0.52759118   3       7  O
   -0.52759118    0.02759118   -0.25000000   3       8  O
   -0.25000000   -0.52759118    0.02759118   3       9  O
    0.02759118   -0.25000000   -0.52759118   3      10  O

outcell: Unit cell vectors (Ang):
        5.677858   -0.000204   -0.000134
        3.785876    4.231456   -0.000134
        3.785876    1.692671    3.878154

outcell: Cell vector modules (Ang)   :    5.677858    5.677858    5.677858
outcell: Cell angles (23,13,12) (deg):     48.1831     48.1831     48.1831
outcell: Cell volume (Ang**3)        :     93.1806
Gamma-point calculation with interaction between periodic images
Some features might not work optimally:
e.g. DM initialization from atomic data
New_DM. Step:     3
Re-using DM from previous geometry...
Extrapolating Density Matrix...
Density Matrix sparsity pattern changed.
New grid distribution:   1
           1       1:   12    1:    6    1:    3
           2       1:   12    1:    6    4:    6
           3       1:   12    1:    6    7:    9
           4       1:   12    1:    6   10:   12
           5       1:   12    7:   12    1:    3
           6       1:   12    7:   12    4:    6
           7       1:   12    7:   12    7:    9
           8       1:   12    7:   12   10:   12

InitMesh: MESH =    24 x    24 x    24 =       13824
InitMesh: (bp) =    12 x    12 x    12 =        1728
InitMesh: Mesh cutoff (required, used) =    50.000    63.485 Ry
ExtMesh (bp) on 0 =    56 x    50 x    47 =      131600
New grid distribution:   2
           1       6:   12    1:    6    1:    6
           2       7:   12    7:   12    1:    6
           3       1:    6    1:    6    7:   12
           4       1:    5    1:    6    1:    6
           5       7:   12    1:    6    7:   12
           6       1:    6    7:   12    1:    6
           7       1:    7    7:   12    7:   12
           8       8:   12    7:   12    7:   12
New grid distribution:   3
           1       1:    6    7:   12    7:   12
           2       7:   12    1:    6    1:    6
           3       7:   12    1:    6    7:   12
           4       7:   12    7:   12    1:    6
           5       1:    6    1:    6    7:   12
           6       1:    6    1:    6    1:    6
           7       7:   12    7:   12    7:   12
           8       1:    6    7:   12    1:    6
Setting up quadratic distribution...
ExtMesh (bp) on 0 =    51 x    50 x    50 =      127500
PhiOnMesh: Number of (b)points on node 0 =                  252
PhiOnMesh: nlist on node 0 =                 5564

   scf: iscf   Eharris(eV)      E_KS(eV)   FreeEng(eV)    dDmax  Ef(eV)
   scf:    1    -2955.5384    -2955.4996    -2955.4996  0.00063 -3.0232

SCF Convergence by dMax criterion
max |DM_out - DM_in|:     0.00063095
SCF cycle converged after    1 iterations

Using DM_out to compute the final energy and forces

siesta: E_KS(eV) =            -2955.5384

siesta: Atomic forces (eV/Ang):
     1    0.000000   -0.000000   -0.000001
     2    0.000000   -0.000000    0.000001
     3   -0.000646    0.002314   -0.001325
     4    0.000648   -0.002317    0.001325
     5    3.334177   -7.457732    0.000236
     6    0.000037    4.472386   -6.832619
     7   -3.333426    2.982528    6.833997
     8   -3.334178    7.457735   -0.000236
     9   -0.000037   -4.472385    6.832619
    10    3.333426   -2.982527   -6.833998
----------------------------------------
   Tot   -0.000000    0.000000   -0.000000
----------------------------------------
   Max    7.457735
   Res    3.652690    sqrt( Sum f_i^2 / 3N )
----------------------------------------
   Max    7.457735    constrained

Stress-tensor-Voigt (kbar):      163.72     -273.70     -336.07      244.43       71.49      159.98
(Free)E + p*V (eV/cell)    -2946.8911
Target enthalpy (eV/cell)    -2949.7226

siesta: Stress tensor (static) (eV/Ang**3):
         0.102209    0.152519    0.099824
         0.152517   -0.170733    0.044610
         0.099822    0.044610   -0.209650

siesta: Pressure (static):        148.56261769  kBar

siesta: Stress tensor (total) (eV/Ang**3):
         0.102184    0.152560    0.099851
         0.152558   -0.170831    0.044622
         0.099848    0.044621   -0.209759

siesta: Pressure (total):        148.68701598  kBar

siesta: E_kin PR =      39.472 K

siesta: Temp_ion =      37.439 K

                     ====================================
                        Begin MD step =      4
                     ====================================

outcoor: Atomic coordinates (fractional):                   
    0.00000000   -0.00000000   -0.00000000   1       1  Mg
    0.50000000    0.50000000    0.50000000   1       2  Mg
    0.24999998    0.25000004    0.24999998   2       3  C
   -0.24999998   -0.25000004   -0.24999998   2       4  C
    0.52782945   -0.02782945    0.25000000   3       5  O
    0.25000000    0.52782942   -0.02782943   3       6  O
   -0.02782943    0.24999999    0.52782944   3       7  O
   -0.52782945    0.02782945   -0.25000000   3       8  O
   -0.25000000   -0.52782942    0.02782943   3       9  O
    0.02782943   -0.24999999   -0.52782944   3      10  O

outcell: Unit cell vectors (Ang):
        5.677886   -0.000409   -0.000267
        3.785742    4.231613   -0.000267
        3.785742    1.692612    3.878352

outcell: Cell vector modules (Ang)   :    5.677886    5.677886    5.677886
outcell: Cell angles (23,13,12) (deg):     48.1872     48.1872     48.1872
outcell: Cell volume (Ang**3)        :     93.1948
Gamma-point calculation with interaction between periodic images
Some features might not work optimally:
e.g. DM initialization from atomic data
New_DM. Step:     4
Re-using DM from previous geometry...
Extrapolating Density Matrix...
Density Matrix sparsity pattern changed.
New grid distribution:   1
           1       1:   12    1:    6    1:    3
           2       1:   12    1:    6    4:    6
           3       1:   12    1:    6    7:    9
           4       1:   12    1:    6   10:   12
           5       1:   12    7:   12    1:    3
           6       1:   12    7:   12    4:    6
           7       1:   12    7:   12    7:    9
           8       1:   12    7:   12   10:   12

InitMesh: MESH =    24 x    24 x    24 =       13824
InitMesh: (bp) =    12 x    12 x    12 =        1728
InitMesh: Mesh cutoff (required, used) =    50.000    63.487 Ry
ExtMesh (bp) on 0 =    56 x    50 x    47 =      131600
New grid distribution:   2
           1       6:   12    1:    6    1:    6
           2       7:   12    7:   12    1:    6
           3       1:    6    1:    6    7:   12
           4       1:    5    1:    6    1:    6
           5       7:   12    1:    6    7:   12
           6       1:    6    7:   12    1:    6
           7       1:    7    7:   12    7:   12
           8       8:   12    7:   12    7:   12
New grid distribution:   3
           1       1:    6    7:   12    7:   12
           2       7:   12    1:    6    1:    6
           3       7:   12    1:    6    7:   12
           4       7:   12    7:   12    1:    6
           5       1:    6    1:    6    7:   12
           6       1:    6    1:    6    1:    6
           7       7:   12    7:   12    7:   12
           8       1:    6    7:   12    1:    6
Setting up quadratic distribution...
ExtMesh (bp) on 0 =    51 x    50 x    50 =      127500
PhiOnMesh: Number of (b)points on node 0 =                  252
PhiOnMesh: nlist on node 0 =                 5564

   scf: iscf   Eharris(eV)      E_KS(eV)   FreeEng(eV)    dDmax  Ef(eV)
   scf:    1    -2955.5965    -2955.5580    -2955.5580  0.00185 -3.0482
   scf:    2    -2955.5966    -2955.5963    -2955.5963  0.00283 -3.0401
   scf:    3    -2955.5965    -2955.5963    -2955.5963  0.00201 -3.0415
   scf:    4    -2955.5964    -2955.5964    -2955.5964  0.00059 -3.0443

SCF Convergence by dMax criterion
max |DM_out - DM_in|:     0.00059026
SCF cycle converged after    4 iterations

Using DM_out to compute the final energy and forces

siesta: E_KS(eV) =            -2955.5964

siesta: Atomic forces (eV/Ang):
     1   -0.000000    0.000000    0.000000
     2    0.000000    0.000000   -0.000001
     3    0.000637   -0.002291    0.001325
     4   -0.000638    0.002295   -0.001325
     5    3.299351   -7.379005   -0.000233
     6   -0.000035    4.428901   -6.765143
     7   -3.300091    2.952893    6.763764
     8   -3.299350    7.379004    0.000233
     9    0.000035   -4.428902    6.765144
    10    3.300092   -2.952894   -6.763764
----------------------------------------
   Tot    0.000000   -0.000000    0.000000
----------------------------------------
   Max    7.379005
   Res    3.615489    sqrt( Sum f_i^2 / 3N )
----------------------------------------
   Max    7.379005    constrained

Stress-tensor-Voigt (kbar):      163.92     -271.05     -333.24      243.07       71.19      159.15
(Free)E + p*V (eV/cell)    -2947.0582
Target enthalpy (eV/cell)    -2949.7797

siesta: Stress tensor (static) (eV/Ang**3):
         0.102413    0.151548    0.099222
         0.151550   -0.168781    0.044384
         0.099225    0.044385   -0.207555

siesta: Pressure (static):        146.29250911  kBar

siesta: Stress tensor (total) (eV/Ang**3):
         0.102310    0.151710    0.099328
         0.151711   -0.169173    0.044431
         0.099331    0.044432   -0.207988

siesta: Pressure (total):        146.78815896  kBar

siesta: E_kin PR =      77.088 K

siesta: Temp_ion =      83.671 K

                     ====================================
                        Begin MD step =      5
                     ====================================

outcoor: Atomic coordinates (fractional):                   
    0.00000000   -0.00000000   -0.00000000   1       1  Mg
    0.50000000    0.50000000    0.50000000   1       2  Mg
    0.24999998    0.25000003    0.24999998   2       3  C
   -0.24999998   -0.25000003   -0.24999998   2       4  C
    0.52816162   -0.02816162    0.25000000   3       5  O
    0.25000000    0.52816160   -0.02816160   3       6  O
   -0.02816161    0.25000000    0.52816161   3       7  O
   -0.52816162    0.02816162   -0.25000000   3       8  O
   -0.25000000   -0.52816160    0.02816160   3       9  O
    0.02816161   -0.25000000   -0.52816161   3      10  O

outcell: Unit cell vectors (Ang):
        5.677923   -0.000680   -0.000445
        3.785564    4.231822   -0.000445
        3.785564    1.692532    3.878614

outcell: Cell vector modules (Ang)   :    5.677923    5.677923    5.677923
outcell: Cell angles (23,13,12) (deg):     48.1927     48.1927     48.1927
outcell: Cell volume (Ang**3)        :     93.2137
Gamma-point calculation with interaction between periodic images
Some features might not work optimally:
e.g. DM initialization from atomic data
New_DM. Step:     5
Re-using DM from previous geometry...
Extrapolating Density Matrix...
New grid distribution:   1
           1       1:   12    1:    6    1:    3
           2       1:   12    1:    6    4:    6
           3       1:   12    1:    6    7:    9
           4       1:   12    1:    6   10:   12
           5       1:   12    7:   12    1:    3
           6       1:   12    7:   12    4:    6
           7       1:   12    7:   12    7:    9
           8       1:   12    7:   12   10:   12

InitMesh: MESH =    24 x    24 x    24 =       13824
InitMesh: (bp) =    12 x    12 x    12 =        1728
InitMesh: Mesh cutoff (required, used) =    50.000    63.490 Ry
ExtMesh (bp) on 0 =    56 x    50 x    47 =      131600
New grid distribution:   2
           1       6:   12    1:    6    1:    6
           2       7:   12    7:   12    1:    6
           3       1:    6    1:    6    7:   12
           4       1:    5    1:    6    1:    6
           5       7:   12    1:    6    7:   12
           6       1:    6    7:   12    1:    6
           7       1:    7    7:   12    7:   12
           8       8:   12    7:   12    7:   12
New grid distribution:   3
           1       1:    6    7:   12    7:   12
           2       7:   12    1:    6    1:    6
           3       7:   12    1:    6    7:   12
           4       7:   12    7:   12    1:    6
           5       1:    6    1:    6    7:   12
           6       1:    6    1:    6    1:    6
           7       7:   12    7:   12    7:   12
           8       1:    6    7:   12    1:    6
Setting up quadratic distribution...
ExtMesh (bp) on 0 =    51 x    50 x    50 =      127500
PhiOnMesh: Number of (b)points on node 0 =                  252
PhiOnMesh: nlist on node 0 =                 5560

   scf: iscf   Eharris(eV)      E_KS(eV)   FreeEng(eV)    dDmax  Ef(eV)
   scf:    1    -2955.6758    -2955.6379    -2955.6379  0.00189 -3.0798
   scf:    2    -2955.6760    -2955.6756    -2955.6756  0.00419 -3.0706
   scf:    3    -2955.6758    -2955.6756    -2955.6756  0.00279 -3.0721
   scf:    4    -2955.6757    -2955.6756    -2955.6756  0.00065 -3.0753

SCF Convergence by dMax criterion
max |DM_out - DM_in|:     0.00064714
SCF cycle converged after    4 iterations

Using DM_out to compute the final energy and forces

siesta: E_KS(eV) =            -2955.6757

siesta: Atomic forces (eV/Ang):
     1    0.000000   -0.000000   -0.000000
     2   -0.000000   -0.000000    0.000000
     3   -0.000518    0.001833   -0.001030
     4    0.000519   -0.001836    0.001030
     5    3.240149   -7.247332    0.000183
     6    0.000028    4.346541   -6.640270
     7   -3.239544    2.898547    6.641347
     8   -3.240150    7.247334   -0.000183
     9   -0.000028   -4.346540    6.640270
    10    3.239544   -2.898547   -6.641347
----------------------------------------
   Tot   -0.000000    0.000000    0.000000
----------------------------------------
   Max    7.247334
   Res    3.549758    sqrt( Sum f_i^2 / 3N )
----------------------------------------
   Max    7.247334    constrained

Stress-tensor-Voigt (kbar):      165.46     -263.53     -324.71      239.71       70.12      156.90
(Free)E + p*V (eV/cell)    -2947.4766
Target enthalpy (eV/cell)    -2949.8578

siesta: Stress tensor (static) (eV/Ang**3):
         0.103498    0.149257    0.097692
         0.149255   -0.163605    0.043661
         0.097690    0.043661   -0.201699

siesta: Pressure (static):        139.82104052  kBar

siesta: Stress tensor (total) (eV/Ang**3):
         0.103268    0.149617    0.097928
         0.149616   -0.164480    0.043767
         0.097926    0.043766   -0.202667

siesta: Pressure (total):        140.92858817  kBar

siesta: E_kin PR =     126.177 K

siesta: Temp_ion =     147.189 K

                     ====================================
                        Begin MD step =      6
                     ====================================

outcoor: Atomic coordinates (fractional):                   
    0.00000000   -0.00000000   -0.00000000   1       1  Mg
    0.50000000    0.50000000    0.50000000   1       2  Mg
    0.24999997    0.25000006    0.24999997   2       3  C
   -0.24999997   -0.25000006   -0.24999997   2       4  C
    0.52858595   -0.02858596    0.25000000   3       5  O
    0.25000000    0.52858591   -0.02858591   3       6  O
   -0.02858592    0.24999999    0.52858594   3       7  O
   -0.52858595    0.02858596   -0.25000000   3       8  O
   -0.25000000   -0.52858591    0.02858591   3       9  O
    0.02858592   -0.24999999   -0.52858594   3      10  O

outcell: Unit cell vectors (Ang):
        5.677968   -0.001018   -0.000666
        3.785343    4.232080   -0.000666
        3.785343    1.692433    3.878940

outcell: Cell vector modules (Ang)   :    5.677968    5.677968    5.677968
outcell: Cell angles (23,13,12) (deg):     48.1995     48.1995     48.1995
outcell: Cell volume (Ang**3)        :     93.2372
Gamma-point calculation with interaction between periodic images
Some features might not work optimally:
e.g. DM initialization from atomic data
New_DM. Step:     6
Re-using DM from previous geometry...
Extrapolating Density Matrix...
New grid distribution:   1
           1       1:   12    1:    6    1:    3
           2       1:   12    1:    6    4:    6
           3       1:   12    1:    6    7:    9
           4       1:   12    1:    6   10:   12
           5       1:   12    7:   12    1:    3
           6       1:   12    7:   12    4:    6
           7       1:   12    7:   12    7:    9
           8       1:   12    7:   12   10:   12

InitMesh: MESH =    24 x    24 x    24 =       13824
InitMesh: (bp) =    12 x    12 x    12 =        1728
InitMesh: Mesh cutoff (required, used) =    50.000    63.494 Ry
ExtMesh (bp) on 0 =    56 x    50 x    47 =      131600
New grid distribution:   2
           1       6:   12    1:    6    1:    6
           2       7:   12    7:   12    1:    6
           3       1:    6    1:    6    7:   12
           4       1:    5    1:    6    1:    6
           5       7:   12    1:    6    7:   12
           6       1:    6    7:   12    1:    6
           7       1:    7    7:   12    7:   12
           8       8:   12    7:   12    7:   12
New grid distribution:   3
           1       1:    6    7:   12    7:   12
           2       7:   12    1:    6    1:    6
           3       7:   12    1:    6    7:   12
           4       7:   12    7:   12    1:    6
           5       1:    6    1:    6    7:   12
           6       1:    6    1:    6    1:    6
           7       7:   12    7:   12    7:   12
           8       1:    6    7:   12    1:    6
Setting up quadratic distribution...
ExtMesh (bp) on 0 =    51 x    50 x    50 =      127500
PhiOnMesh: Number of (b)points on node 0 =                  252
PhiOnMesh: nlist on node 0 =                 5554

   scf: iscf   Eharris(eV)      E_KS(eV)   FreeEng(eV)    dDmax  Ef(eV)
   scf:    1    -2955.7750    -2955.7383    -2955.7383  0.00168 -3.1188
   scf:    2    -2955.7752    -2955.7749    -2955.7749  0.00319 -3.1109
   scf:    3    -2955.7751    -2955.7749    -2955.7749  0.00211 -3.1122
   scf:    4    -2955.7750    -2955.7749    -2955.7749  0.00056 -3.1150

SCF Convergence by dMax criterion
max |DM_out - DM_in|:     0.00055882
SCF cycle converged after    4 iterations

Using DM_out to compute the final energy and forces

siesta: E_KS(eV) =            -2955.7750

siesta: Atomic forces (eV/Ang):
     1   -0.000000    0.000000    0.000000
     2    0.000000    0.000000   -0.000000
     3    0.000439   -0.001584    0.000922
     4   -0.000440    0.001587   -0.000922
     5    3.122525   -6.983643   -0.000159
     6   -0.000024    4.191131   -6.402094
     7   -3.123036    2.794439    6.401132
     8   -3.122524    6.983642    0.000159
     9    0.000024   -4.191132    6.402094
    10    3.123037   -2.794439   -6.401132
----------------------------------------
   Tot   -0.000000    0.000000   -0.000000
----------------------------------------
   Max    6.983643
   Res    3.421603    sqrt( Sum f_i^2 / 3N )
----------------------------------------
   Max    6.983643    constrained

Stress-tensor-Voigt (kbar):      170.38     -244.08     -303.32      231.61       67.82      151.64
(Free)E + p*V (eV/cell)    -2948.4618
Target enthalpy (eV/cell)    -2949.9556

siesta: Stress tensor (static) (eV/Ang**3):
         0.106749    0.143923    0.094226
         0.143924   -0.150801    0.042143
         0.094227    0.042144   -0.187611

siesta: Pressure (static):        123.72255960  kBar

siesta: Stress tensor (total) (eV/Ang**3):
         0.106344    0.144557    0.094641
         0.144558   -0.152341    0.042329
         0.094643    0.042330   -0.189313

siesta: Pressure (total):        125.67051850  kBar

siesta: E_kin PR =     184.026 K

siesta: Temp_ion =     226.071 K

                     ====================================
                        Begin MD step =      7
                     ====================================

outcoor: Atomic coordinates (fractional):                   
    0.00000000   -0.00000000   -0.00000000   1       1  Mg
    0.50000000    0.50000000    0.50000000   1       2  Mg
    0.24999997    0.25000006    0.24999997   2       3  C
   -0.24999997   -0.25000006   -0.24999997   2       4  C
    0.52909903   -0.02909904    0.25000000   3       5  O
    0.25000000    0.52909899   -0.02909900   3       6  O
   -0.02909901    0.24999999    0.52909902   3       7  O
   -0.52909903    0.02909904   -0.25000000   3       8  O
   -0.25000000   -0.52909899    0.02909900   3       9  O
    0.02909901   -0.24999999   -0.52909902   3      10  O

outcell: Unit cell vectors (Ang):
        5.678018   -0.001417   -0.000927
        3.785079    4.232383   -0.000927
        3.785079    1.692315    3.879322

outcell: Cell vector modules (Ang)   :    5.678018    5.678018    5.678018
outcell: Cell angles (23,13,12) (deg):     48.2076     48.2076     48.2076
outcell: Cell volume (Ang**3)        :     93.2648
Gamma-point calculation with interaction between periodic images
Some features might not work optimally:
e.g. DM initialization from atomic data
New_DM. Step:     7
Re-using DM from previous geometry...
Extrapolating Density Matrix...
Density Matrix sparsity pattern changed.
New grid distribution:   1
           1       1:   12    1:    6    1:    3
           2       1:   12    1:    6    4:    6
           3       1:   12    1:    6    7:    9
           4       1:   12    1:    6   10:   12
           5       1:   12    7:   12    1:    3
           6       1:   12    7:   12    4:    6
           7       1:   12    7:   12    7:    9
           8       1:   12    7:   12   10:   12

InitMesh: MESH =    24 x    24 x    24 =       13824
InitMesh: (bp) =    12 x    12 x    12 =        1728
InitMesh: Mesh cutoff (required, used) =    50.000    63.498 Ry
ExtMesh (bp) on 0 =    56 x    50 x    47 =      131600
New grid distribution:   2
           1       6:   12    1:    6    1:    6
           2       7:   12    7:   12    1:    6
           3       1:    6    1:    6    7:   12
           4       1:    5    1:    6    1:    6
           5       7:   12    1:    6    7:   12
           6       1:    6    7:   12    1:    6
           7       1:    7    7:   12    7:   12
           8       8:   12    7:   12    7:   12
New grid distribution:   3
           1       1:    6    7:   12    7:   12
           2       7:   12    1:    6    1:    6
           3       7:   12    1:    6    7:   12
           4       7:   12    7:   12    1:    6
           5       1:    6    1:    6    7:   12
           6       1:    6    1:    6    1:    6
           7       7:   12    7:   12    7:   12
           8       1:    6    7:   12    1:    6
Setting up quadratic distribution...
ExtMesh (bp) on 0 =    51 x    50 x    50 =      127500
PhiOnMesh: Number of (b)points on node 0 =                  252
PhiOnMesh: nlist on node 0 =                 5553

   scf: iscf   Eharris(eV)      E_KS(eV)   FreeEng(eV)    dDmax  Ef(eV)
   scf:    1    -2955.8905    -2955.8557    -2955.8557  0.00136 -3.1659
   scf:    2    -2955.8906    -2955.8904    -2955.8904  0.00303 -3.1592
   scf:    3    -2955.8905    -2955.8904    -2955.8904  0.00201 -3.1603
   scf:    4    -2955.8904    -2955.8904    -2955.8904  0.00045 -3.1625

SCF Convergence by dMax criterion
max |DM_out - DM_in|:     0.00044663
SCF cycle converged after    4 iterations

Using DM_out to compute the final energy and forces

siesta: E_KS(eV) =            -2955.8904

siesta: Atomic forces (eV/Ang):
     1    0.000000   -0.000000   -0.000000
     2   -0.000000   -0.000000    0.000000
     3   -0.000333    0.001180   -0.000664
     4    0.000334   -0.001182    0.000664
     5    3.055808   -6.834917    0.000117
     6    0.000019    4.099633   -6.262936
     7   -3.055415    2.733824    6.263640
     8   -3.055809    6.834917   -0.000117
     9   -0.000019   -4.099632    6.262936
    10    3.055414   -2.733823   -6.263639
----------------------------------------
   Tot   -0.000000   -0.000000   -0.000000
----------------------------------------
   Max    6.834917
   Res    3.347914    sqrt( Sum f_i^2 / 3N )
----------------------------------------
   Max    6.834917    constrained

Stress-tensor-Voigt (kbar):      170.66     -239.15     -297.61      229.00       67.00      149.89
(Free)E + p*V (eV/cell)    -2948.7869
Target enthalpy (eV/cell)    -2950.0694

siesta: Stress tensor (static) (eV/Ang**3):
         0.107141    0.141956    0.092917
         0.141955   -0.146896    0.041532
         0.092916    0.041532   -0.183140

siesta: Pressure (static):        119.04040746  kBar

siesta: Stress tensor (total) (eV/Ang**3):
         0.106519    0.142930    0.093555
         0.142929   -0.149261    0.041818
         0.093553    0.041817   -0.185753

siesta: Pressure (total):        122.03158228  kBar

siesta: E_kin PR =     249.308 K

siesta: Temp_ion =     318.773 K

                     ====================================
                        Begin MD step =      8
                     ====================================

outcoor: Atomic coordinates (fractional):                   
    0.00000000   -0.00000000   -0.00000000   1       1  Mg
    0.50000000    0.50000000    0.50000000   1       2  Mg
    0.24999995    0.25000009    0.24999996   2       3  C
   -0.24999995   -0.25000009   -0.24999996   2       4  C
    0.52969890   -0.02969891    0.25000001   3       5  O
    0.25000001    0.52969884   -0.02969885   3       6  O
   -0.02969887    0.24999999    0.52969889   3       7  O
   -0.52969890    0.02969891   -0.25000001   3       8  O
   -0.25000001   -0.52969884    0.02969885   3       9  O
    0.02969887   -0.24999999   -0.52969889   3      10  O

outcell: Unit cell vectors (Ang):
        5.678073   -0.001875   -0.001228
        3.784773    4.232730   -0.001228
        3.784773    1.692179    3.879760

outcell: Cell vector modules (Ang)   :    5.678073    5.678073    5.678073
outcell: Cell angles (23,13,12) (deg):     48.2168     48.2168     48.2168
outcell: Cell volume (Ang**3)        :     93.2963
Gamma-point calculation with interaction between periodic images
Some features might not work optimally:
e.g. DM initialization from atomic data
New_DM. Step:     8
Re-using DM from previous geometry...
Extrapolating Density Matrix...
New grid distribution:   1
           1       1:   12    1:    6    1:    3
           2       1:   12    1:    6    4:    6
           3       1:   12    1:    6    7:    9
           4       1:   12    1:    6   10:   12
           5       1:   12    7:   12    1:    3
           6       1:   12    7:   12    4:    6
           7       1:   12    7:   12    7:    9
           8       1:   12    7:   12   10:   12

InitMesh: MESH =    24 x    24 x    24 =       13824
InitMesh: (bp) =    12 x    12 x    12 =        1728
InitMesh: Mesh cutoff (required, used) =    50.000    63.504 Ry
ExtMesh (bp) on 0 =    56 x    50 x    47 =      131600
New grid distribution:   2
           1       6:   12    1:    6    1:    6
           2       7:   12    7:   12    1:    6
           3       1:    6    1:    6    7:   12
           4       1:    5    1:    6    1:    6
           5       7:   12    1:    6    7:   12
           6       1:    6    7:   12    1:    6
           7       1:    7    7:   12    7:   12
           8       8:   12    7:   12    7:   12
New grid distribution:   3
           1       1:    6    7:   12    7:   12
           2       7:   12    1:    6    1:    6
           3       7:   12    1:    6    7:   12
           4       7:   12    7:   12    1:    6
           5       1:    6    1:    6    7:   12
           6       1:    6    1:    6    1:    6
           7       7:   12    7:   12    7:   12
           8       1:    6    7:   12    1:    6
Setting up quadratic distribution...
ExtMesh (bp) on 0 =    51 x    50 x    50 =      127500
PhiOnMesh: Number of (b)points on node 0 =                  252
PhiOnMesh: nlist on node 0 =                 5553

   scf: iscf   Eharris(eV)      E_KS(eV)   FreeEng(eV)    dDmax  Ef(eV)
   scf:    1    -2956.0219    -2955.9883    -2955.9883  0.00131 -3.2207
   scf:    2    -2956.0220    -2956.0218    -2956.0218  0.00218 -3.2147
   scf:    3    -2956.0219    -2956.0218    -2956.0218  0.00144 -3.2157
   scf:    4    -2956.0219    -2956.0218    -2956.0218  0.00039 -3.2176

SCF Convergence by dMax criterion
max |DM_out - DM_in|:     0.00038580
SCF cycle converged after    4 iterations

Using DM_out to compute the final energy and forces

siesta: E_KS(eV) =            -2956.0219

siesta: Atomic forces (eV/Ang):
     1   -0.000000    0.000000    0.000000
     2   -0.000000    0.000000   -0.000000
     3    0.000327   -0.001175    0.000678
     4   -0.000328    0.001176   -0.000678
     5    2.965598   -6.632736   -0.000113
     6   -0.000015    3.980274   -6.080085
     7   -2.965980    2.653892    6.079370
     8   -2.965598    6.632735    0.000113
     9    0.000015   -3.980274    6.080085
    10    2.965980   -2.653892   -6.079370
----------------------------------------
   Tot    0.000000   -0.000000   -0.000000
----------------------------------------
   Max    6.632736
   Res    3.249583    sqrt( Sum f_i^2 / 3N )
----------------------------------------
   Max    6.632736    constrained

Stress-tensor-Voigt (kbar):      171.91     -231.01     -288.58      225.16       65.92      147.41
(Free)E + p*V (eV/cell)    -2949.2734
Target enthalpy (eV/cell)    -2950.1988

siesta: Stress tensor (static) (eV/Ang**3):
         0.108176    0.139158    0.091104
         0.139159   -0.140849    0.040744
         0.091105    0.040744   -0.176432

siesta: Pressure (static):        111.67563477  kBar

siesta: Stress tensor (total) (eV/Ang**3):
         0.107299    0.140531    0.092002
         0.140532   -0.144182    0.041146
         0.092004    0.041146   -0.180117

siesta: Pressure (total):        115.89213934  kBar

siesta: E_kin PR =     322.365 K

siesta: Temp_ion =     424.366 K

                     ====================================
                        Begin MD step =      9
                     ====================================

outcoor: Atomic coordinates (fractional):                   
    0.00000000   -0.00000000   -0.00000000   1       1  Mg
    0.50000000    0.50000000    0.50000000   1       2  Mg
    0.24999995    0.25000009    0.24999996   2       3  C
   -0.24999995   -0.25000009   -0.24999996   2       4  C
    0.53038291   -0.03038292    0.25000001   3       5  O
    0.25000001    0.53038285   -0.03038286   3       6  O
   -0.03038288    0.24999999    0.53038289   3       7  O
   -0.53038291    0.03038292   -0.25000001   3       8  O
   -0.25000001   -0.53038285    0.03038286   3       9  O
    0.03038288   -0.24999999   -0.53038289   3      10  O

outcell: Unit cell vectors (Ang):
        5.678130   -0.002392   -0.001566
        3.784427    4.233118   -0.001566
        3.784427    1.692024    3.880250

outcell: Cell vector modules (Ang)   :    5.678131    5.678131    5.678131
outcell: Cell angles (23,13,12) (deg):     48.2273     48.2273     48.2273
outcell: Cell volume (Ang**3)        :     93.3317
Gamma-point calculation with interaction between periodic images
Some features might not work optimally:
e.g. DM initialization from atomic data
New_DM. Step:     9
Re-using DM from previous geometry...
Extrapolating Density Matrix...
New grid distribution:   1
           1       1:   12    1:    6    1:    3
           2       1:   12    1:    6    4:    6
           3       1:   12    1:    6    7:    9
           4       1:   12    1:    6   10:   12
           5       1:   12    7:   12    1:    3
           6       1:   12    7:   12    4:    6
           7       1:   12    7:   12    7:    9
           8       1:   12    7:   12   10:   12

InitMesh: MESH =    24 x    24 x    24 =       13824
InitMesh: (bp) =    12 x    12 x    12 =        1728
InitMesh: Mesh cutoff (required, used) =    50.000    63.510 Ry
ExtMesh (bp) on 0 =    56 x    50 x    47 =      131600
New grid distribution:   2
           1       6:   12    1:    6    1:    6
           2       7:   12    7:   12    1:    6
           3       1:    6    1:    6    7:   12
           4       1:    5    1:    6    1:    6
           5       7:   12    1:    6    7:   12
           6       1:    6    7:   12    1:    6
           7       1:    7    7:   12    7:   12
           8       8:   12    7:   12    7:   12
New grid distribution:   3
           1       1:    6    7:   12    7:   12
           2       7:   12    1:    6    1:    6
           3       7:   12    1:    6    7:   12
           4       7:   12    7:   12    1:    6
           5       1:    6    1:    6    7:   12
           6       1:    6    1:    6    1:    6
           7       7:   12    7:   12    7:   12
           8       1:    6    7:   12    1:    6
Setting up quadratic distribution...
ExtMesh (bp) on 0 =    51 x    50 x    50 =      127500
PhiOnMesh: Number of (b)points on node 0 =                  252
PhiOnMesh: nlist on node 0 =                 5548

   scf: iscf   Eharris(eV)      E_KS(eV)   FreeEng(eV)    dDmax  Ef(eV)
   scf:    1    -2956.1632    -2956.1312    -2956.1312  0.00119 -3.2832
   scf:    2    -2956.1632    -2956.1631    -2956.1631  0.00224 -3.2776
   scf:    3    -2956.1632    -2956.1631    -2956.1631  0.00148 -3.2785
   scf:    4    -2956.1631    -2956.1631    -2956.1631  0.00036 -3.2802

SCF Convergence by dMax criterion
max |DM_out - DM_in|:     0.00035849
SCF cycle converged after    4 iterations

Using DM_out to compute the final energy and forces

siesta: E_KS(eV) =            -2956.1631

siesta: Atomic forces (eV/Ang):
     1    0.000000   -0.000000   -0.000000
     2   -0.000000   -0.000000    0.000000
     3   -0.000315    0.001120   -0.000637
     4    0.000316   -0.001122    0.000637
     5    2.784151   -6.227303    0.000108
     6    0.000016    3.735139   -5.706108
     7   -2.783777    2.490778    5.706787
     8   -2.784151    6.227304   -0.000108
     9   -0.000016   -3.735138    5.706108
    10    2.783777   -2.490777   -5.706786
----------------------------------------
   Tot   -0.000000   -0.000000    0.000000
----------------------------------------
   Max    6.227304
   Res    3.050274    sqrt( Sum f_i^2 / 3N )
----------------------------------------
   Max    6.227304    constrained

Stress-tensor-Voigt (kbar):      179.78     -200.06     -254.25      212.25       62.10      138.93
(Free)E + p*V (eV/cell)    -2950.8327
Target enthalpy (eV/cell)    -2950.3379

siesta: Stress tensor (static) (eV/Ang**3):
         0.113379    0.130651    0.085517
         0.130650   -0.120428    0.038224
         0.085516    0.038224   -0.153784

siesta: Pressure (static):         85.89531821  kBar

siesta: Stress tensor (total) (eV/Ang**3):
         0.112212    0.132478    0.086713
         0.132478   -0.124865    0.038759
         0.086712    0.038758   -0.158687

siesta: Pressure (total):         91.50667301  kBar

siesta: E_kin PR =     397.806 K

siesta: Temp_ion =     539.218 K

                     ====================================
                        Begin MD step =     10
                     ====================================

outcoor: Atomic coordinates (fractional):                   
    0.00000000   -0.00000000   -0.00000000   1       1  Mg
    0.50000000    0.50000000    0.50000000   1       2  Mg
    0.24999994    0.25000011    0.24999995   2       3  C
   -0.24999994   -0.25000011   -0.24999995   2       4  C
    0.53114582   -0.03114583    0.25000001   3       5  O
    0.25000001    0.53114574   -0.03114575   3       6  O
   -0.03114577    0.24999998    0.53114579   3       7  O
   -0.53114582    0.03114583   -0.25000001   3       8  O
   -0.25000001   -0.53114574    0.03114575   3       9  O
    0.03114577   -0.24999998   -0.53114579   3      10  O

outcell: Unit cell vectors (Ang):
        5.678187   -0.002960   -0.001938
        3.784041    4.233538   -0.001938
        3.784041    1.691851    3.880784

outcell: Cell vector modules (Ang)   :    5.678188    5.678188    5.678188
outcell: Cell angles (23,13,12) (deg):     48.2387     48.2387     48.2387
outcell: Cell volume (Ang**3)        :     93.3702
Gamma-point calculation with interaction between periodic images
Some features might not work optimally:
e.g. DM initialization from atomic data
New_DM. Step:    10
Re-using DM from previous geometry...
Extrapolating Density Matrix...
New grid distribution:   1
           1       1:   12    1:    6    1:    3
           2       1:   12    1:    6    4:    6
           3       1:   12    1:    6    7:    9
           4       1:   12    1:    6   10:   12
           5       1:   12    7:   12    1:    3
           6       1:   12    7:   12    4:    6
           7       1:   12    7:   12    7:    9
           8       1:   12    7:   12   10:   12

InitMesh: MESH =    24 x    24 x    24 =       13824
InitMesh: (bp) =    12 x    12 x    12 =        1728
InitMesh: Mesh cutoff (required, used) =    50.000    63.517 Ry
ExtMesh (bp) on 0 =    56 x    50 x    47 =      131600
New grid distribution:   2
           1       6:   12    1:    6    1:    6
           2       7:   12    7:   12    1:    6
           3       1:    6    1:    6    7:   12
           4       1:    5    1:    6    1:    6
           5       7:   12    1:    6    7:   12
           6       1:    6    7:   12    1:    6
           7       1:    7    7:   12    7:   12
           8       8:   12    7:   12    7:   12
New grid distribution:   3
           1       1:    6    7:   12    7:   12
           2       7:   12    1:    6    1:    6
           3       7:   12    1:    6    7:   12
           4       7:   12    7:   12    1:    6
           5       1:    6    1:    6    7:   12
           6       1:    6    1:    6    1:    6
           7       7:   12    7:   12    7:   12
           8       1:    6    7:   12    1:    6
Setting up quadratic distribution...
ExtMesh (bp) on 0 =    51 x    50 x    50 =      127500
PhiOnMesh: Number of (b)points on node 0 =                  252
PhiOnMesh: nlist on node 0 =                 5546

   scf: iscf   Eharris(eV)      E_KS(eV)   FreeEng(eV)    dDmax  Ef(eV)
   scf:    1    -2956.3136    -2956.2845    -2956.2845  0.00120 -3.3522
   scf:    2    -2956.3137    -2956.3136    -2956.3136  0.00197 -3.3465
   scf:    3    -2956.3136    -2956.3136    -2956.3136  0.00129 -3.3474
   scf:    4    -2956.3136    -2956.3136    -2956.3136  0.00036 -3.3492

SCF Convergence by dMax criterion
max |DM_out - DM_in|:     0.00036133
SCF cycle converged after    4 iterations

Using DM_out to compute the final energy and forces

siesta: E_KS(eV) =            -2956.3136

siesta: Atomic forces (eV/Ang):
     1   -0.000000    0.000000    0.000000
     2   -0.000000    0.000000   -0.000000
     3    0.000337   -0.001208    0.000694
     4   -0.000338    0.001209   -0.000694
     5    2.674028   -5.980602   -0.000109
     6   -0.000016    3.589060   -5.482460
     7   -2.674422    2.393015    5.481721
     8   -2.674027    5.980601    0.000110
     9    0.000016   -3.589060    5.482460
    10    2.674422   -2.393015   -5.481722
----------------------------------------
   Tot    0.000000   -0.000000    0.000000
----------------------------------------
   Max    5.980602
   Res    2.930132    sqrt( Sum f_i^2 / 3N )
----------------------------------------
   Max    5.980602    constrained

Stress-tensor-Voigt (kbar):      181.46     -190.15     -243.25      207.66       60.80      135.95
(Free)E + p*V (eV/cell)    -2951.4197
Target enthalpy (eV/cell)    -2950.4860

siesta: Stress tensor (static) (eV/Ang**3):
         0.114742    0.127289    0.083335
         0.127290   -0.113043    0.037271
         0.083336    0.037271   -0.145596

siesta: Pressure (static):         76.84981342  kBar

siesta: Stress tensor (total) (eV/Ang**3):
         0.113260    0.129610    0.084854
         0.129611   -0.118678    0.037950
         0.084855    0.037950   -0.151824

siesta: Pressure (total):         83.97717837  kBar

siesta: E_kin PR =     473.239 K

siesta: Temp_ion =     660.890 K

                     ====================================
                        Begin MD step =     11
                     ====================================

outcoor: Atomic coordinates (fractional):                   
    0.00000000   -0.00000000   -0.00000000   1       1  Mg
    0.50000000    0.50000000    0.50000000   1       2  Mg
    0.24999994    0.25000011    0.24999995   2       3  C
   -0.24999994   -0.25000011   -0.24999995   2       4  C
    0.53198440   -0.03198441    0.25000001   3       5  O
    0.25000001    0.53198433   -0.03198434   3       6  O
   -0.03198435    0.24999998    0.53198438   3       7  O
   -0.53198440    0.03198441   -0.25000001   3       8  O
   -0.25000001   -0.53198433    0.03198434   3       9  O
    0.03198435   -0.24999998   -0.53198438   3      10  O

outcell: Unit cell vectors (Ang):
        5.678240   -0.003576   -0.002341
        3.783618    4.233989   -0.002341
        3.783618    1.691662    3.881359

outcell: Cell vector modules (Ang)   :    5.678242    5.678242    5.678242
outcell: Cell angles (23,13,12) (deg):     48.2512     48.2512     48.2512
outcell: Cell volume (Ang**3)        :     93.4117
Gamma-point calculation with interaction between periodic images
Some features might not work optimally:
e.g. DM initialization from atomic data
New_DM. Step:    11
Re-using DM from previous geometry...
Extrapolating Density Matrix...
New grid distribution:   1
           1       1:   12    1:    6    1:    3
           2       1:   12    1:    6    4:    6
           3       1:   12    1:    6    7:    9
           4       1:   12    1:    6   10:   12
           5       1:   12    7:   12    1:    3
           6       1:   12    7:   12    4:    6
           7       1:   12    7:   12    7:    9
           8       1:   12    7:   12   10:   12

InitMesh: MESH =    24 x    24 x    24 =       13824
InitMesh: (bp) =    12 x    12 x    12 =        1728
InitMesh: Mesh cutoff (required, used) =    50.000    63.524 Ry
ExtMesh (bp) on 0 =    56 x    50 x    47 =      131600
New grid distribution:   2
           1       6:   12    1:    6    1:    6
           2       7:   12    7:   12    1:    6
           3       1:    6    1:    6    7:   12
           4       1:    5    1:    6    1:    6
           5       7:   12    1:    6    7:   12
           6       1:    6    7:   12    1:    6
           7       1:    7    7:   12    7:   12
           8       8:   12    7:   12    7:   12
New grid distribution:   3
           1       1:    6    7:   12    7:   12
           2       7:   12    1:    6    1:    6
           3       7:   12    1:    6    7:   12
           4       7:   12    7:   12    1:    6
           5       1:    6    1:    6    7:   12
           6       1:    6    1:    6    1:    6
           7       7:   12    7:   12    7:   12
           8       1:    6    7:   12    1:    6
Setting up quadratic distribution...
ExtMesh (bp) on 0 =    51 x    50 x    50 =      127500
PhiOnMesh: Number of (b)points on node 0 =                  252
PhiOnMesh: nlist on node 0 =                 5549

   scf: iscf   Eharris(eV)      E_KS(eV)   FreeEng(eV)    dDmax  Ef(eV)
   scf:    1    -2956.4719    -2956.4446    -2956.4446  0.00119 -3.4271
   scf:    2    -2956.4719    -2956.4718    -2956.4718  0.00231 -3.4214
   scf:    3    -2956.4719    -2956.4718    -2956.4718  0.00152 -3.4223
   scf:    4    -2956.4718    -2956.4718    -2956.4718  0.00037 -3.4241

SCF Convergence by dMax criterion
max |DM_out - DM_in|:     0.00036682
SCF cycle converged after    4 iterations

Using DM_out to compute the final energy and forces

siesta: E_KS(eV) =            -2956.4718

siesta: Atomic forces (eV/Ang):
     1    0.000000   -0.000000   -0.000000
     2   -0.000000   -0.000000    0.000000
     3   -0.000323    0.001152   -0.000655
     4    0.000324   -0.001154    0.000655
     5    2.554082   -5.712729    0.000108
     6    0.000015    3.426383   -5.234448
     7   -2.553695    2.284910    5.235154
     8   -2.554083    5.712729   -0.000108
     9   -0.000015   -3.426383    5.234448
    10    2.553695   -2.284910   -5.235153
----------------------------------------
   Tot   -0.000000   -0.000000   -0.000000
----------------------------------------
   Max    5.712729
   Res    2.798180    sqrt( Sum f_i^2 / 3N )
----------------------------------------
   Max    5.712729    constrained

Stress-tensor-Voigt (kbar):      182.96     -179.62     -231.35      202.61       59.27      132.61
(Free)E + p*V (eV/cell)    -2952.0406
Target enthalpy (eV/cell)    -2950.6416

siesta: Stress tensor (static) (eV/Ang**3):
         0.116006    0.123614    0.080910
         0.123613   -0.105207    0.036164
         0.080909    0.036163   -0.136763

siesta: Pressure (static):         67.27319995  kBar

siesta: Stress tensor (total) (eV/Ang**3):
         0.114190    0.126457    0.082771
         0.126456   -0.112111    0.036996
         0.082770    0.036995   -0.144394

siesta: Pressure (total):         76.00527555  kBar

siesta: E_kin PR =     550.946 K

siesta: Temp_ion =     788.957 K

                     ====================================
                        Begin MD step =     12
                     ====================================

outcoor: Atomic coordinates (fractional):                   
    0.00000000   -0.00000000   -0.00000000   1       1  Mg
    0.50000000    0.50000000    0.50000000   1       2  Mg
    0.24999993    0.25000013    0.24999994   2       3  C
   -0.24999993   -0.25000013   -0.24999994   2       4  C
    0.53289517   -0.03289518    0.25000001   3       5  O
    0.25000001    0.53289508   -0.03289509   3       6  O
   -0.03289511    0.24999998    0.53289514   3       7  O
   -0.53289517    0.03289518   -0.25000001   3       8  O
   -0.25000001   -0.53289508    0.03289509   3       9  O
    0.03289511   -0.24999998   -0.53289514   3      10  O

outcell: Unit cell vectors (Ang):
        5.678290   -0.004238   -0.002774
        3.783157    4.234467   -0.002774
        3.783157    1.691456    3.881971

outcell: Cell vector modules (Ang)   :    5.678292    5.678292    5.678292
outcell: Cell angles (23,13,12) (deg):     48.2645     48.2645     48.2645
outcell: Cell volume (Ang**3)        :     93.4558
Gamma-point calculation with interaction between periodic images
Some features might not work optimally:
e.g. DM initialization from atomic data
New_DM. Step:    12
Re-using DM from previous geometry...
Extrapolating Density Matrix...
New grid distribution:   1
           1       1:   12    1:    6    1:    3
           2       1:   12    1:    6    4:    6
           3       1:   12    1:    6    7:    9
           4       1:   12    1:    6   10:   12
           5       1:   12    7:   12    1:    3
           6       1:   12    7:   12    4:    6
           7       1:   12    7:   12    7:    9
           8       1:   12    7:   12   10:   12

InitMesh: MESH =    24 x    24 x    24 =       13824
InitMesh: (bp) =    12 x    12 x    12 =        1728
InitMesh: Mesh cutoff (required, used) =    50.000    63.533 Ry
ExtMesh (bp) on 0 =    56 x    50 x    47 =      131600
New grid distribution:   2
           1       6:   12    1:    6    1:    6
           2       7:   12    7:   12    1:    6
           3       1:    6    1:    6    7:   12
           4       1:    5    1:    6    1:    6
           5       7:   12    1:    6    7:   12
[...]
Setting up quadratic distribution...
ExtMesh (bp) on 0 =    50 x    50 x    50 =      125000
PhiOnMesh: Number of (b)points on node 0 =                  216
PhiOnMesh: nlist on node 0 =                 4700

   scf: iscf   Eharris(eV)      E_KS(eV)   FreeEng(eV)    dDmax  Ef(eV)
   scf:    1    -2956.4776    -2956.4902    -2956.4902  0.00072 -4.0529

SCF Convergence by dMax criterion
max |DM_out - DM_in|:     0.00071601
SCF cycle converged after    1 iterations

Using DM_out to compute the final energy and forces

siesta: E_KS(eV) =            -2956.4776

siesta: Atomic forces (eV/Ang):
     1    0.002766   -0.000503   -0.003547
     2   -0.001338   -0.002621    0.003438
     3    0.003216   -0.007076   -0.000177
     4    0.002268   -0.004922   -0.000231
     5   -1.472638    3.293777   -0.000064
     6    0.000012   -1.970617    3.012708
     7    1.468388   -1.313829   -3.012416
     8    1.470647   -3.289462    0.000121
     9    0.000071    1.977579   -3.019365
    10   -1.473799    1.318564    3.019564
----------------------------------------
   Tot   -0.000406    0.000889    0.000032
----------------------------------------
   Max    3.293777
   Res    1.612179    sqrt( Sum f_i^2 / 3N )
----------------------------------------
   Max    3.293777    constrained

Stress-tensor-Voigt (kbar):      223.97      265.39      271.27      -23.15       -6.77      -15.14
(Free)E + p*V (eV/cell)    -2971.3601
Target enthalpy (eV/cell)    -2950.6078

siesta: Stress tensor (static) (eV/Ang**3):
         0.141752   -0.017526   -0.011462
        -0.017526    0.173113   -0.005129
        -0.011461   -0.005129    0.177567

siesta: Pressure (static):       -262.99052444  kBar

siesta: Stress tensor (total) (eV/Ang**3):
         0.139787   -0.014450   -0.009448
        -0.014450    0.165643   -0.004228
        -0.009448   -0.004228    0.169309

siesta: Pressure (total):       -253.54121828  kBar

siesta: E_kin PR =    2012.307 K

siesta: Temp_ion =     651.367 K

                     ====================================
                        Begin MD step =     48
                     ====================================

outcoor: Atomic coordinates (fractional):                   
    0.00000001    0.00000001   -0.00000003   1       1  Mg
    0.50000001    0.49999998    0.50000002   1       2  Mg
    0.24999545    0.25000661    0.24999794   2       3  C
   -0.24999532   -0.25000668   -0.24999799   2       4  C
    0.57530685   -0.07530723    0.25000026   3       5  O
    0.25000050    0.57530566   -0.07530639   3       6  O
   -0.07530444    0.24999924    0.57530554   3       7  O
   -0.57530696    0.07530732   -0.25000025   3       8  O
   -0.25000051   -0.57530569    0.07530644   3       9  O
    0.07530443   -0.24999923   -0.57530554   3      10  O

outcell: Unit cell vectors (Ang):
        5.659024   -0.027496   -0.017997
        3.752979    4.235620   -0.017998
        3.752983    1.677964    3.889117

outcell: Cell vector modules (Ang)   :    5.659119    5.659121    5.659123
outcell: Cell angles (23,13,12) (deg):     48.7355     48.7355     48.7355
outcell: Cell volume (Ang**3)        :     93.9669
Gamma-point calculation with interaction between periodic images
Some features might not work optimally:
e.g. DM initialization from atomic data
New_DM. Step:    48
Re-using DM from previous geometry...
Extrapolating Density Matrix...
New grid distribution:   1
           1       1:   12    1:    6    1:    3
           2       1:   12    1:    6    4:    6
           3       1:   12    1:    6    7:    9
           4       1:   12    1:    6   10:   12
           5       1:   12    7:   12    1:    3
           6       1:   12    7:   12    4:    6
           7       1:   12    7:   12    7:    9
           8       1:   12    7:   12   10:   12

InitMesh: MESH =    24 x    24 x    24 =       13824
InitMesh: (bp) =    12 x    12 x    12 =        1728
InitMesh: Mesh cutoff (required, used) =    50.000    64.303 Ry
ExtMesh (bp) on 0 =    56 x    50 x    47 =      131600
New grid distribution:   2
           1       1:    6    7:   12    7:   12
           2       7:   12    1:    6    1:    6
           3       7:   12    1:    6    7:   12
           4       7:   12    7:   12    1:    6
           5       1:    6    1:    6    7:   12
           6       1:    6    1:    6    1:    6
           7       7:   12    7:   12    7:   12
           8       1:    6    7:   12    1:    6
New grid distribution:   3
           1       1:    6    7:   12    7:   12
           2       7:   12    1:    6    1:    6
           3       7:   12    1:    6    7:   12
           4       7:   12    7:   12    1:    6
           5       1:    6    1:    6    7:   12
           6       1:    6    1:    6    1:    6
           7       7:   12    7:   12    7:   12
           8       1:    6    7:   12    1:    6
Setting up quadratic distribution...
ExtMesh (bp) on 0 =    50 x    50 x    50 =      125000
PhiOnMesh: Number of (b)points on node 0 =                  216
PhiOnMesh: nlist on node 0 =                 4701

   scf: iscf   Eharris(eV)      E_KS(eV)   FreeEng(eV)    dDmax  Ef(eV)
   scf:    1    -2956.4124    -2956.4246    -2956.4246  0.00408 -4.0176
   scf:    2    -2956.4152    -2956.4114    -2956.4114  0.01607 -4.0192
   scf:    3    -2956.4130    -2956.4117    -2956.4117  0.00806 -4.0187
   scf:    4    -2956.4122    -2956.4118    -2956.4118  0.00110 -4.0182
   scf:    5    -2956.4122    -2956.4119    -2956.4119  0.00015 -4.0180

SCF Convergence by dMax criterion
max |DM_out - DM_in|:     0.00015263
SCF cycle converged after    5 iterations

Using DM_out to compute the final energy and forces

siesta: E_KS(eV) =            -2956.4122

siesta: Atomic forces (eV/Ang):
     1    0.000273    0.000207    0.000302
     2   -0.000345   -0.000051   -0.000295
     3    0.000144   -0.000452    0.000194
     4   -0.000428    0.001062   -0.000163
     5   -1.503708    3.363377   -0.000111
     6   -0.000034   -2.017592    3.082318
     7    1.503590   -1.345264   -3.082478
     8    1.504507   -3.365153    0.000108
     9    0.000028    2.018176   -3.083414
    10   -1.504009    1.345645    3.083539
----------------------------------------
   Tot    0.000020   -0.000045   -0.000001
----------------------------------------
   Max    3.365153
   Res    1.647890    sqrt( Sum f_i^2 / 3N )
----------------------------------------
   Max    3.365153    constrained

Stress-tensor-Voigt (kbar):      222.67      267.91      274.35      -25.28       -7.40      -16.55
(Free)E + p*V (eV/cell)    -2971.3663
Target enthalpy (eV/cell)    -2950.5473

siesta: Stress tensor (static) (eV/Ang**3):
         0.140754   -0.018562   -0.012149
        -0.018562    0.173970   -0.005432
        -0.012149   -0.005432    0.178703

siesta: Pressure (static):       -263.52180377  kBar

siesta: Stress tensor (total) (eV/Ang**3):
         0.138977   -0.015780   -0.010328
        -0.015780    0.167214   -0.004616
        -0.010327   -0.004616    0.171234

siesta: Pressure (total):       -254.97574364  kBar

siesta: E_kin PR =    2217.368 K

siesta: Temp_ion =     584.212 K

                     ====================================
                        Begin MD step =     49
                     ====================================

outcoor: Atomic coordinates (fractional):                   
    0.00000004    0.00000002   -0.00000005   1       1  Mg
    0.50000000    0.49999995    0.50000004   1       2  Mg
    0.24999546    0.25000660    0.24999793   2       3  C
   -0.24999516   -0.25000684   -0.24999800   2       4  C
    0.57603387   -0.07603423    0.25000026   3       5  O
    0.25000050    0.57603299   -0.07603372   3       6  O
   -0.07603154    0.24999924    0.57603264   3       7  O
   -0.57603404    0.07603439   -0.25000025   3       8  O
   -0.25000053   -0.57603293    0.07603371   3       9  O
    0.07603143   -0.24999922   -0.57603257   3      10  O

outcell: Unit cell vectors (Ang):
        5.657460   -0.027347   -0.017900
        3.752047    4.234356   -0.017901
        3.752051    1.677547    3.887919

outcell: Cell vector modules (Ang)   :    5.657554    5.657557    5.657558
outcell: Cell angles (23,13,12) (deg):     48.7326     48.7326     48.7327
outcell: Cell volume (Ang**3)        :     93.8802
Gamma-point calculation with interaction between periodic images
Some features might not work optimally:
e.g. DM initialization from atomic data
New_DM. Step:    49
Re-using DM from previous geometry...
Extrapolating Density Matrix...
New grid distribution:   1
           1       1:   12    1:    6    1:    3
           2       1:   12    1:    6    4:    6
           3       1:   12    1:    6    7:    9
           4       1:   12    1:    6   10:   12
           5       1:   12    7:   12    1:    3
           6       1:   12    7:   12    4:    6
           7       1:   12    7:   12    7:    9
           8       1:   12    7:   12   10:   12

InitMesh: MESH =    24 x    24 x    24 =       13824
InitMesh: (bp) =    12 x    12 x    12 =        1728
InitMesh: Mesh cutoff (required, used) =    50.000    64.337 Ry
ExtMesh (bp) on 0 =    56 x    50 x    47 =      131600
New grid distribution:   2
           1       1:    6    7:   12    7:   12
           2       7:   12    1:    6    1:    6
           3       7:   12    1:    6    7:   12
           4       7:   12    7:   12    1:    6
           5       1:    6    1:    6    7:   12
           6       1:    6    1:    6    1:    6
           7       7:   12    7:   12    7:   12
           8       1:    6    7:   12    1:    6
New grid distribution:   3
           1       1:    6    7:   12    7:   12
           2       7:   12    1:    6    1:    6
           3       7:   12    1:    6    7:   12
           4       7:   12    7:   12    1:    6
           5       1:    6    1:    6    7:   12
           6       1:    6    1:    6    1:    6
           7       7:   12    7:   12    7:   12
           8       1:    6    7:   12    1:    6
Setting up quadratic distribution...
ExtMesh (bp) on 0 =    50 x    50 x    50 =      125000
PhiOnMesh: Number of (b)points on node 0 =                  216
PhiOnMesh: nlist on node 0 =                 4709

   scf: iscf   Eharris(eV)      E_KS(eV)   FreeEng(eV)    dDmax  Ef(eV)
   scf:    1    -2956.3508    -2956.3632    -2956.3632  0.00224 -3.9853
   scf:    2    -2956.3516    -2956.3505    -2956.3505  0.00852 -3.9822
   scf:    3    -2956.3510    -2956.3506    -2956.3506  0.00438 -3.9831
   scf:    4    -2956.3507    -2956.3506    -2956.3506  0.00072 -3.9843

SCF Convergence by dMax criterion
max |DM_out - DM_in|:     0.00071572
SCF cycle converged after    4 iterations

Using DM_out to compute the final energy and forces

siesta: E_KS(eV) =            -2956.3507

siesta: Atomic forces (eV/Ang):
     1   -0.000338   -0.000379   -0.000679
     2    0.000529   -0.000036    0.000661
     3    0.000554   -0.001324    0.000129
     4    0.000149   -0.000213   -0.000189
     5   -1.532661    3.428120   -0.000109
     6   -0.000022   -2.055748    3.140937
     7    1.531980   -1.370682   -3.141012
     8    1.531243   -3.424965    0.000118
     9    0.000035    2.055078   -3.139408
    10   -1.531515    1.370249    3.139554
----------------------------------------
   Tot   -0.000045    0.000100    0.000003
----------------------------------------
   Max    3.428120
   Res    1.678477    sqrt( Sum f_i^2 / 3N )
----------------------------------------
   Max    3.428120    constrained

Stress-tensor-Voigt (kbar):      221.26      269.93      276.87      -27.20       -7.96      -17.81
(Free)E + p*V (eV/cell)    -2971.3522
Target enthalpy (eV/cell)    -2950.4912

siesta: Stress tensor (static) (eV/Ang**3):
         0.139694   -0.019472   -0.012749
        -0.019472    0.174539   -0.005701
        -0.012749   -0.005701    0.179514

siesta: Pressure (static):       -263.69271280  kBar

siesta: Stress tensor (total) (eV/Ang**3):
         0.138099   -0.016975   -0.011114
        -0.016975    0.168474   -0.004969
        -0.011115   -0.004969    0.172809

siesta: Pressure (total):       -256.02124157  kBar

siesta: E_kin PR =    2443.724 K

siesta: Temp_ion =     519.471 K

                     ====================================
                        Begin MD step =     50
                     ====================================

outcoor: Atomic coordinates (fractional):                   
    0.00000006    0.00000002   -0.00000009   1       1  Mg
    0.50000000    0.49999992    0.50000008   1       2  Mg
    0.24999549    0.25000657    0.24999793   2       3  C
   -0.24999499   -0.25000700   -0.24999801   2       4  C
    0.57671803   -0.07671839    0.25000025   3       5  O
    0.25000050    0.57671748   -0.07671822   3       6  O
   -0.07671581    0.24999925    0.57671691   3       7  O
   -0.57671830    0.07671865   -0.25000024   3       8  O
   -0.25000055   -0.57671735    0.07671817   3       9  O
    0.07671562   -0.24999921   -0.57671679   3      10  O

outcell: Unit cell vectors (Ang):
        5.655828   -0.027131   -0.017759
        3.751120    4.232996   -0.017760
        3.751124    1.677133    3.886616

outcell: Cell vector modules (Ang)   :    5.655921    5.655923    5.655925
outcell: Cell angles (23,13,12) (deg):     48.7284     48.7284     48.7285
outcell: Cell volume (Ang**3)        :     93.7859
Gamma-point calculation with interaction between periodic images
Some features might not work optimally:
e.g. DM initialization from atomic data
New_DM. Step:    50
Re-using DM from previous geometry...
Extrapolating Density Matrix...
New grid distribution:   1
           1       1:   12    1:    6    1:    3
           2       1:   12    1:    6    4:    6
           3       1:   12    1:    6    7:    9
           4       1:   12    1:    6   10:   12
           5       1:   12    7:   12    1:    3
           6       1:   12    7:   12    4:    6
           7       1:   12    7:   12    7:    9
           8       1:   12    7:   12   10:   12

InitMesh: MESH =    24 x    24 x    24 =       13824
InitMesh: (bp) =    12 x    12 x    12 =        1728
InitMesh: Mesh cutoff (required, used) =    50.000    64.371 Ry
ExtMesh (bp) on 0 =    56 x    50 x    47 =      131600
New grid distribution:   2
           1       1:    6    7:   12    7:   12
           2       7:   12    1:    6    1:    6
           3       7:   12    1:    6    7:   12
           4       7:   12    7:   12    1:    6
           5       1:    6    1:    6    7:   12
           6       1:    6    1:    6    1:    6
           7       7:   12    7:   12    7:   12
           8       1:    6    7:   12    1:    6
New grid distribution:   3
           1       1:    6    7:   12    7:   12
           2       7:   12    1:    6    1:    6
           3       7:   12    1:    6    7:   12
           4       7:   12    7:   12    1:    6
           5       1:    6    1:    6    7:   12
           6       1:    6    1:    6    1:    6
           7       7:   12    7:   12    7:   12
           8       1:    6    7:   12    1:    6
Setting up quadratic distribution...
ExtMesh (bp) on 0 =    50 x    50 x    50 =      125000
PhiOnMesh: Number of (b)points on node 0 =                  216
PhiOnMesh: nlist on node 0 =                 4714

   scf: iscf   Eharris(eV)      E_KS(eV)   FreeEng(eV)    dDmax  Ef(eV)
   scf:    1    -2956.2941    -2956.3062    -2956.3062  0.00443 -3.9556
   scf:    2    -2956.2949    -2956.2935    -2956.2935  0.01180 -3.9454
   scf:    3    -2956.2943    -2956.2936    -2956.2936  0.00761 -3.9480
   scf:    4    -2956.2939    -2956.2937    -2956.2937  0.00055 -3.9526

SCF Convergence by dMax criterion
max |DM_out - DM_in|:     0.00055123
SCF cycle converged after    4 iterations

Using DM_out to compute the final energy and forces

siesta: E_KS(eV) =            -2956.2939

siesta: Atomic forces (eV/Ang):
     1   -0.001482    0.000817    0.003393
     2    0.000240    0.001888   -0.003280
     3   -0.001698    0.003579    0.000336
     4   -0.003004    0.006655    0.000101
     5   -1.562109    3.494065   -0.000144
     6   -0.000074   -2.099195    3.205534
     7    1.564465   -1.399680   -3.205842
     8    1.565344   -3.501152    0.000083
     9   -0.000016    2.095335   -3.203050
    10   -1.561354    1.397009    3.202839
----------------------------------------
   Tot    0.000312   -0.000680   -0.000030
----------------------------------------
   Max    3.501152
   Res    1.712901    sqrt( Sum f_i^2 / 3N )
----------------------------------------
   Max    3.501152    constrained

Stress-tensor-Voigt (kbar):      220.26      272.25      279.60      -29.05       -8.49      -18.98
(Free)E + p*V (eV/cell)    -2971.3592
Target enthalpy (eV/cell)    -2950.4403

siesta: Stress tensor (static) (eV/Ang**3):
         0.138893   -0.020357   -0.013304
        -0.020357    0.175320   -0.005950
        -0.013304   -0.005950    0.180476

siesta: Pressure (static):       -264.19591293  kBar

siesta: Stress tensor (total) (eV/Ang**3):
         0.137473   -0.018134   -0.011849
        -0.018134    0.169923   -0.005299
        -0.011849   -0.005298    0.174509

siesta: Pressure (total):       -257.36823514  kBar

siesta: E_kin PR =    2691.736 K

siesta: Temp_ion =     457.389 K

outcell: Unit cell vectors (Ang):
        5.655828   -0.027131   -0.017759
        3.751120    4.232996   -0.017760
        3.751124    1.677133    3.886616

outcell: Cell vector modules (Ang)   :    5.655921    5.655923    5.655925
outcell: Cell angles (23,13,12) (deg):     48.7284     48.7284     48.7285
outcell: Cell volume (Ang**3)        :     93.7859

siesta: Program's energy decomposition (eV):
siesta: Ebs     =      -574.540653
siesta: Eions   =      5228.674091
siesta: Ena     =      1104.807906
siesta: Ekin    =      2234.283849
siesta: Enl     =      -343.141532
siesta: DEna    =       -38.205953
siesta: DUscf   =         6.714359
siesta: DUext   =         0.000000
siesta: Exc     =      -692.078438
siesta: eta*DQ  =         0.000000
siesta: Emadel  =         0.000000
siesta: Emeta   =         0.000000
siesta: Emolmec =         0.000000
siesta: Ekinion =         0.532078
siesta: Eharris =     -2955.761837
siesta: Etot    =     -2955.761822
siesta: FreeEng =     -2955.761822

siesta: Final energy (eV):
siesta:  Band Struct. =    -574.540653
siesta:       Kinetic =    2234.283849
siesta:       Hartree =     861.020166
siesta:    Ext. field =       0.000000
siesta:   Exch.-corr. =    -692.078438
siesta:  Ion-electron =   -3624.079368
siesta:       Ion-ion =   -1735.440109
siesta:       Ekinion =       0.532078
siesta:         Total =   -2955.761822

siesta: Atomic forces (eV/Ang):
siesta:      1   -0.001482    0.000817    0.003393
siesta:      2    0.000240    0.001888   -0.003280
siesta:      3   -0.001698    0.003579    0.000336
siesta:      4   -0.003004    0.006655    0.000101
siesta:      5   -1.562109    3.494065   -0.000144
siesta:      6   -0.000074   -2.099195    3.205534
siesta:      7    1.564465   -1.399680   -3.205842
siesta:      8    1.565344   -3.501152    0.000083
siesta:      9   -0.000016    2.095335   -3.203050
siesta:     10   -1.561354    1.397009    3.202839
siesta: ----------------------------------------
siesta:    Tot    0.000312   -0.000680   -0.000030

siesta: Stress tensor (static) (eV/Ang**3):
siesta:     0.138893   -0.020357   -0.013304
siesta:    -0.020357    0.175320   -0.005950
siesta:    -0.013304   -0.005950    0.180476

siesta: Cell volume =         93.785929 Ang**3

siesta: Pressure (static):
siesta:                Solid            Molecule  Units
siesta:          -0.00179593         -0.00043967  Ry/Bohr**3
siesta:          -0.16489634         -0.04036855  eV/Ang**3
siesta:        -264.19591293        -64.67825295  kBar
(Free)E+ p_basis*V_orbitals  =       -2955.099603
(Free)Eharris+ p_basis*V_orbitals  =       -2955.099618
>> End of run:  10-JUN-2018  21:50:10
Job completed
