Siesta Version:                                        siesta-3.1
Architecture  : ifort11-macosx64
Compiler flags: ifort  -O2
SERIAL version

* Running in serial mode
>> Start of run:  10-JUN-2011  14:35:40

                           ***********************       
                           *  WELCOME TO SIESTA  *       
                           ***********************       

reinit: Reading from standard input
************************** Dump of input data file ****************************
#
# MgCO3 in primitive cell. SZ. Parrinello-Rahman. Harris
#
SystemName	MgCo3 R-3c Harris -- SZ, 50 R -- PR at 10 Gpa
SystemLabel	md_pr
NumberOfSpecies		3
NumberOfAtoms	       10
%block ChemicalSpeciesLabel
      1      12     Mg
      2       6     C
      3       8     O
%endblock ChemicalSpeciesLabel
PAO.BasisSize  SZ
Diag.Divide-and-Conquer F
# Rhombohedral primitive cell
# (HEX 3-fold cell had A=4.635 and C=15.023, so alpha=48.179 degrees
#  and a=5.67783 Ang)
LatticeConstant     5.67783 Ang
%block LatticeParameters
1.0 1.0 1.0 48.179 48.179 48.179
%endblock LatticeParameters
AtomicCoordinatesFormat    Fractional
%block AtomicCoordinatesAndAtomicSpecies
  0.0         0.0         0.0      1
  0.5         0.5         0.5      1
  0.25        0.25        0.25     2
 -0.25       -0.25       -0.25     2
  0.5274     -0.0274      0.25     3
  0.25        0.5274     -0.0274   3
 -0.0274      0.25        0.5274   3
 -0.5274      0.0274     -0.25     3
 -0.25       -0.5274      0.0274   3
  0.0274     -0.25       -0.5274   3
%endblock AtomicCoordinatesAndAtomicSpecies
kgrid_cutoff 2.0 Ang
Solution.Method       diagon
MeshCutoff             50 Ry
DM.NumberBroyden       4
DM.UseSaveDM           T
DM.MixingWeight        0.1         # New DM amount for next SCF cycle
DM.Tolerance           1.d-3       # Tolerance in maximum difference
                                   # between input and output DM
MaxSCFIterations       20
WriteCoorStep      .true.
WriteForces        .true.
HarrisFunctional T
WriteMDHistory     .true.
MD.UseSaveXV       T
#####MD.Initial.temperature 300 K
MD.TypeOfRun         ParrinelloRahman
MD.Target-pressure   10.0 GPa
MD.Initial.Time.Step      1
MD.Final.Time.Step        50
MD.Length.Time.Step       0.3 fs
************************** End of input data file *****************************

reinit: -----------------------------------------------------------------------
reinit: System Name: MgCo3 R-3c Harris -- SZ, 50 R -- PR at 10 Gpa
reinit: -----------------------------------------------------------------------
reinit: System Label: md_pr                                                       
reinit: -----------------------------------------------------------------------

initatom: Reading input for the pseudopotentials and atomic orbitals ----------
 Species number:            1  Label: Mg Atomic number:          12
 Species number:            2  Label: C Atomic number:           6
 Species number:            3  Label: O Atomic number:           8
Ground state valence configuration:   3s02
Reading pseudopotential information in formatted form from Mg.psf

Valence configuration for pseudopotential generation:
3s( 2.00) rc: 2.59
3p( 0.00) rc: 2.59
3d( 0.00) rc: 2.59
4f( 0.00) rc: 2.59
Ground state valence configuration:   2s02  2p02
Reading pseudopotential information in formatted form from C.psf

Valence configuration for pseudopotential generation:
2s( 2.00) rc: 1.49
2p( 2.00) rc: 1.52
3d( 0.00) rc: 1.58
Ground state valence configuration:   2s02  2p04
Reading pseudopotential information in formatted form from O.psf

Valence configuration for pseudopotential generation:
2s( 2.00) rc: 1.14
2p( 4.00) rc: 1.14
3d( 0.00) rc: 1.14
4f( 0.00) rc: 1.14
For Mg, standard SIESTA heuristics set lmxkb to 1
 (one more than the basis l, including polarization orbitals).
Use PS.lmax or PS.KBprojectors blocks to override.
For C, standard SIESTA heuristics set lmxkb to 2
 (one more than the basis l, including polarization orbitals).
Use PS.lmax or PS.KBprojectors blocks to override.
For O, standard SIESTA heuristics set lmxkb to 2
 (one more than the basis l, including polarization orbitals).
Use PS.lmax or PS.KBprojectors blocks to override.

<basis_specs>
===============================================================================
Mg                   Z=  12    Mass=  24.310        Charge= 0.17977+309
Lmxo=0 Lmxkb=1     BasisType=split      Semic=F
L=0  Nsemic=0  Cnfigmx=3
          n=1  nzeta=1  polorb=0
            splnorm:   0.15000    
               vcte:    0.0000    
               rinn:    0.0000    
                rcs:    0.0000    
            lambdas:    1.0000    
-------------------------------------------------------------------------------
L=0  Nkbl=1  erefs: 0.17977+309
L=1  Nkbl=1  erefs: 0.17977+309
===============================================================================
</basis_specs>

atom: Called for Mg                    (Z =  12)

read_vps: Pseudopotential generation method:
read_vps: ATM3      Troullier-Martins                       
Total valence charge:    2.00000

xc_check: Exchange-correlation functional:
xc_check: Ceperley-Alder
V l=0 = -2*Zval/r beyond r=  3.5878
V l=1 = -2*Zval/r beyond r=  3.5878
All V_l potentials equal beyond r=  2.5600
This should be close to max(r_c) in ps generation
All pots = -2*Zval/r beyond r=  3.5878
Using large-core scheme for Vlocal

atom: Estimated core radius    3.58779

atom: Including non-local core corrections could be a good idea
atom: Maximum radius for 4*pi*r*r*local-pseudopot. charge    3.91588
atom: Maximum radius for r*vlocal+2*Zval:    3.63292
GHOST: No ghost state for L =  0
GHOST: No ghost state for L =  1

KBgen: Kleinman-Bylander projectors: 
   l= 0   rc=  2.657845   el= -0.351328   Ekb=  2.184400   kbcos=  0.257081
   l= 1   rc=  2.657845   el= -0.101748   Ekb=  0.525536   kbcos=  0.270508

KBgen: Total number of  Kleinman-Bylander projectors:    4
atom: -------------------------------------------------------------------------

atom: SANKEY-TYPE ORBITALS:

SPLIT: Orbitals with angular momentum L= 0

SPLIT: Basis orbitals for state 3s

SPLIT: PAO cut-off radius determined from an
SPLIT: energy shift=  0.020000 Ry

   izeta = 1
                 lambda =    1.000000
                     rc =    6.619780
                 energy =   -0.332103
                kinetic =    0.289627
    potential(screened) =   -0.621729
       potential(ionic) =   -1.387191
atom: Total number of Sankey-type orbitals:  1

atm_pop: Valence configuration (for local Pseudopot. screening):
 3s( 2.00)                                                            
Vna: chval, zval:    2.00000   2.00000

Vna:  Cut-off radius for the neutral-atom potential:   6.619780

atom: _________________________________________________________________________

<basis_specs>
===============================================================================
C                    Z=   6    Mass=  12.010        Charge= 0.17977+309
Lmxo=1 Lmxkb=2     BasisType=split      Semic=F
L=0  Nsemic=0  Cnfigmx=2
          n=1  nzeta=1  polorb=0
            splnorm:   0.15000    
               vcte:    0.0000    
               rinn:    0.0000    
                rcs:    0.0000    
            lambdas:    1.0000    
L=1  Nsemic=0  Cnfigmx=2
          n=1  nzeta=1  polorb=0
            splnorm:   0.15000    
               vcte:    0.0000    
               rinn:    0.0000    
                rcs:    0.0000    
            lambdas:    1.0000    
-------------------------------------------------------------------------------
L=0  Nkbl=1  erefs: 0.17977+309
L=1  Nkbl=1  erefs: 0.17977+309
L=2  Nkbl=1  erefs: 0.17977+309
===============================================================================
</basis_specs>

atom: Called for C                     (Z =   6)

read_vps: Pseudopotential generation method:
read_vps: ATM3      Troullier-Martins                       
Total valence charge:    4.00000

xc_check: Exchange-correlation functional:
xc_check: Ceperley-Alder
V l=0 = -2*Zval/r beyond r=  1.4666
V l=1 = -2*Zval/r beyond r=  1.5038
V l=2 = -2*Zval/r beyond r=  1.5612
All V_l potentials equal beyond r=  1.5612
This should be close to max(r_c) in ps generation
All pots = -2*Zval/r beyond r=  1.5612

VLOCAL1: 99.0% of the norm of Vloc inside     17.809 Ry
VLOCAL1: 99.9% of the norm of Vloc inside     40.586 Ry
atom: Maximum radius for 4*pi*r*r*local-pseudopot. charge    1.88329
atom: Maximum radius for r*vlocal+2*Zval:    1.62091
GHOST: No ghost state for L =  0
GHOST: No ghost state for L =  1
GHOST: No ghost state for L =  2

KBgen: Kleinman-Bylander projectors: 
   l= 0   rc=  1.747182   el= -1.001947   Ekb=  5.181700   kbcos=  0.300603
   l= 1   rc=  1.747182   el= -0.398598   Ekb= -4.328763   kbcos= -0.367074
   l= 2   rc=  1.955272   el=  0.002326   Ekb= -1.016175   kbcos= -0.009979

KBgen: Total number of  Kleinman-Bylander projectors:    9
atom: -------------------------------------------------------------------------

atom: SANKEY-TYPE ORBITALS:

SPLIT: Orbitals with angular momentum L= 0

SPLIT: Basis orbitals for state 2s

SPLIT: PAO cut-off radius determined from an
SPLIT: energy shift=  0.020000 Ry

   izeta = 1
                 lambda =    1.000000
                     rc =    4.191849
                 energy =   -0.983897
                kinetic =    0.886956
    potential(screened) =   -1.870853
       potential(ionic) =   -5.479661

SPLIT: Orbitals with angular momentum L= 1

SPLIT: Basis orbitals for state 2p

SPLIT: PAO cut-off radius determined from an
SPLIT: energy shift=  0.020000 Ry

   izeta = 1
                 lambda =    1.000000
                     rc =    4.870301
                 energy =   -0.379093
                kinetic =    2.545357
    potential(screened) =   -2.924450
       potential(ionic) =   -6.433151
atom: Total number of Sankey-type orbitals:  4

atm_pop: Valence configuration (for local Pseudopot. screening):
 2s( 2.00)                                                            
 2p( 2.00)                                                            
Vna: chval, zval:    4.00000   4.00000

Vna:  Cut-off radius for the neutral-atom potential:   4.870301

atom: _________________________________________________________________________

<basis_specs>
===============================================================================
O                    Z=   8    Mass=  16.000        Charge= 0.17977+309
Lmxo=1 Lmxkb=2     BasisType=split      Semic=F
L=0  Nsemic=0  Cnfigmx=2
          n=1  nzeta=1  polorb=0
            splnorm:   0.15000    
               vcte:    0.0000    
               rinn:    0.0000    
                rcs:    0.0000    
            lambdas:    1.0000    
L=1  Nsemic=0  Cnfigmx=2
          n=1  nzeta=1  polorb=0
            splnorm:   0.15000    
               vcte:    0.0000    
               rinn:    0.0000    
                rcs:    0.0000    
            lambdas:    1.0000    
-------------------------------------------------------------------------------
L=0  Nkbl=1  erefs: 0.17977+309
L=1  Nkbl=1  erefs: 0.17977+309
L=2  Nkbl=1  erefs: 0.17977+309
===============================================================================
</basis_specs>

atom: Called for O                     (Z =   8)

read_vps: Pseudopotential generation method:
read_vps: ATM3      Troullier-Martins                       
Total valence charge:    6.00000

xc_check: Exchange-correlation functional:
xc_check: Ceperley-Alder
V l=0 = -2*Zval/r beyond r=  1.1278
V l=1 = -2*Zval/r beyond r=  1.1278
V l=2 = -2*Zval/r beyond r=  1.1278
All V_l potentials equal beyond r=  1.1278
This should be close to max(r_c) in ps generation
All pots = -2*Zval/r beyond r=  1.1278

VLOCAL1: 99.0% of the norm of Vloc inside     34.126 Ry
VLOCAL1: 99.9% of the norm of Vloc inside     77.774 Ry
atom: Maximum radius for 4*pi*r*r*local-pseudopot. charge    1.37759
atom: Maximum radius for r*vlocal+2*Zval:    1.18566
GHOST: No ghost state for L =  0
GHOST: No ghost state for L =  1
GHOST: No ghost state for L =  2

KBgen: Kleinman-Bylander projectors: 
   l= 0   rc=  1.294105   el= -1.742414   Ekb=  9.135903   kbcos=  0.326910
   l= 1   rc=  1.294105   el= -0.676589   Ekb= -8.124878   kbcos= -0.395047
   l= 2   rc=  1.448233   el=  0.002386   Ekb= -2.039267   kbcos= -0.003484

KBgen: Total number of  Kleinman-Bylander projectors:    9
atom: -------------------------------------------------------------------------

atom: SANKEY-TYPE ORBITALS:

SPLIT: Orbitals with angular momentum L= 0

SPLIT: Basis orbitals for state 2s

SPLIT: PAO cut-off radius determined from an
SPLIT: energy shift=  0.020000 Ry

   izeta = 1
                 lambda =    1.000000
                     rc =    3.305093
                 energy =   -1.723766
                kinetic =    1.614911
    potential(screened) =   -3.338677
       potential(ionic) =  -11.304675

SPLIT: Orbitals with angular momentum L= 1

SPLIT: Basis orbitals for state 2p

SPLIT: PAO cut-off radius determined from an
SPLIT: energy shift=  0.020000 Ry

   izeta = 1
                 lambda =    1.000000
                     rc =    3.937239
                 energy =   -0.658841
                kinetic =    5.005986
    potential(screened) =   -5.664827
       potential(ionic) =  -13.452360
atom: Total number of Sankey-type orbitals:  4

atm_pop: Valence configuration (for local Pseudopot. screening):
 2s( 2.00)                                                            
 2p( 4.00)                                                            
Vna: chval, zval:    6.00000   6.00000

Vna:  Cut-off radius for the neutral-atom potential:   3.937239

atom: _________________________________________________________________________

prinput: Basis input ----------------------------------------------------------

PAO.BasisType split     

%block ChemicalSpeciesLabel
    1   12 Mg                      # Species index, atomic number, species label
    2    6 C                       # Species index, atomic number, species label
    3    8 O                       # Species index, atomic number, species label
%endblock ChemicalSpeciesLabel

%block PAO.Basis                 # Define Basis set
Mg                    1                    # Species label, number of l-shells
 n=3   0   1                         # n, l, Nzeta 
   6.620   
   1.000   
C                     2                    # Species label, number of l-shells
 n=2   0   1                         # n, l, Nzeta 
   4.192   
   1.000   
 n=2   1   1                         # n, l, Nzeta 
   4.870   
   1.000   
O                     2                    # Species label, number of l-shells
 n=2   0   1                         # n, l, Nzeta 
   3.305   
   1.000   
 n=2   1   1                         # n, l, Nzeta 
   3.937   
   1.000   
%endblock PAO.Basis

prinput: ----------------------------------------------------------------------

coor:   Atomic-coordinates input format  =     Fractional

siesta: WARNING: XV file not found

siesta: Atomic coordinates (Bohr) and species
siesta:      0.00000   0.00000   0.00000  1        1
siesta:     12.51930   5.59740   3.66414  1        2
siesta:      6.25965   2.79870   1.83207  2        3
siesta:     -6.25965  -2.79870  -1.83207  2        4
siesta:      7.25136   0.58061   1.83207  3        5
siesta:      6.25965   4.12944  -0.20079  3        6
siesta:      5.26794   3.68605   3.86493  3        7
siesta:     -7.25136  -0.58061  -1.83207  3        8
siesta:     -6.25965  -4.12944   0.20079  3        9
siesta:     -5.26794  -3.68605  -3.86493  3       10

siesta: System type = bulk      

initatomlists: Number of atoms, orbitals, and projectors:     10    34    80

siesta: ******************** Simulation parameters ****************************
siesta:
siesta: The following are some of the parameters of the simulation.
siesta: A complete list of the parameters used, including default values,
siesta: can be found in file out.fdf
siesta:
redata: Non-Collinear-spin run           =     F
redata: SpinPolarized (Up/Down) run      =     F
redata: Number of spin components        =     1
redata: Long output                      =     F
redata: Number of Atomic Species         =        3
redata: Charge density info will appear in .RHO file
redata: Write Mulliken Pop.              =     NO
redata: Mesh Cutoff                      =    50.0000  Ry
redata: Net charge of the system         =     0.0000 |e|
redata: Max. number of SCF Iter          =       20
redata: Broyden mixing with     4 saved histories.
redata: Mix DM in first SCF step ?       =     F
redata: Write Pulay info on disk?        =     F
redata: Discard 1st Pulay DM after  kick =     F
redata: New DM Mixing Weight             =     0.1000
redata: New DM Occupancy tolerance       = 0.000000000001
redata: No kicks to SCF
redata: DM Mixing Weight for Kicks       =     0.5000
redata: DM Tolerance for SCF             =     0.001000
redata: Require Energy convergence for SCF =     F
redata: DM Energy tolerance for SCF      =     0.000100 eV
redata: Require Harris convergence for SCF =     F
redata: DM Harris energy tolerance for SCF =     0.000100 eV
redata: Using Saved Data (generic)   =     F
redata: Use continuation files for DM    =     T
redata: Neglect nonoverlap interactions  =     F
redata: Method of Calculation            =     Diagonalization
redata: Divide and Conquer               =     F
redata: Electronic Temperature           =     0.0019  Ry
redata: Fix the spin of the system       =     F
redata: Dynamics option                  =     Parrinello-Rahman MD run
redata: Initial MD time step             =        1
redata:   Final MD time step             =       50
redata: Length of MD time step           =     0.3000  fs
redata: Initial Temperature of MD run    =     0.0000  K
redata: Perform a MD quench              =     F
redata: Parrinello-Rahman mass           =   100.0000  Ry/fs**2
redata: Target Pressure                  =     0.0007  Ry/Bohr**3
redata: ***********************************************************************
Total number of electrons:    48.000000
Total ionic charge:    48.000000
 Kpoints in:            1 . Kpoints trimmed:            1

siesta: k-grid: Number of k-points =     1
siesta: k-grid: Cutoff (effective) =     2.317 Ang
siesta: k-grid: Supercell and displacements
siesta: k-grid:    1   0   0      0.000
siesta: k-grid:    0   1   0      0.000
siesta: k-grid:    0   0   1      0.000

* Maximum dynamic memory allocated =     3 MB

siesta:                 ==============================
                            Begin MD step =      1
                        ==============================

outcoor: Atomic coordinates (fractional):                   
    0.00000000    0.00000000    0.00000000   1       1  Mg
    0.50000000    0.50000000    0.50000000   1       2  Mg
    0.25000000    0.25000000    0.25000000   2       3  C
   -0.25000000   -0.25000000   -0.25000000   2       4  C
    0.52740000   -0.02740000    0.25000000   3       5  O
    0.25000000    0.52740000   -0.02740000   3       6  O
   -0.02740000    0.25000000    0.52740000   3       7  O
   -0.52740000    0.02740000   -0.25000000   3       8  O
   -0.25000000   -0.52740000    0.02740000   3       9  O
    0.02740000   -0.25000000   -0.52740000   3      10  O

outcell: Unit cell vectors (Ang):
        5.677830    0.000000    0.000000
        3.786009    4.231299    0.000000
        3.786009    1.692731    3.877957

outcell: Cell vector modules (Ang)   :    5.677830    5.677830    5.677830
outcell: Cell angles (23,13,12) (deg):     48.1790     48.1790     48.1790
outcell: Cell volume (Ang**3)        :     93.1663
New_DM. Step:     1
Initializing Density Matrix...

InitMesh: MESH =    24 x    24 x    24 =       13824
InitMesh: Mesh cutoff (required, used) =    50.000    63.482 Ry

* Maximum dynamic memory allocated =     4 MB

stepf: Fermi-Dirac step function
 Broyden: No of relevant DM elements:         1156
 maxit for broyden:            4
 cycle on maxit:  T
 variable weight:  T
 initial alpha:   0.100000000000000     

siesta: Program's energy decomposition (eV):
siesta: Ebs     =      -718.671235
siesta: Eions   =      5228.674091
siesta: Ena     =      1092.429444
siesta: Ekin    =      2069.792750
siesta: Enl     =      -254.036133
siesta: DEna    =        15.960994
siesta: DUscf   =         0.158221
siesta: DUext   =         0.000000
siesta: Exc     =      -679.402762
siesta: eta*DQ  =         0.000000
siesta: Emadel  =         0.000000
siesta: Emeta   =         0.000000
siesta: Emolmec =         0.000000
siesta: Ekinion =         0.000000
siesta: Eharris =     -2966.596358
siesta: Etot    =     -2983.771576
siesta: FreeEng =     -2983.771576

siesta: Eharris(eV) =   -2966.596358


siesta: Eharris(eV) =   -2966.596358

timer: Routine,Calls,Time,% = IterSCF        1       0.483  46.53
elaps: Routine,Calls,Wall,% = IterSCF        1       0.482  46.47

siesta: E_KS - E_eggbox =     -2945.6642

siesta: Atomic forces (eV/Ang):
     1    0.000000    0.000000    0.000000
     2    0.000000    0.000000    0.000000
     3    0.000001    0.000000   -0.000004
     4   -0.000001   -0.000001    0.000004
     5    2.998811   -6.707232   -0.000003
     6   -0.000006    4.024015   -6.147137
     7   -2.998825    2.683242    6.147168
     8   -2.998810    6.707231    0.000003
     9    0.000007   -4.024013    6.147138
    10    2.998825   -2.683243   -6.147166
----------------------------------------
   Tot    0.000002   -0.000001    0.000003
----------------------------------------
   Max    6.707232
   Res    3.285729    sqrt( Sum f_i^2 / 3N )
----------------------------------------
   Max    6.707232    constrained

Stress-tensor-Voigt (kbar):      720.98      465.34      428.83      142.85       41.81       93.51
(Free)E + p*V (eV/cell)    -2976.9707
Target enthalpy (eV/cell)    -2939.8492

siesta: Stress tensor (static) (eV/Ang**3):
         0.449994    0.089162    0.058367
         0.089162    0.290436    0.026096
         0.058367    0.026096    0.267654

siesta: Pressure (static):       -538.38238024  kBar

siesta: Stress tensor (total) (eV/Ang**3):
         0.449994    0.089162    0.058367
         0.089162    0.290436    0.026096
         0.058367    0.026096    0.267654

siesta: Pressure (total):       -538.38238024  kBar

siesta: E_kin PR =       5.259 K

siesta: Temp_ion =       0.000 K
 iupos on opening:           16
 iupos on writing:           16
 istep, xa, va :            1 -5.905871879356135E-013 -4.367683400007200E-013
  1.608091437739547E-013   12.5191337397994        5.59732605290450     
   3.66409179366906        6.25956686997488        2.79866302647254     
   1.83204589658300       -6.25956686998622       -2.79866302648811     
  -1.83204589657111        7.25138151452426       0.580343052572477     
   1.83204589664178        6.25956686962342        4.12954402381820     
 -0.201029500120138        5.26775222452508        3.68610200425805     
   3.86512129538700       -7.25138151448042      -0.580343052625291     
  -1.83204589663166       -6.25956686956527       -4.12954402373782     
  0.201029500141804       -5.26775222453970       -3.68610200431327     
  -3.86512129530322      -7.525205793642972E-029 -3.364532348515980E-029
 -7.707844741551217E-029  6.610675396242738E-016 -3.698805892457128E-015
 -4.206565594421482E-021 -4.963788341358563E-015 -2.219318235705895E-015
 -2.523917642646031E-020  1.985558164643822E-015  4.439275186754358E-016
  1.016987996736702E-015 -3.723323072184919E-016 -1.942090925230276E-016
 -3.389948596454456E-016 -3.433838347958551E-015 -4.420097990418362E-015
  4.235118865427682E-017 -6.614958206805374E-016  5.918819383378538E-016
  1.355969973897659E-015 -3.391504459240902E-015  2.034509013541623E-016
  6.779718415560015E-016 -2.523050286511814E-015 -1.851277711815450E-017
 -4.238484090559655E-017  4.959077249868846E-016 -1.331645044619925E-015
 -1.355972077168393E-015

* Maximum dynamic memory allocated =     4 MB

siesta:                 ==============================
                            Begin MD step =      2
                        ==============================

outcoor: Atomic coordinates (fractional):                   
    0.00000000    0.00000000    0.00000000   1       1  Mg
    0.50000000    0.50000000    0.50000000   1       2  Mg
    0.25000000    0.25000000    0.25000000   2       3  C
   -0.25000000   -0.25000000   -0.25000000   2       4  C
    0.52744271   -0.02744271    0.25000000   3       5  O
    0.25000000    0.52744271   -0.02744271   3       6  O
   -0.02744271    0.25000000    0.52744271   3       7  O
   -0.52744271    0.02744271   -0.25000000   3       8  O
   -0.25000000   -0.52744271    0.02744271   3       9  O
    0.02744271   -0.25000000   -0.52744271   3      10  O

outcell: Unit cell vectors (Ang):
        5.677709    0.000074    0.000048
        3.785983    4.231159    0.000048
        3.785983    1.692720    3.877810

outcell: Cell vector modules (Ang)   :    5.677709    5.677709    5.677709
outcell: Cell angles (23,13,12) (deg):     48.1775     48.1775     48.1775
outcell: Cell volume (Ang**3)        :     93.1558
New_DM. Step:     2
Initializing Density Matrix...

InitMesh: MESH =    24 x    24 x    24 =       13824
InitMesh: Mesh cutoff (required, used) =    50.000    63.484 Ry

siesta: Eharris(eV) =   -2966.604882


siesta: Eharris(eV) =   -2966.604882


siesta: Atomic forces (eV/Ang):
     1    0.000000    0.000000    0.000000
     2    0.000000    0.000000    0.000000
     3    0.000000    0.000003    0.000000
     4   -0.000001   -0.000003   -0.000001
     5    2.995558   -6.699941   -0.000007
     6   -0.000010    4.019627   -6.140443
     7   -2.995564    2.680304    6.140456
     8   -2.995555    6.699942   -0.000001
     9    0.000012   -4.019632    6.140440
    10    2.995563   -2.680305   -6.140455
----------------------------------------
   Tot    0.000004   -0.000004   -0.000010
----------------------------------------
   Max    6.699942
   Res    3.282150    sqrt( Sum f_i^2 / 3N )
----------------------------------------
   Max    6.699942    constrained

Stress-tensor-Voigt (kbar):      720.83      465.32      428.84      142.78       41.79       93.47
(Free)E + p*V (eV/cell)    -2976.9674
Target enthalpy (eV/cell)    -2939.8533

siesta: Stress tensor (static) (eV/Ang**3):
         0.449903    0.089117    0.058337
         0.089117    0.290426    0.026083
         0.058337    0.026083    0.267656

siesta: Pressure (static):       -538.32925249  kBar

siesta: Stress tensor (total) (eV/Ang**3):
         0.449903    0.089117    0.058337
         0.089117    0.290426    0.026083
         0.058337    0.026083    0.267656

siesta: Pressure (total):       -538.32925249  kBar

siesta: E_kin PR =      47.320 K

siesta: Temp_ion =       7.493 K
 iupos on opening:           17
 iupos on writing:           17
 istep, xa, va :            2 -7.727912158211248E-013 -1.332879744505155E-012
  3.486548789433599E-012   12.5188067665484        5.59717986257731     
   3.66399609538592        6.25940338349356        2.79858993176980     
   1.83199804723995       -6.25940338352698       -2.79858993177674     
  -1.83199804725368        7.25157597219518       0.579469369734726     
   1.83199804661833        6.25940338166962        4.12995124156408     
 -0.201811082041488        5.26723079230875        3.68634918417494     
   3.86580718198454       -7.25157597178369      -0.579469369719356     
  -1.83199804739671       -6.25940338140371       -4.12995124182290     
  0.201811081754325       -5.26723079239101       -3.68634918444466     
  -3.86580718168817      -1.287985359701874E-012 -2.221466240841926E-012
  5.810914649055997E-012 -5.555541513757831E-012 -7.841404753004740E-012
  1.193661068764472E-011  3.628051024501277E-010  7.979849264577000E-010
 -7.490439603504735E-010 -4.185068851196691E-010 -8.095554193981319E-010
  7.261585298597206E-010  1.017217559499647E-003 -2.275137097337138E-003
 -1.602602155872403E-009 -2.717414402872431E-009  1.364970087907580E-003
 -2.085147360141637E-003 -1.017220932204807E-003  9.101696772997417E-004
  2.085154784821068E-003 -1.017216873678208E-003  2.275137122954287E-003
  3.052969808666585E-010  3.160595585163101E-009 -1.364970519267368E-003
  2.085146881535594E-003  1.017220795105135E-003 -9.101701268317603E-004
 -2.085154290869860E-003

* Maximum dynamic memory allocated =     4 MB

siesta:                 ==============================
                            Begin MD step =      3
                        ==============================

outcoor: Atomic coordinates (fractional):                   
    0.00000000    0.00000000    0.00000000   1       1  Mg
    0.50000000    0.50000000    0.50000000   1       2  Mg
    0.25000000    0.25000000    0.25000000   2       3  C
   -0.25000000   -0.25000000   -0.25000000   2       4  C
    0.52757075   -0.02757075    0.25000000   3       5  O
    0.25000000    0.52757075   -0.02757075   3       6  O
   -0.02757075    0.25000000    0.52757075   3       7  O
   -0.52757075    0.02757075   -0.25000000   3       8  O
   -0.25000000   -0.52757075    0.02757075   3       9  O
    0.02757075   -0.25000000   -0.52757075   3      10  O

outcell: Unit cell vectors (Ang):
        5.677467    0.000220    0.000144
        3.785931    4.230881    0.000144
        3.785931    1.692696    3.877516

outcell: Cell vector modules (Ang)   :    5.677467    5.677467    5.677467
outcell: Cell angles (23,13,12) (deg):     48.1745     48.1745     48.1745
outcell: Cell volume (Ang**3)        :     93.1346
New_DM. Step:     3
Initializing Density Matrix...

InitMesh: MESH =    24 x    24 x    24 =       13824
InitMesh: Mesh cutoff (required, used) =    50.000    63.487 Ry

siesta: Eharris(eV) =   -2966.630835


siesta: Eharris(eV) =   -2966.630835


siesta: Atomic forces (eV/Ang):
     1    0.000000    0.000000    0.000000
     2    0.000000    0.000000    0.000000
     3    0.000003    0.000002   -0.000005
     4   -0.000001   -0.000002    0.000006
     5    2.984216   -6.674605   -0.000005
     6   -0.000012    4.004415   -6.117198
     7   -2.984212    2.670172    6.117223
     8   -2.984218    6.674607    0.000006
     9    0.000013   -4.004415    6.117194
    10    2.984212   -2.670170   -6.117217
----------------------------------------
   Tot    0.000001    0.000006    0.000003
----------------------------------------
   Max    6.674607
   Res    3.269730    sqrt( Sum f_i^2 / 3N )
----------------------------------------
   Max    6.674607    constrained

Stress-tensor-Voigt (kbar):      721.16      466.43      430.06      142.34       41.66       93.18
(Free)E + p*V (eV/cell)    -2977.0239
Target enthalpy (eV/cell)    -2939.8664

siesta: Stress tensor (static) (eV/Ang**3):
         0.450130    0.088811    0.058137
         0.088811    0.291201    0.025993
         0.058137    0.025993    0.268509

siesta: Pressure (static):       -539.31987049  kBar

siesta: Stress tensor (total) (eV/Ang**3):
         0.450110    0.088843    0.058158
         0.088843    0.291122    0.026002
         0.058158    0.026002    0.268422

siesta: Pressure (total):       -539.22063846  kBar

siesta: E_kin PR =     131.500 K

siesta: Temp_ion =      29.904 K
 iupos on opening:           17
 iupos on writing:           17
 istep, xa, va :            3 -1.945285528351638E-012  8.113618423529072E-012
  5.544896996429508E-014   12.5183163558632        5.59696059912117     
   3.66385256236811        6.25915817865372        2.79848030079089     
   1.83192627980439       -6.25915817854821       -2.79848030075260     
  -1.83192627978341        7.25194258642855       0.577991323379378     
   1.83192627872410        6.25915817373016        4.13066258911168     
 -0.203136987558421        5.26637376654886        3.68678698638832     
   3.86698955992893       -7.25194258576010      -0.577991323102228     
  -1.83192628021776       -6.25915817314191       -4.13066258961669     
  0.203136986550610       -5.26637376673973       -3.68678698657783     
  -3.86698955885335      -2.257899766547848E-012  1.425054127435930E-011
 -1.754806912670432E-013 -9.526597314458017E-012 -1.223402435527042E-011
  1.299196748594754E-011  1.073554813594584E-009  2.010584543462732E-009
 -1.873843778085331E-009 -8.788150053718403E-010 -1.920812706048256E-009
  1.888988337926005E-009  2.031983973688055E-003 -4.544794501085483E-003
 -3.544497781579898E-009 -6.510702199591378E-009  2.726648390616504E-003
 -4.165266349850044E-003 -2.031987578994343E-003  1.818144268726755E-003
  4.165280143430997E-003 -2.031982932641427E-003  4.544795051000709E-003
  1.038185651970759E-009  7.394202920091297E-009 -2.726649366256661E-003
  4.165264634056830E-003  2.031987285243558E-003 -1.818144492569456E-003
 -4.165278490384275E-003

* Maximum dynamic memory allocated =     4 MB

siesta:                 ==============================
                            Begin MD step =      4
                        ==============================

outcoor: Atomic coordinates (fractional):                   
    0.00000000    0.00000000    0.00000000   1       1  Mg
    0.50000000    0.50000000    0.50000000   1       2  Mg
    0.25000000    0.25000000    0.25000000   2       3  C
   -0.25000000   -0.25000000   -0.25000000   2       4  C
    0.52778384   -0.02778384    0.25000000   3       5  O
    0.25000000    0.52778384   -0.02778384   3       6  O
   -0.02778384    0.25000000    0.52778384   3       7  O
   -0.52778384    0.02778384   -0.25000000   3       8  O
   -0.25000000   -0.52778384    0.02778384   3       9  O
    0.02778384   -0.25000000   -0.52778384   3      10  O

outcell: Unit cell vectors (Ang):
        5.677103    0.000441    0.000289
        3.785853    4.230463    0.000289
        3.785853    1.692662    3.877075

outcell: Cell vector modules (Ang)   :    5.677103    5.677103    5.677103
outcell: Cell angles (23,13,12) (deg):     48.1701     48.1701     48.1701
outcell: Cell volume (Ang**3)        :     93.1028
New_DM. Step:     4
Initializing Density Matrix...

InitMesh: MESH =    24 x    24 x    24 =       13824
InitMesh: Mesh cutoff (required, used) =    50.000    63.492 Ry

siesta: Eharris(eV) =   -2966.674040


siesta: Eharris(eV) =   -2966.674040


siesta: Atomic forces (eV/Ang):
     1    0.000000    0.000000    0.000000
     2    0.000000    0.000000    0.000000
     3    0.000001   -0.000002    0.000006
     4   -0.000001    0.000002   -0.000006
     5    2.964992   -6.631566    0.000004
     6    0.000007    3.978622   -6.077805
     7   -2.964995    2.652968    6.077795
     8   -2.964995    6.631571   -0.000003
     9   -0.000007   -3.978621    6.077803
    10    2.964993   -2.652967   -6.077802
----------------------------------------
   Tot   -0.000005    0.000008   -0.000009
----------------------------------------
   Max    6.631571
   Res    3.248662    sqrt( Sum f_i^2 / 3N )
----------------------------------------
   Max    6.631571    constrained

Stress-tensor-Voigt (kbar):      722.05      468.69      432.51      141.58       41.44       92.68
(Free)E + p*V (eV/cell)    -2977.1415
Target enthalpy (eV/cell)    -2939.8884

siesta: Stress tensor (static) (eV/Ang**3):
         0.450746    0.088238    0.057762
         0.088238    0.292841    0.025825
         0.057762    0.025825    0.270296

siesta: Pressure (static):       -541.47900576  kBar

siesta: Stress tensor (total) (eV/Ang**3):
         0.450663    0.088367    0.057846
         0.088367    0.292528    0.025863
         0.057846    0.025863    0.269950

siesta: Pressure (total):       -541.08289894  kBar

siesta: E_kin PR =     258.161 K

siesta: Temp_ion =      67.015 K
 iupos on opening:           17
 iupos on writing:           17
 istep, xa, va :            4  9.475312051079394E-014  1.454904122910698E-011
 -6.900352552015832E-013   12.5176624854170        5.59666825254111     
   3.66366118805353        6.25883124401524        2.79833412802689     
   1.83183059247768       -6.25883124383910       -2.79833412783646     
  -1.83183059241288        7.25247913117760       0.575913866523599     
   1.83183059053408        6.25883123668395        4.13167508978147     
 -0.205002681384732        5.26518335011928        3.68741342376012     
   3.86866388378646       -7.25247913054726      -0.575913865490219     
  -1.83183059263966       -6.25883123575240       -4.13167509043434     
  0.205002679358252       -5.26518335062624       -3.68741342375200     
  -3.86866388265618       1.445571126885282E-012  2.646913798472168E-011
 -6.958890710586862E-012 -1.608907409828473E-011 -1.726810491988966E-012
  1.801476113141771E-011  1.804285474377301E-009  2.124691809840118E-009
 -1.818094946745323E-009 -1.455014762032473E-009 -1.795740071096220E-009
  1.948972284657043E-009  3.041690848195687E-003 -6.803134050784525E-003
 -3.765054565612703E-009 -7.329315743730136E-009  4.081539305819018E-003
 -6.235017284968758E-003 -3.041694370568566E-003  2.721594153191404E-003
  6.235033367623152E-003 -3.041690483278028E-003  6.803135747447934E-003
  1.552596846255691E-009  8.438848913931707E-009 -4.081539962729120E-003
  6.235014385932988E-003  3.041693662728192E-003 -2.721593690262676E-003
 -6.235031977589071E-003

* Maximum dynamic memory allocated =     4 MB

siesta:                 ==============================
                            Begin MD step =      5
                        ==============================

outcoor: Atomic coordinates (fractional):                   
    0.00000000    0.00000000    0.00000000   1       1  Mg
    0.50000000    0.50000000    0.50000000   1       2  Mg
    0.25000000    0.25000000    0.25000000   2       3  C
   -0.25000000   -0.25000000   -0.25000000   2       4  C
    0.52808149   -0.02808149    0.25000000   3       5  O
    0.25000000    0.52808149   -0.02808149   3       6  O
   -0.02808149    0.25000000    0.52808149   3       7  O
   -0.52808149    0.02808149   -0.25000000   3       8  O
   -0.25000000   -0.52808149    0.02808149   3       9  O
    0.02808149   -0.25000000   -0.52808149   3      10  O

outcell: Unit cell vectors (Ang):
        5.676619    0.000736    0.000482
        3.785750    4.229905    0.000482
        3.785750    1.692615    3.876487

outcell: Cell vector modules (Ang)   :    5.676619    5.676619    5.676619
outcell: Cell angles (23,13,12) (deg):     48.1641     48.1641     48.1641
outcell: Cell volume (Ang**3)        :     93.0604
New_DM. Step:     5
Initializing Density Matrix...

InitMesh: MESH =    24 x    24 x    24 =       13824
InitMesh: Mesh cutoff (required, used) =    50.000    63.499 Ry

siesta: Eharris(eV) =   -2966.734172


siesta: Eharris(eV) =   -2966.734172


siesta: Atomic forces (eV/Ang):
     1    0.000000    0.000000    0.000000
     2    0.000000    0.000000    0.000000
     3    0.000003    0.000000   -0.000002
     4   -0.000003    0.000001    0.000002
     5    2.938087   -6.571386   -0.000012
     6   -0.000006    3.942496   -6.022626
     7   -2.938083    2.628882    6.022640
     8   -2.938084    6.571386    0.000015
     9    0.000005   -3.942494    6.022630
    10    2.938087   -2.628887   -6.022640
----------------------------------------
   Tot    0.000005   -0.000002    0.000008
----------------------------------------
   Max    6.571386
   Res    3.219175    sqrt( Sum f_i^2 / 3N )
----------------------------------------
   Max    6.571386    constrained

Stress-tensor-Voigt (kbar):      723.41      471.84      435.93      140.57       41.14       92.02
(Free)E + p*V (eV/cell)    -2977.3085
Target enthalpy (eV/cell)    -2939.9189

siesta: Stress tensor (static) (eV/Ang**3):
         0.451694    0.087450    0.057246
         0.087450    0.295201    0.025595
         0.057246    0.025595    0.272856

siesta: Pressure (static):       -544.61304094  kBar

siesta: Stress tensor (total) (eV/Ang**3):
         0.451510    0.087739    0.057435
         0.087739    0.294499    0.025679
         0.057435    0.025679    0.272080

siesta: Pressure (total):       -543.72506820  kBar

siesta: E_kin PR =     427.976 K

siesta: Temp_ion =     118.457 K
 iupos on opening:           17
 iupos on writing:           17
 istep, xa, va :            5 -2.657439768226971E-012  2.269099593906040E-011
  2.039615527959844E-012   12.5168450934365        5.59630279520783     
   3.66342195439324        6.25842254898364        2.79815139983580     
   1.83171097520450       -6.25842254873259       -2.79815139942488     
  -1.83171097503511        7.25318246486484       0.573243943224904     
   1.83171097142694        6.25842253823389        4.13298455316438     
 -0.207401793106204        5.26366262359286        3.68822569786291     
   3.87082376765964       -7.25318246400515      -0.573243941371301     
  -1.83171097385551       -6.25842253708548       -4.13298455381525     
  0.207401790544097       -5.26366262404251       -3.68822569816697     
  -3.87082376650768      -1.189136857153018E-012  2.430143779741228E-011
  3.306769335180962E-012 -1.983985470268053E-011  2.359628833590236E-012
  1.557911235425974E-011  2.562318532423823E-009  1.671241187818656E-009
 -1.014119388473590E-009 -2.319733501011528E-009 -1.050190526278508E-009
  1.261475880662451E-009  4.043798940889139E-003 -9.044470428699597E-003
 -5.216692102390781E-009 -7.097841750111633E-009  5.426230264947735E-003
 -8.289189504846974E-003 -4.043802502794774E-003  3.618242239773869E-003
  8.289206164656018E-003 -4.043798621807320E-003  9.044473056262076E-003
  3.657322126981618E-009  8.031857463841607E-009 -5.426230508425330E-003
  8.289186913582271E-003  4.043802071325302E-003 -3.618242430847872E-003
 -8.289206036548237E-003

* Maximum dynamic memory allocated =     4 MB

siesta:                 ==============================
                            Begin MD step =      6
                        ==============================

outcoor: Atomic coordinates (fractional):                   
    0.00000000    0.00000000    0.00000000   1       1  Mg
    0.50000000    0.50000000    0.50000000   1       2  Mg
    0.25000000    0.25000000    0.25000000   2       3  C
   -0.25000000   -0.25000000   -0.25000000   2       4  C
    0.52846303   -0.02846303    0.25000000   3       5  O
    0.25000000    0.52846303   -0.02846303   3       6  O
   -0.02846303    0.25000000    0.52846303   3       7  O
   -0.52846303    0.02846303   -0.25000000   3       8  O
   -0.25000000   -0.52846303    0.02846303   3       9  O
    0.02846303   -0.25000000   -0.52846303   3      10  O

outcell: Unit cell vectors (Ang):
        5.676012    0.001105    0.000724
        3.785621    4.229207    0.000724
        3.785621    1.692557    3.875750

outcell: Cell vector modules (Ang)   :    5.676012    5.676012    5.676012
outcell: Cell angles (23,13,12) (deg):     48.1567     48.1567     48.1567
outcell: Cell volume (Ang**3)        :     93.0074
New_DM. Step:     6
Initializing Density Matrix...

InitMesh: MESH =    24 x    24 x    24 =       13824
InitMesh: Mesh cutoff (required, used) =    50.000    63.507 Ry

siesta: Eharris(eV) =   -2966.810389


siesta: Eharris(eV) =   -2966.810389


siesta: Atomic forces (eV/Ang):
     1    0.000000    0.000000    0.000000
     2    0.000000    0.000000    0.000000
     3    0.000000    0.000000    0.000004
     4    0.000001    0.000000   -0.000004
     5    2.893810   -6.472391    0.000001
     6   -0.000001    3.883101   -5.931886
     7   -2.893811    2.589282    5.931903
     8   -2.893806    6.472386   -0.000009
     9   -0.000001   -3.883100    5.931882
    10    2.893812   -2.589281   -5.931899
----------------------------------------
   Tot    0.000003   -0.000002   -0.000008
----------------------------------------
   Max    6.472391
   Res    3.170674    sqrt( Sum f_i^2 / 3N )
----------------------------------------
   Max    6.472391    constrained

Stress-tensor-Voigt (kbar):      724.21      477.40      442.17      137.92       40.37       90.28
(Free)E + p*V (eV/cell)    -2977.5689
Target enthalpy (eV/cell)    -2939.9567

siesta: Stress tensor (static) (eV/Ang**3):
         0.452340    0.085570    0.056015
         0.085570    0.299211    0.025044
         0.056015    0.025044    0.277347

siesta: Pressure (static):       -549.49813943  kBar

siesta: Stress tensor (total) (eV/Ang**3):
         0.452014    0.086081    0.056350
         0.086081    0.297969    0.025194
         0.056350    0.025194    0.275975

siesta: Pressure (total):       -547.92779143  kBar

siesta: E_kin PR =     642.237 K

siesta: Temp_ion =     183.604 K
 iupos on opening:           17
 iupos on writing:           17
 istep, xa, va :            6 -8.784329452271466E-012  3.023860665856154E-011
  1.598118418950610E-012   12.5158644215503        5.59586433515490     
   3.66313493208905        6.25793221399354        2.79793217032097     
   1.83156746415419       -6.25793221352751       -2.79793216968150     
  -1.83156746383977        7.25404750182199       0.569993248786838     
   1.83156745808482        6.25793219970803        4.13458404877105     
 -0.210323617008656        5.26181691378335        3.68921920604393     
   3.87345857679734       -7.25404750040301      -0.569993246544039     
  -1.83156746163476       -6.25793219860003       -4.13458404931974     
  0.210323613475876       -5.26181691403927       -3.68921920649828     
  -3.87345857524406      -1.480180847732205E-011  2.616124154051713E-011
  3.811946748273474E-012 -2.090905799906598E-011 -3.052343711161211E-012
  1.183973429106473E-011  3.175964608040546E-009  1.645031868347972E-009
 -5.645236187917797E-010 -2.692799174025619E-009 -8.965134413854185E-010
  9.805626083974269E-010  5.034157874497923E-003 -1.125953383395862E-002
 -7.017582391572231E-009 -8.324510877497082E-009  6.755154627002751E-003
 -1.031927656533738E-002 -5.034161033009221E-003  4.504378564981894E-003
  1.031929841911149E-002 -5.034156559762905E-003  1.125953585050050E-002
  4.608273130673489E-009  8.619445672833348E-009 -6.755154453992296E-003
  1.031927405295032E-002  5.034161451026420E-003 -4.504379335717574E-003
 -1.031929771303470E-002

* Maximum dynamic memory allocated =     4 MB

siesta:                 ==============================
                            Begin MD step =      7
                        ==============================

outcoor: Atomic coordinates (fractional):                   
    0.00000000    0.00000000    0.00000000   1       1  Mg
    0.50000000    0.50000000    0.50000000   1       2  Mg
    0.25000000    0.25000000    0.25000000   2       3  C
   -0.25000000   -0.25000000   -0.25000000   2       4  C
    0.52892728   -0.02892728    0.25000000   3       5  O
    0.25000000    0.52892728   -0.02892728   3       6  O
   -0.02892728    0.25000000    0.52892728   3       7  O
   -0.52892728    0.02892728   -0.25000000   3       8  O
   -0.25000000   -0.52892728    0.02892728   3       9  O
    0.02892728   -0.25000000   -0.52892728   3      10  O

outcell: Unit cell vectors (Ang):
        5.675283    0.001551    0.001015
        3.785466    4.228366    0.001015
        3.785466    1.692488    3.874863

outcell: Cell vector modules (Ang)   :    5.675283    5.675283    5.675283
outcell: Cell angles (23,13,12) (deg):     48.1477     48.1477     48.1477
outcell: Cell volume (Ang**3)        :     92.9435
New_DM. Step:     7
Initializing Density Matrix...

InitMesh: MESH =    24 x    24 x    24 =       13824
InitMesh: Mesh cutoff (required, used) =    50.000    63.517 Ry

siesta: Eharris(eV) =   -2966.902096


siesta: Eharris(eV) =   -2966.902096


siesta: Atomic forces (eV/Ang):
     1    0.000000    0.000000    0.000000
     2    0.000000    0.000000    0.000000
     3   -0.000003    0.000001    0.000001
     4    0.000003    0.000000   -0.000002
     5    2.844485   -6.362054   -0.000016
     6   -0.000002    3.816907   -5.830757
     7   -2.844493    2.545142    5.830768
     8   -2.844483    6.362049    0.000018
     9    0.000003   -3.816907    5.830759
    10    2.844487   -2.545139   -5.830769
----------------------------------------
   Tot   -0.000004   -0.000003    0.000002
----------------------------------------
   Max    6.362054
   Res    3.116623    sqrt( Sum f_i^2 / 3N )
----------------------------------------
   Max    6.362054    constrained

Stress-tensor-Voigt (kbar):      727.94      486.02      451.48      135.19       39.57       88.49
(Free)E + p*V (eV/cell)    -2978.0057
Target enthalpy (eV/cell)    -2940.0007

siesta: Stress tensor (static) (eV/Ang**3):
         0.454844    0.083583    0.054715
         0.083583    0.305271    0.024463
         0.054715    0.024463    0.283915

siesta: Pressure (static):       -557.57943367  kBar

siesta: Stress tensor (total) (eV/Ang**3):
         0.454338    0.084376    0.055234
         0.084376    0.303345    0.024695
         0.055234    0.024695    0.281787

siesta: Pressure (total):       -555.14404329  kBar

siesta: E_kin PR =     903.320 K

siesta: Temp_ion =     261.630 K
 iupos on opening:           17
 iupos on writing:           17
 istep, xa, va :            7 -1.405150125177546E-011  3.559534430606059E-011
  4.426183913167531E-012   12.5147202151430        5.59535275854442     
   3.66280004660362        6.25736011132506        2.79767638266056     
   1.83140002171680       -6.25736011064811       -2.79767638172042     
  -1.83140002132285        7.25506807123669       0.566175244812347     
   1.83140001157246        6.25736009370886        4.13646540957454     
 -0.213755800116249        5.25965213612266        3.69038848319709     
   3.87655588309239       -7.25506806905797      -0.566175242737966     
  -1.83140001603612       -6.25736009257388       -4.13646541006224     
  0.213755795793843       -5.25965213687024       -3.69038848351645     
  -3.87655588125647      -1.899817680700173E-011  2.152993834455836E-011
  3.978353930544609E-012 -2.688667712210958E-011 -8.141246967657905E-013
  1.208891085480478E-011  2.467622084826002E-009  1.928733775322754E-009
  6.818671797183879E-010 -1.757816745728082E-009 -1.046395223523413E-009
 -3.075073989382177E-010  6.009063854308321E-003 -1.344003843936035E-002
 -9.416258102107146E-009 -8.877552122241172E-009  8.063345412661016E-003
 -1.231768773431017E-002 -6.009068664990532E-003  5.376690240999974E-003
  1.231771427392940E-002 -6.009061655606406E-003  1.344003880908612E-002
  6.021593544370247E-009  8.856365914938769E-009 -8.063345141459446E-003
  1.231768479763711E-002  6.009068168112062E-003 -5.376690266770245E-003
 -1.231771313268584E-002

* Maximum dynamic memory allocated =     4 MB

siesta:                 ==============================
                            Begin MD step =      8
                        ==============================

outcoor: Atomic coordinates (fractional):                   
    0.00000000    0.00000000    0.00000000   1       1  Mg
    0.50000000    0.50000000    0.50000000   1       2  Mg
    0.25000000    0.25000000    0.25000000   2       3  C
   -0.25000000   -0.25000000   -0.25000000   2       4  C
    0.52947296   -0.02947296    0.25000000   3       5  O
    0.25000000    0.52947296   -0.02947296   3       6  O
   -0.02947297    0.25000000    0.52947297   3       7  O
   -0.52947296    0.02947296   -0.25000000   3       8  O
   -0.25000000   -0.52947296    0.02947296   3       9  O
    0.02947297   -0.25000000   -0.52947297   3      10  O

outcell: Unit cell vectors (Ang):
        5.674429    0.002074    0.001358
        3.785287    4.227381    0.001358
        3.785287    1.692408    3.873823

outcell: Cell vector modules (Ang)   :    5.674430    5.674430    5.674430
outcell: Cell angles (23,13,12) (deg):     48.1371     48.1371     48.1371
outcell: Cell volume (Ang**3)        :     92.8687
New_DM. Step:     8
Initializing Density Matrix...

InitMesh: MESH =    24 x    24 x    24 =       13824
InitMesh: Mesh cutoff (required, used) =    50.000    63.529 Ry

siesta: Eharris(eV) =   -2967.007891


siesta: Eharris(eV) =   -2967.007891


siesta: Atomic forces (eV/Ang):
     1    0.000000    0.000000    0.000000
     2    0.000000    0.000000    0.000000
     3    0.000000    0.000004    0.000006
     4    0.000000   -0.000004   -0.000004
     5    2.738133   -6.124230    0.000000
     6    0.000002    3.674213   -5.612796
     7   -2.738141    2.449991    5.612788
     8   -2.738140    6.124231    0.000002
     9   -0.000005   -3.674214    5.612793
    10    2.738140   -2.449990   -5.612791
----------------------------------------
   Tot   -0.000010    0.000001   -0.000003
----------------------------------------
   Max    6.124231
   Res    3.000113    sqrt( Sum f_i^2 / 3N )
----------------------------------------
   Max    6.124231    constrained

Stress-tensor-Voigt (kbar):      734.26      505.15      472.44      128.03       37.47       83.81
(Free)E + p*V (eV/cell)    -2978.9212
Target enthalpy (eV/cell)    -2940.0499

siesta: Stress tensor (static) (eV/Ang**3):
         0.459008    0.078779    0.051570
         0.078779    0.318032    0.023057
         0.051570    0.023057    0.297903

siesta: Pressure (static):       -574.08948326  kBar

siesta: Stress tensor (total) (eV/Ang**3):
         0.458286    0.079909    0.052310
         0.079909    0.315286    0.023388
         0.052310    0.023388    0.294869

siesta: Pressure (total):       -570.61669551  kBar

siesta: E_kin PR =    1216.970 K

siesta: Temp_ion =     350.833 K
 iupos on opening:           17
 iupos on writing:           17
 istep, xa, va :            8 -1.250652838026588E-011  4.127887275644733E-011
  4.839010089958346E-012   12.5134122771140        5.59476797723579     
   3.66241724024689        6.25670614282491        2.79738399316056     
   1.83120861962840       -6.25670614192812       -2.79738399189688     
  -1.83120861894022        7.25623095719385       0.561819221426351     
   1.83120860464179        6.25670612208946        4.13861099131679     
 -0.217671487016745        5.25718130955714        3.69172174912889     
   3.88008877149617       -7.25623095498227      -0.561819219470584     
  -1.83120860986489       -6.25670612118663       -4.13861099178857     
  0.217671481566538       -5.25718131082846       -3.69172174926091     
  -3.88008876967906      -6.218774359339270E-012  1.843743800458240E-011
  5.402402461133262E-012 -2.882912109800536E-011  2.372798359455407E-013
  3.154917053949715E-012  1.736079185754080E-009  3.000904776312602E-009
  2.323802500774951E-009 -1.018176184942138E-009 -1.960013909425039E-009
 -1.700639576984772E-009  6.958080181065515E-003 -1.556264253078197E-002
 -1.206066333817350E-008 -8.893726833117399E-009  9.336797332952696E-003
 -1.426303292500037E-002 -6.958087708259668E-003  6.225837117677571E-003
  1.426306003628974E-002 -6.958078859266383E-003  1.556264205481044E-002
  9.267216942243448E-009  8.553314707546167E-009 -9.336797205422308E-003
  1.426302972480081E-002  6.958086015608168E-003 -6.225836581036987E-003
 -1.426305959459215E-002

* Maximum dynamic memory allocated =     4 MB

siesta:                 ==============================
                            Begin MD step =      9
                        ==============================

outcoor: Atomic coordinates (fractional):                   
    0.00000000    0.00000000    0.00000000   1       1  Mg
    0.50000000    0.50000000    0.50000000   1       2  Mg
    0.25000000    0.25000000    0.25000000   2       3  C
   -0.25000000   -0.25000000   -0.25000000   2       4  C
    0.53009720   -0.03009720    0.25000000   3       5  O
    0.25000000    0.53009720   -0.03009719   3       6  O
   -0.03009720    0.25000000    0.53009720   3       7  O
   -0.53009720    0.03009720   -0.25000000   3       8  O
   -0.25000000   -0.53009719    0.03009719   3       9  O
    0.03009720   -0.25000000   -0.53009720   3      10  O

outcell: Unit cell vectors (Ang):
        5.673450    0.002680    0.001754
        3.785085    4.226247    0.001754
        3.785085    1.692318    3.872626

outcell: Cell vector modules (Ang)   :    5.673450    5.673450    5.673450
outcell: Cell angles (23,13,12) (deg):     48.1249     48.1249     48.1249
outcell: Cell volume (Ang**3)        :     92.7826
New_DM. Step:     9
Initializing Density Matrix...

InitMesh: MESH =    24 x    24 x    24 =       13824
InitMesh: Mesh cutoff (required, used) =    50.000    63.542 Ry

siesta: Eharris(eV) =   -2967.125610


siesta: Eharris(eV) =   -2967.125610


siesta: Atomic forces (eV/Ang):
     1    0.000000    0.000000    0.000000
     2    0.000000    0.000000    0.000000
     3   -0.000001    0.000001    0.000001
     4    0.000002   -0.000003   -0.000001
     5    2.679560   -5.993179    0.000010
     6    0.000003    3.595596   -5.492693
     7   -2.679557    2.397568    5.492702
     8   -2.679552    5.993174   -0.000010
     9   -0.000007   -3.595598    5.492692
    10    2.679561   -2.397569   -5.492707
----------------------------------------
   Tot    0.000008   -0.000008   -0.000006
----------------------------------------
   Max    5.993179
   Res    2.935919    sqrt( Sum f_i^2 / 3N )
----------------------------------------
   Max    5.993179    constrained

Stress-tensor-Voigt (kbar):      737.19      512.03      479.88      125.82       36.83       82.37
(Free)E + p*V (eV/cell)    -2979.2695
Target enthalpy (eV/cell)    -2940.1011

siesta: Stress tensor (static) (eV/Ang**3):
         0.461084    0.077014    0.050414
         0.077014    0.323266    0.022540
         0.050414    0.022540    0.303589

siesta: Pressure (static):       -581.02981263  kBar

siesta: Stress tensor (total) (eV/Ang**3):
         0.460115    0.078531    0.051408
         0.078531    0.319581    0.022984
         0.051408    0.022984    0.299516

siesta: Pressure (total):       -576.36916064  kBar

siesta: E_kin PR =    1585.983 K

siesta: Temp_ion =     449.982 K
 iupos on opening:           17
 iupos on writing:           17
 istep, xa, va :            9 -1.485316733305214E-011  5.381512926491191E-011
  4.090209101223229E-012   12.5119404708509        5.59410993018976     
   3.66198647304094        6.25597024010652        2.79705497098005     
   1.83099323726881       -6.25597023886261       -2.79705496956083     
  -1.83099323628996        7.25752926693268       0.556940416297508     
   1.83099321821534        6.25597021662738        4.14101160399896     
 -0.222056704892534        5.25441119125238        3.69321286578943     
   3.88404323099414       -7.25752926395060      -0.556940414935750     
  -1.83099322422650       -6.25597021639115       -4.14101160465146     
  0.222056698258833       -5.25441119262320       -3.69321286577608     
  -3.88404322969303      -1.359379947525830E-012  3.041724099125825E-011
 -5.542622360442782E-013 -3.627857941749721E-011  8.270976643331303E-012
 -4.256513512759475E-012  1.529169788449783E-009  4.168626956097646E-009
  3.883277237958639E-009 -5.842799542655284E-010 -3.369237140049255E-009
 -2.908165623744478E-009  7.879748526257514E-003 -1.762407942208788E-002
 -1.044754030325496E-008 -8.131768518965243E-009  1.057355128339642E-002
 -1.615232003905783E-002 -7.879756830733064E-003  7.050513212810802E-003
  1.615234737387768E-002 -7.879747185666388E-003  1.762407823673728E-002
  7.861395432254041E-009  6.635822107081690E-009 -1.057355155863808E-002
  1.615231618065532E-002  7.879755791198421E-003 -7.050512658629647E-003
 -1.615234826244851E-002

* Maximum dynamic memory allocated =     4 MB

siesta:                 ==============================
                            Begin MD step =     10
                        ==============================

outcoor: Atomic coordinates (fractional):                   
    0.00000000    0.00000000    0.00000000   1       1  Mg
    0.50000000    0.50000000    0.50000000   1       2  Mg
    0.25000000    0.25000000    0.25000000   2       3  C
   -0.25000000   -0.25000000   -0.25000000   2       4  C
    0.53079847   -0.03079847    0.25000000   3       5  O
    0.25000000    0.53079847   -0.03079847   3       6  O
   -0.03079847    0.25000000    0.53079847   3       7  O
   -0.53079847    0.03079847   -0.25000000   3       8  O
   -0.25000000   -0.53079847    0.03079847   3       9  O
    0.03079847   -0.25000000   -0.53079847   3      10  O

outcell: Unit cell vectors (Ang):
        5.672342    0.003369    0.002205
        3.784860    4.224963    0.002205
        3.784860    1.692217    3.871268

outcell: Cell vector modules (Ang)   :    5.672343    5.672343    5.672343
outcell: Cell angles (23,13,12) (deg):     48.1109     48.1109     48.1109
outcell: Cell volume (Ang**3)        :     92.6850
New_DM. Step:    10
Initializing Density Matrix...

InitMesh: MESH =    24 x    24 x    24 =       13824
InitMesh: Mesh cutoff (required, used) =    50.000    63.557 Ry

siesta: Eharris(eV) =   -2967.255179


siesta: Eharris(eV) =   -2967.255179


siesta: Atomic forces (eV/Ang):
     1    0.000000    0.000000    0.000000
     2    0.000000    0.000000    0.000000
     3   -0.000004    0.000002    0.000004
     4    0.000003   -0.000001   -0.000001
     5    2.604377   -5.825012    0.000003
     6   -0.000003    3.494704   -5.338570
     7   -2.604369    2.330292    5.338580
     8   -2.604377    5.825012   -0.000004
     9   -0.000001   -3.494708    5.338573
    10    2.604369   -2.330292   -5.338575
----------------------------------------
   Tot   -0.000005   -0.000002    0.000009
----------------------------------------
   Max    5.825012
   Res    2.853539    sqrt( Sum f_i^2 / 3N )
----------------------------------------
   Max    5.825012    constrained

Stress-tensor-Voigt (kbar):      739.87      519.87      488.46      122.94       35.98       80.48
(Free)E + p*V (eV/cell)    -2979.6496
Target enthalpy (eV/cell)    -2940.1544

siesta: Stress tensor (static) (eV/Ang**3):
         0.463028    0.074782    0.048954
         0.074782    0.329203    0.021887
         0.048954    0.021887    0.310096

siesta: Pressure (static):       -588.71411283  kBar

siesta: Stress tensor (total) (eV/Ang**3):
         0.461784    0.076731    0.050229
         0.076731    0.324472    0.022457
         0.050229    0.022457    0.304867

siesta: Pressure (total):       -582.73068874  kBar

siesta: E_kin PR =    2009.160 K

siesta: Temp_ion =     558.669 K
 iupos on opening:           17
 iupos on writing:           17
 istep, xa, va :           10 -1.463014009890122E-011  6.299238289218619E-011
  8.930605236647011E-012   12.5103048010838        5.59337861952404     
   3.66150774639920        6.25515240512969        2.79668931725858     
   1.83075387567334       -6.25515240359843       -2.79668931557652     
  -1.83075387404384        7.25895434639096       0.551558192870879     
   1.83075385230231        6.25515237907943        4.14365563221887     
 -0.226893707641558        5.25135044056052        3.69485408818840     
   3.88840151696284       -7.25895434260733      -0.551558192097512     
  -1.83075385924226       -6.25515237997847       -4.14365563343030     
  0.226893700107753       -5.25135044208469       -3.69485408798433     
  -3.88840151566597      -3.567101884043107E-012  3.625419290330556E-011
  6.825242124780895E-012 -4.805032882876561E-011  2.486622506283687E-011
  1.189644397775446E-012  5.102097107570504E-010  4.940443819791203E-009
  4.946018266639359E-009  5.471197016503837E-010 -4.241784805140698E-009
 -3.376490674573192E-009  8.779457680857632E-003 -1.963639228021453E-002
 -8.409307395194001E-009 -8.230427398642215E-009  1.178083445829276E-002
 -1.799658626225489E-002 -8.779464154494671E-003  7.855537817588850E-003
  1.799661684973580E-002 -8.779455058636846E-003  1.963639031210715E-002
  5.538833734332778E-009  5.229657262795229E-009 -1.178083569142242E-002
  1.799658278084522E-002  8.779463731743188E-003 -7.855537257314256E-003
 -1.799661771355677E-002

* Maximum dynamic memory allocated =     4 MB

siesta:                 ==============================
                            Begin MD step =     11
                        ==============================

outcoor: Atomic coordinates (fractional):                   
    0.00000000    0.00000000    0.00000000   1       1  Mg
    0.50000000    0.50000000    0.50000000   1       2  Mg
    0.25000000    0.25000000    0.25000000   2       3  C
   -0.25000000   -0.25000000   -0.25000000   2       4  C
    0.53157483   -0.03157482    0.25000000   3       5  O
    0.25000000    0.53157482   -0.03157482   3       6  O
   -0.03157483    0.25000000    0.53157483   3       7  O
   -0.53157483    0.03157482   -0.25000000   3       8  O
   -0.25000000   -0.53157482    0.03157482   3       9  O
    0.03157483   -0.25000000   -0.53157483   3      10  O

outcell: Unit cell vectors (Ang):
        5.671106    0.004143    0.002712
        3.784613    4.223525    0.002712
        3.784613    1.692107    3.869747

outcell: Cell vector modules (Ang)   :    5.671108    5.671108    5.671108
outcell: Cell angles (23,13,12) (deg):     48.0953     48.0953     48.0953
outcell: Cell volume (Ang**3)        :     92.5758
New_DM. Step:    11
Initializing Density Matrix...

InitMesh: MESH =    24 x    24 x    24 =       13824
InitMesh: Mesh cutoff (required, used) =    50.000    63.574 Ry

siesta: Eharris(eV) =   -2967.394800


siesta: Eharris(eV) =   -2967.394800


siesta: Atomic forces (eV/Ang):
     1    0.000000    0.000000    0.000000
     2    0.000000    0.000000    0.000000
     3   -0.000001   -0.000002    0.000004
     4    0.000001    0.000001   -0.000003
     5    2.521183   -5.638940    0.000002
     6    0.000000    3.383080   -5.168057
     7   -2.521176    2.255858    5.168051
     8   -2.521186    5.638939    0.000000
     9    0.000002   -3.383077    5.168057
    10    2.521175   -2.255857   -5.168055
----------------------------------------
   Tot    0.000000    0.000002   -0.000001
----------------------------------------
   Max    5.638940
   Res    2.762391    sqrt( Sum f_i^2 / 3N )
----------------------------------------
   Max    5.638940    constrained

Stress-tensor-Voigt (kbar):      743.55      528.41      497.69      120.23       35.19       78.70
(Free)E + p*V (eV/cell)    -2980.0698
Target enthalpy (eV/cell)    -2940.2079

siesta: Stress tensor (static) (eV/Ang**3):
         0.465632    0.072617    0.047536
         0.072617    0.335682    0.021253
         0.047536    0.021253    0.317128

siesta: Pressure (static):       -597.32009935  kBar

siesta: Stress tensor (total) (eV/Ang**3):
         0.464085    0.075038    0.049121
         0.075038    0.329802    0.021962
         0.049121    0.021962    0.310629

siesta: Pressure (total):       -589.88353685  kBar

siesta: E_kin PR =    2488.995 K

siesta: Temp_ion =     675.469 K
 iupos on opening:           17
 iupos on writing:           17
 istep, xa, va :           11 -1.307224346212400E-011  7.506679762970892E-011
  1.433026017922458E-011   12.5085050909485        5.59257396613290     
   3.66098100855544        6.25425254984865        2.79628699186891     
   1.83049050897709       -6.25425254796415       -2.79628699013309     
  -1.83049050665144        7.26049655489187       0.545693876234590     
   1.83049048098074        6.25425252132602        4.14653021971050     
 -0.232162942730641        5.24800852120739        3.69663683028563     
   3.89314402350892       -7.26049655052947      -0.545693876189320     
  -1.83049048860275       -6.25425252315984       -4.14653022113478     
  0.232162934364003       -5.24800852295213       -3.69663682971383     
  -3.89314402263732       2.929643154626504E-012  3.551356320981111E-011
  1.707100651386168E-011 -4.964252840091418E-011  3.145099401378402E-011
  1.186580133908548E-011 -5.354462968908385E-010  4.885099679233419E-009
  6.589982678440220E-009  1.603054234111159E-009 -4.355859844543942E-009
 -4.344195078958348E-009  9.653129981289825E-003 -2.159046872924089E-002
 -7.641362732253265E-009 -8.776350677447420E-009  1.295318033886709E-002
 -1.978748279902902E-002 -9.653133866043714E-003  8.637265483037752E-003
  1.978751414741716E-002 -9.653127677238908E-003  2.159046653671953E-002
  4.944967523362477E-009  5.328834356416179E-009 -1.295318162541059E-002
  1.978747989920992E-002  9.653133241393337E-003 -8.637264551781694E-003
 -1.978751486056344E-002

* Maximum dynamic memory allocated =     4 MB

siesta:                 ==============================
                            Begin MD step =     12
                        ==============================

outcoor: Atomic coordinates (fractional):                   
    0.00000000    0.00000000    0.00000000   1       1  Mg
    0.50000000    0.50000000    0.50000000   1       2  Mg
    0.25000000    0.25000000    0.25000000   2       3  C
   -0.25000000   -0.25000000   -0.25000000   2       4  C
    0.53242409   -0.03242409    0.25000000   3       5  O
    0.25000000    0.53242408   -0.03242408   3       6  O
   -0.03242409    0.25000000    0.53242409   3       7  O
   -0.53242409    0.03242409   -0.25000000   3       8  O
   -0.25000000   -0.53242408    0.03242408   3       9  O
    0.03242409   -0.25000000   -0.53242409   3      10  O

outcell: Unit cell vectors (Ang):
        5.669739    0.005004    0.003276
        3.784344    4.221932    0.003276
        3.784344    1.691986    3.868062

outcell: Cell vector modules (Ang)   :    5.669742    5.669742    5.669742
outcell: Cell angles (23,13,12) (deg):     48.0779     48.0779     48.0779
outcell: Cell volume (Ang**3)        :     92.4548
New_DM. Step:    12
Initializing Density Matrix...

InitMesh: MESH =    24 x    24 x    24 =       13824
InitMesh: Mesh cutoff (required, used) =    50.000    63.592 Ry

siesta: Eharris(eV) =   -2967.541181


siesta: Eharris(eV) =   -2967.541181


siesta: Atomic forces (eV/Ang):
     1    0.000000    0.000000    0.000000
     2    0.000000    0.000000    0.000000
     3   -0.000002   -0.000001    0.000003
     4    0.000002    0.000002   -0.000004
     5    2.349541   -5.255039   -0.000002
     6    0.000007    3.152777   -4.816222
     7   -2.349540    2.102281    4.816211
     8   -2.349541    5.255042    0.000003
     9   -0.000006   -3.152779    4.816222
    10    2.349543   -2.102285   -4.816212
----------------------------------------
   Tot    0.000004   -0.000002    0.000000
----------------------------------------
   Max    5.255042
   Res    2.574330    sqrt( Sum f_i^2 / 3N )
----------------------------------------
   Max    5.255042    constrained

Stress-tensor-Voigt (kbar):      755.73      561.05      533.25      108.79       31.84       71.21
(Free)E + p*V (eV/cell)    -2981.6131
Target enthalpy (eV/cell)    -2940.2572

siesta: Stress tensor (static) (eV/Ang**3):
         0.473554    0.064968    0.042529
         0.064968    0.357293    0.019015
         0.042529    0.019015    0.340693

siesta: Pressure (static):       -625.67804743  kBar

siesta: Stress tensor (total) (eV/Ang**3):
         0.471682    0.067899    0.044448
         0.067899    0.350175    0.019873
         0.044448    0.019873    0.332827

siesta: Pressure (total):       -616.67601129  kBar

siesta: E_kin PR =    3039.452 K

siesta: Temp_ion =     796.922 K
 iupos on opening:           17
 iupos on writing:           17
 istep, xa, va :           12 -5.692579576208387E-012  8.206633227429201E-011
  1.825514561837410E-011   12.5065406649654        5.59169566799850     
   3.66040606179376        6.25327033633087        2.79584784396618     
   1.83020303825452       -6.25327033411941       -2.79584784208361     
  -1.83020303527649        7.26213415146584       0.539395186650877     
   1.83020300500689        6.25327030632806        4.14960649697679     
 -0.237820636187344        5.24440649807533        3.69854179044033     
   3.89822677839543       -7.26213414645114      -0.539395186998004     
  -1.83020301321576       -6.25327030907438       -4.14960649880557     
  0.237820627028595       -5.24440649969978       -3.69854178988677     
  -3.89822677801057       1.484675631616831E-011  3.190979512194129E-011
  1.555346438735278E-011 -4.268289225477521E-011  1.758737878702875E-011
  1.039233492330845E-011 -1.255100666719277E-009  4.136749886942241E-009
  8.147048291730603E-009  2.388585701356347E-009 -3.800596199370268E-009
 -5.897130963057171E-009  1.048447938981040E-002 -2.344988466208547E-002
 -7.621153089881657E-009 -7.669907944873877E-009  1.406873937846647E-002
 -2.149162836110702E-002 -1.048448179371768E-002  9.381125423918314E-003
  2.149165692680912E-002 -1.048447733279804E-002  2.344988279505000E-002
  5.491383758147999E-009  4.593659196083788E-009 -1.406874040789445E-002
  2.149162563877310E-002  1.048448162473420E-002 -9.381124840460851E-003
 -2.149165844382258E-002

* Maximum dynamic memory allocated =     4 MB

siesta:                 ==============================
                            Begin MD step =     13
                        ==============================

outcoor: Atomic coordinates (fractional):                   
    0.00000000    0.00000000    0.00000000   1       1  Mg
    0.50000000    0.50000000    0.50000000   1       2  Mg
    0.25000000    0.25000000    0.25000000   2       3  C
   -0.25000000   -0.25000000   -0.25000000   2       4  C
    0.53334158   -0.03334158    0.25000000   3       5  O
    0.25000000    0.53334157   -0.03334157   3       6  O
   -0.03334158    0.25000000    0.53334158   3       7  O
   -0.53334158    0.03334158   -0.25000000   3       8  O
   -0.25000000   -0.53334157    0.03334157   3       9  O
    0.03334158   -0.25000000   -0.53334158   3      10  O

outcell: Unit cell vectors (Ang):
        5.668238    0.005960    0.003901
        3.784055    4.220177    0.003901
        3.784055    1.691857    3.866203

outcell: Cell vector modules (Ang)   :    5.668243    5.668243    5.668243
outcell: Cell angles (23,13,12) (deg):     48.0585     48.0585     48.0585
outcell: Cell volume (Ang**3)        :     92.3215
New_DM. Step:    13
Initializing Density Matrix...

InitMesh: MESH =    24 x    24 x    24 =       13824
InitMesh: Mesh cutoff (required, used) =    50.000    63.612 Ry

siesta: Eharris(eV) =   -2967.693084


siesta: Eharris(eV) =   -2967.693084


siesta: Atomic forces (eV/Ang):
     1    0.000000    0.000000    0.000000
     2    0.000000    0.000000    0.000000
     3   -0.000002   -0.000005    0.000005
     4    0.000002    0.000004   -0.000003
     5    2.241027   -5.012330   -0.000002
     6   -0.000005    3.007152   -4.593776
     7   -2.241021    2.005194    4.593775
     8   -2.241021    5.012325    0.000002
     9    0.000001   -3.007148    4.593775
    10    2.241023   -2.005193   -4.593776
----------------------------------------
   Tot    0.000004    0.000000   -0.000002
----------------------------------------
   Max    5.012330
   Res    2.455431    sqrt( Sum f_i^2 / 3N )
----------------------------------------
   Max    5.012330    constrained

Stress-tensor-Voigt (kbar):      760.49      571.67      544.71      105.51       30.88       69.07
(Free)E + p*V (eV/cell)    -2982.1138
Target enthalpy (eV/cell)    -2940.3020

siesta: Stress tensor (static) (eV/Ang**3):
         0.476864    0.062391    0.040842
         0.062391    0.365214    0.018261
         0.040842    0.018261    0.349273

siesta: Pressure (static):       -636.25853924  kBar

siesta: Stress tensor (total) (eV/Ang**3):
         0.474653    0.065854    0.043109
         0.065854    0.356806    0.019274
         0.043109    0.019274    0.339980

siesta: Pressure (total):       -625.62384439  kBar

siesta: E_kin PR =    3667.189 K

siesta: Temp_ion =     920.816 K
 iupos on opening:           17
 iupos on writing:           17
 istep, xa, va :           13  5.959165722653156E-012  8.526476867416780E-011
  2.590022158992182E-011   12.5044112607011        5.59074360777907     
   3.65978282930044        6.25220563338814        2.79537181430956     
   1.82989142528449       -6.25220563079741       -2.79537181238868     
  -1.82989142148717        7.26385459146244       0.532689829979871     
   1.82989138592003        6.25220560167177        4.15286774676422     
 -0.243841379950322        5.24055665384103        3.70055780361292     
   3.90362429768313       -7.26385458521156      -0.532689831203284     
  -1.82989139479514       -6.25220560572296       -4.15286774858474     
  0.243841369893409       -5.24055665516687       -3.70055780295489     
  -3.90362429795142       3.165696894308184E-011  1.715068917057915E-011
  1.930590723014215E-011 -3.547070752395041E-011  1.670007286125008E-011
  8.268853229640691E-012 -2.248711267986031E-009  2.718344821167724E-009
  9.902448815262264E-009  3.425575213456442E-009 -2.407982999897915E-009
 -7.445733088201054E-009  1.126933088868092E-002 -2.520530132347542E-002
 -8.361630154983973E-009 -7.403997165367215E-009  1.512190507979588E-002
 -2.310045993497277E-002 -1.126933204407700E-002  1.008338233286190E-002
  2.310048639299526E-002 -1.126932773424878E-002  2.520529920783185E-002
  6.255166889486699E-009  3.710779111071316E-009 -1.512190574048306E-002
  2.310045710095349E-002  1.126933273993974E-002 -1.008338218711674E-002
 -2.310048829038246E-002

* Maximum dynamic memory allocated =     4 MB

siesta:                 ==============================
                            Begin MD step =     14
                        ==============================

outcoor: Atomic coordinates (fractional):                   
    0.00000000    0.00000000    0.00000000   1       1  Mg
    0.50000000    0.50000000    0.50000000   1       2  Mg
    0.25000000    0.25000000    0.25000000   2       3  C
   -0.25000000   -0.25000000   -0.25000000   2       4  C
    0.53432444   -0.03432444    0.25000000   3       5  O
    0.25000000    0.53432443   -0.03432443   3       6  O
   -0.03432444    0.25000000    0.53432444   3       7  O
   -0.53432444    0.03432444   -0.25000000   3       8  O
   -0.25000000   -0.53432443    0.03432443   3       9  O
    0.03432444   -0.25000000   -0.53432444   3      10  O

outcell: Unit cell vectors (Ang):
        5.666600    0.007012    0.004590
        3.783747    4.218255    0.004590
        3.783747    1.691720    3.864166

outcell: Cell vector modules (Ang)   :    5.666607    5.666607    5.666607
outcell: Cell angles (23,13,12) (deg):     48.0372     48.0372     48.0372
outcell: Cell volume (Ang**3)        :     92.1755
New_DM. Step:    14
Initializing Density Matrix...

InitMesh: MESH =    24 x    24 x    24 =       13824
InitMesh: Mesh cutoff (required, used) =    50.000    63.633 Ry

siesta: Eharris(eV) =   -2967.849179


siesta: Eharris(eV) =   -2967.849179


siesta: Atomic forces (eV/Ang):
     1    0.000000    0.000000    0.000000
     2    0.000000    0.000000    0.000000
     3    0.000000   -0.000001    0.000004
     4    0.000002    0.000001   -0.000006
     5    2.120873   -4.743619   -0.000004
     6    0.000002    2.845949   -4.347505
     7   -2.120878    1.897676    4.347494
     8   -2.120875    4.743617   -0.000005
     9    0.000001   -2.845951    4.347505
    10    2.120879   -1.897679   -4.347494
----------------------------------------
   Tot    0.000004   -0.000007   -0.000011
----------------------------------------
   Max    4.743619
   Res    2.323794    sqrt( Sum f_i^2 / 3N )
----------------------------------------
   Max    4.743619    constrained

Stress-tensor-Voigt (kbar):      765.33      583.08      557.05      101.85       29.81       66.67
(Free)E + p*V (eV/cell)    -2982.6350
Target enthalpy (eV/cell)    -2940.3410

siesta: Stress tensor (static) (eV/Ang**3):
         0.480238    0.059560    0.038989
         0.059560    0.373654    0.017432
         0.038989    0.017432    0.358435

siesta: Pressure (static):       -647.46079436  kBar

siesta: Stress tensor (total) (eV/Ang**3):
         0.477679    0.063567    0.041612
         0.063567    0.363924    0.018605
         0.041612    0.018605    0.347682

[...]
    0.58264750   -0.08264750    0.24999998   3       5  O
    0.24999999    0.58264747   -0.08264747   3       6  O
   -0.08264750    0.24999999    0.58264752   3       7  O
   -0.58264749    0.08264750   -0.24999999   3       8  O
   -0.24999999   -0.58264747    0.08264747   3       9  O
    0.08264750   -0.24999998   -0.58264751   3      10  O

outcell: Unit cell vectors (Ang):
        5.515403    0.120927    0.079161
        3.767820    4.029618    0.079161
        3.767820    1.684599    3.661450

outcell: Cell vector modules (Ang)   :    5.517296    5.517296    5.517296
outcell: Cell angles (23,13,12) (deg):     45.6620     45.6620     45.6620
outcell: Cell volume (Ang**3)        :     78.3085
New_DM. Step:    48
Initializing Density Matrix...

InitMesh: MESH =    24 x    24 x    24 =       13824
InitMesh: Mesh cutoff (required, used) =    50.000    65.431 Ry

siesta: Eharris(eV) =   -2971.072850


siesta: Eharris(eV) =   -2971.072850


siesta: Atomic forces (eV/Ang):
     1    0.000000    0.000000    0.000000
     2    0.000000    0.000000    0.000000
     3    0.000002    0.000004   -0.000006
     4   -0.000002   -0.000003    0.000006
     5   -0.892687    1.996630    0.000002
     6   -0.000003   -1.197872    1.829896
     7    0.892693   -0.798754   -1.829906
     8    0.892689   -1.996632    0.000005
     9    0.000006    1.197860   -1.829895
    10   -0.892688    0.798750    1.829896
----------------------------------------
   Tot    0.000009   -0.000016   -0.000001
----------------------------------------
   Max    1.996632
   Res    0.978102    sqrt( Sum f_i^2 / 3N )
----------------------------------------
   Max    1.996632    constrained

Stress-tensor-Voigt (kbar):     1053.12     1065.09     1066.79       -6.68       -1.96       -4.38
(Free)E + p*V (eV/cell)    -2989.6492
Target enthalpy (eV/cell)    -2932.8717

siesta: Stress tensor (static) (eV/Ang**3):
         0.663342   -0.013630   -0.008922
        -0.013630    0.687733   -0.003989
        -0.008922   -0.003989    0.691215

siesta: Pressure (static):      -1090.71473065  kBar

siesta: Stress tensor (total) (eV/Ang**3):
         0.657301   -0.004172   -0.002731
        -0.004172    0.664768   -0.001221
        -0.002731   -0.001221    0.665834

siesta: Pressure (total):      -1061.66845466  kBar

siesta: E_kin PR =  104388.698 K

siesta: Temp_ion =    1807.538 K
 iupos on opening:           17
 iupos on writing:           17
 istep, xa, va :           48  1.969007207969290E-009 -8.037036587759652E-010
  2.831092806953410E-010   12.3233307838818        5.50978222131452     
   3.60678432049453        6.16166532331160        2.75489104848977     
   1.80339238161041       -6.16166530934299       -2.75489104785047     
  -1.80339238191129        7.26038830301432       0.297456732844324     
   1.80339202166947        6.16166535034194        4.22922861882530     
 -0.448829684823840        5.06294233989745        3.73798773403332     
   4.05561438041609       -7.26038824626444      -0.297456754933605     
  -1.80339208523466       -6.16166534350993       -4.22922860681509     
  0.448829667495224       -5.06294229637662       -3.73798769674026     
  -4.05561431949502       8.088357824328970E-010 -3.299520802086377E-011
 -5.358920194109892E-012  5.300288325815466E-010 -6.822908830221007E-011
 -8.764421539767047E-011 -9.131781238797244E-009 -1.192627263025186E-008
  1.692104768617362E-008  8.488666485913993E-009  1.389707946732951E-008
 -2.007414981175632E-008  1.573509367830758E-002 -3.519358565854668E-002
  3.038341339414645E-009  5.107752817923306E-009  2.111436697533366E-002
 -3.225464898993281E-002 -1.573511115616082E-002  1.407918292695476E-002
  3.225469060996860E-002 -1.573508601797469E-002  3.519358286766204E-002
 -4.721923664259055E-009 -4.078535703611053E-010 -2.111436905111408E-002
  3.225465645761882E-002  1.573510916778330E-002 -1.407918270619770E-002
 -3.225467757032261E-002

* Maximum dynamic memory allocated =     4 MB

siesta:                 ==============================
                            Begin MD step =     49
                        ==============================

outcoor: Atomic coordinates (fractional):                   
    0.00000000    0.00000000    0.00000000   1       1  Mg
    0.50000000    0.50000000    0.50000000   1       2  Mg
    0.24999999    0.24999998    0.25000003   2       3  C
   -0.24999998   -0.24999998   -0.25000003   2       4  C
    0.58407488   -0.08407488    0.24999998   3       5  O
    0.24999999    0.58407485   -0.08407485   3       6  O
   -0.08407488    0.24999998    0.58407490   3       7  O
   -0.58407487    0.08407488   -0.24999999   3       8  O
   -0.24999999   -0.58407485    0.08407484   3       9  O
    0.08407488   -0.24999998   -0.58407489   3      10  O

outcell: Unit cell vectors (Ang):
        5.507739    0.127158    0.083240
        3.767354    4.019752    0.083240
        3.767354    1.684390    3.650775

outcell: Cell vector modules (Ang)   :    5.509835    5.509835    5.509835
outcell: Cell angles (23,13,12) (deg):     45.5284     45.5284     45.5284
outcell: Cell volume (Ang**3)        :     77.6136
New_DM. Step:    49
Initializing Density Matrix...

InitMesh: MESH =    24 x    24 x    24 =       13824
InitMesh: Mesh cutoff (required, used) =    50.000    65.517 Ry

siesta: Eharris(eV) =   -2971.126375


siesta: Eharris(eV) =   -2971.126375


siesta: Atomic forces (eV/Ang):
     1    0.000000    0.000000    0.000000
     2    0.000000    0.000000    0.000000
     3    0.000002   -0.000003   -0.000002
     4   -0.000001    0.000003    0.000000
     5   -0.959694    2.146452    0.000008
     6   -0.000002   -1.287762    1.967213
     7    0.959673   -0.858693   -1.967214
     8    0.959684   -2.146458    0.000002
     9   -0.000010    1.287762   -1.967212
    10   -0.959686    0.858699    1.967210
----------------------------------------
   Tot   -0.000032   -0.000001    0.000005
----------------------------------------
   Max    2.146458
   Res    1.051500    sqrt( Sum f_i^2 / 3N )
----------------------------------------
   Max    2.146458    constrained

Stress-tensor-Voigt (kbar):     1059.02     1077.49     1080.13      -10.32       -3.02       -6.76
(Free)E + p*V (eV/cell)    -2989.1514
Target enthalpy (eV/cell)    -2932.3669

siesta: Stress tensor (static) (eV/Ang**3):
         0.666906   -0.015719   -0.010290
        -0.015719    0.695037   -0.004601
        -0.010290   -0.004601    0.699053

siesta: Pressure (static):      -1100.70554859  kBar

siesta: Stress tensor (total) (eV/Ang**3):
         0.660981   -0.006442   -0.004217
        -0.006442    0.672510   -0.001885
        -0.004217   -0.001885    0.674155

siesta: Pressure (total):      -1072.21272522  kBar

siesta: E_kin PR =  110296.391 K

siesta: Temp_ion =    1750.860 K
 iupos on opening:           17
 iupos on writing:           17
 istep, xa, va :           49  2.252791349360163E-009 -8.024120452993705E-010
  2.890343480022832E-010   12.3150328142971        5.50607218492765     
   3.60435567629028        6.15751633622499        2.75303602679773     
   1.80217806303602       -6.15751632244667       -2.75303602548862     
  -1.80217806450578        7.25618357023409       0.295726387953531     
   1.80217770173342        6.15751636685247        4.22729879657894     
 -0.449929734876842        5.05884909577924        3.73608283637296     
   4.05428579677927       -7.25618351220978      -0.295726411536801     
  -1.80217776408424       -6.15751635961155       -4.22729878584278     
  0.449929720020651       -5.05884905388421       -3.73608279870284     
  -4.05428573301674       9.035909751485836E-010 -1.729757297517481E-011
  7.020110155391675E-012  5.908910582538695E-010 -2.176546304697445E-011
 -1.022564023737553E-010 -8.389819905307116E-009 -1.167875491797990E-008
  1.529567829645887E-008  7.698088923795737E-009  1.394421120710936E-008
 -1.884677164675408E-008  1.548434728260952E-002 -3.463276027223879E-002
  4.792831665251054E-009  4.340485415532669E-009  2.077790097990622E-002
 -3.174065570111413E-002 -1.548436744586004E-002  1.385482347832971E-002
  3.174069563792844E-002 -1.548434096427930E-002  3.463275598184853E-002
 -3.465102663431105E-009 -1.048047870710889E-009 -2.077790508072526E-002
  3.174066353344452E-002  1.548436409124788E-002 -1.385482296991269E-002
 -3.174068486875237E-002

* Maximum dynamic memory allocated =     4 MB

siesta:                 ==============================
                            Begin MD step =     50
                        ==============================

outcoor: Atomic coordinates (fractional):                   
    0.00000000    0.00000000    0.00000000   1       1  Mg
    0.50000000    0.50000000    0.50000000   1       2  Mg
    0.24999999    0.24999998    0.25000003   2       3  C
   -0.24999998   -0.24999998   -0.25000003   2       4  C
    0.58548445   -0.08548445    0.24999998   3       5  O
    0.24999999    0.58548442   -0.08548441   3       6  O
   -0.08548445    0.24999998    0.58548447   3       7  O
   -0.58548443    0.08548445   -0.24999999   3       8  O
   -0.24999999   -0.58548441    0.08548441   3       9  O
    0.08548445   -0.24999998   -0.58548446   3      10  O

outcell: Unit cell vectors (Ang):
        5.499878    0.133574    0.087439
        3.766893    4.009615    0.087439
        3.766893    1.684184    3.639806

outcell: Cell vector modules (Ang)   :    5.502195    5.502195    5.502195
outcell: Cell angles (23,13,12) (deg):     45.3904     45.3904     45.3904
outcell: Cell volume (Ang**3)        :     76.9032
New_DM. Step:    50
Initializing Density Matrix...

InitMesh: MESH =    24 x    24 x    24 =       13824
InitMesh: Mesh cutoff (required, used) =    50.000    65.606 Ry

siesta: Eharris(eV) =   -2971.183366


siesta: Eharris(eV) =   -2971.183366


siesta: Atomic forces (eV/Ang):
     1    0.000001    0.000000    0.000000
     2    0.000000    0.000000    0.000000
     3    0.000001   -0.000001   -0.000004
     4   -0.000001    0.000002    0.000004
     5   -1.042776    2.332342   -0.000005
     6    0.000003   -1.399287    2.137578
     7    1.042785   -0.933052   -2.137576
     8    1.042783   -2.332341    0.000019
     9   -0.000008    1.399286   -2.137573
    10   -1.042794    0.933050    2.137576
----------------------------------------
   Tot   -0.000006   -0.000001    0.000019
----------------------------------------
   Max    2.332342
   Res    1.142560    sqrt( Sum f_i^2 / 3N )
----------------------------------------
   Max    2.332342    constrained

Stress-tensor-Voigt (kbar):     1077.76     1118.79     1124.65      -22.93       -6.71      -15.01
(Free)E + p*V (eV/cell)    -2989.7978
Target enthalpy (eV/cell)    -2931.8603

siesta: Stress tensor (static) (eV/Ang**3):
         0.678467   -0.023378   -0.015303
        -0.023378    0.720302   -0.006842
        -0.015303   -0.006842    0.726276

siesta: Pressure (static):      -1134.91145519  kBar

siesta: Stress tensor (total) (eV/Ang**3):
         0.672676   -0.014311   -0.009368
        -0.014311    0.698286   -0.004188
        -0.009368   -0.004188    0.701942

siesta: Pressure (total):      -1107.06458499  kBar

siesta: E_kin PR =  116486.624 K

siesta: Temp_ion =    1689.668 K
 iupos on opening:           17
 iupos on writing:           17
 istep, xa, va :           50  2.578022655066779E-009 -7.951441394191440E-010
  3.116863403116517E-010   12.3065598993212        5.50228393012956     
   3.60187582917032        6.15327987657226        2.75114189572585     
   1.80093814244875       -6.15327986299904       -2.75114189360975     
  -1.80093814511222        7.25165190644787       0.294492517161331     
   1.80093777994401        6.15327991094445        4.22500854211027     
 -0.450564527735531        5.05490783825788        3.73392456951090     
   4.05244075310099       -7.25165184643768      -0.294492542128769     
  -1.80093783961455       -6.15327990381157       -4.22500853282330     
  0.450564515876136       -5.05490779888143       -3.73392453165649     
  -4.05244068651775       1.027390753059737E-009 -4.413943015192698E-012
  4.703297433884748E-011  6.227794267314180E-010  1.444775648731153E-011
 -1.375402187674425E-010 -7.808953816321973E-009 -1.270562576136716E-008
  1.403460543745411E-008  7.217377943060512E-009  1.511649643153549E-008
 -1.801563153624634E-008  1.520922314505090E-002 -3.401740745583743E-002
  5.410193629990969E-009  4.581265741765428E-009  2.040872041906654E-002
 -3.117668779360173E-002 -1.520924524993201E-002  1.360865088752629E-002
  3.117672791644071E-002 -1.520921716165328E-002  3.401740222234245E-002
  8.922589642404139E-011 -4.048750668061984E-009 -2.040872481518712E-002
  3.117669664021842E-002  1.520923823342935E-002 -1.360864974438352E-002
 -3.117671781879880E-002

* Maximum dynamic memory allocated =     5 MB

outcell: Unit cell vectors (Ang):
        5.491815    0.140181    0.091765
        3.766441    3.999201    0.091765
        3.766441    1.683982    3.628530

outcell: Cell vector modules (Ang)   :    5.494370    5.494370    5.494370
outcell: Cell angles (23,13,12) (deg):     45.2480     45.2480     45.2480
outcell: Cell volume (Ang**3)        :     76.1767

siesta: Program's energy decomposition (eV):
siesta: Ebs     =      -736.099589
siesta: Eions   =      5228.674091
siesta: Ena     =      1092.841640
siesta: Ekin    =      2411.129628
siesta: Enl     =      -399.386974
siesta: DEna    =      -121.413039
siesta: DUscf   =        36.081382
siesta: DUext   =         0.000000
siesta: Exc     =      -727.238714
siesta: eta*DQ  =         0.000000
siesta: Emadel  =         0.000000
siesta: Emeta   =         0.000000
siesta: Emolmec =         0.000000
siesta: Ekinion =         1.965582
siesta: Eharris =     -2969.217784
siesta: Etot    =     -2934.694586
siesta: FreeEng =     -2934.694586

siesta: Final energy (eV):
siesta:  Band Struct. =    -736.099589
siesta:       Kinetic =    2411.129628
siesta:       Hartree =     894.739331
siesta:    Ext. field =       0.000000
siesta:   Exch.-corr. =    -727.238714
siesta:  Ion-electron =   -3750.353618
siesta:       Ion-ion =   -1764.936794
siesta:       Ekinion =       1.965582
siesta:         Total =   -2934.694586

siesta: Atomic forces (eV/Ang):
siesta:      1    0.000001    0.000000    0.000000
siesta:      2    0.000000    0.000000    0.000000
siesta:      3    0.000001   -0.000001   -0.000004
siesta:      4   -0.000001    0.000002    0.000004
siesta:      5   -1.042776    2.332342   -0.000005
siesta:      6    0.000003   -1.399287    2.137578
siesta:      7    1.042785   -0.933052   -2.137576
siesta:      8    1.042783   -2.332341    0.000019
siesta:      9   -0.000008    1.399286   -2.137573
siesta:     10   -1.042794    0.933050    2.137576
siesta: ----------------------------------------
siesta:    Tot   -0.000006   -0.000001    0.000019

siesta: Stress tensor (static) (eV/Ang**3):
siesta:     0.678467   -0.023378   -0.015303
siesta:    -0.023378    0.720302   -0.006842
siesta:    -0.015303   -0.006842    0.726276

siesta: Cell volume =         76.903164 Ang**3

siesta: Pressure (static):
siesta:                Solid            Molecule  Units
siesta:          -0.00771482         -0.00668405  Ry/Bohr**3
siesta:          -0.70834836         -0.61370686  eV/Ang**3
siesta:       -1134.91145519       -983.27741910  kBar
(Free)E+ p_basis*V_orbitals  =       -2935.465871
(Free)Eharris+ p_basis*V_orbitals  =       -2919.595671

* Maximum dynamic memory allocated : Node    0 =     5 MB

* Maximum memory occured during ranger                        

timer: CPU execution times:
timer:  Routine       Calls   Time/call    Tot.time        %
timer:  siesta            1      24.567      24.567   100.00
timer:  Setup             1       0.465       0.465     1.89
timer:  bands             1       0.000       0.000     0.00
timer:  writewave         1       0.001       0.001     0.00
timer:  KSV_init          1       0.000       0.000     0.00
timer:  IterMD           50       0.482      24.093    98.07
timer:  hsparse          50       0.030       1.489     6.06
timer:  overlap          50       0.004       0.216     0.88
timer:  IterSCF          50       0.210      10.524    42.84
timer:  kinefsm         100       0.004       0.396     1.61
timer:  nlefsm          100       0.027       2.746    11.18
timer:  DHSCF           100       0.184      18.443    75.07
timer:  DHSCF1           50       0.022       1.083     4.41
timer:  DHSCF2           50       0.106       5.313    21.63
timer:  REORD           900       0.000       0.036     0.15
timer:  POISON          150       0.002       0.231     0.94
timer:  DHSCF3          100       0.050       4.965    20.21
timer:  rhoofd          100       0.021       2.115     8.61
timer:  cellXC          150       0.007       1.009     4.11
timer:  vmat            100       0.020       1.967     8.01
timer:  MolMec          100       0.000       0.001     0.00
timer:  diagon           50       0.001       0.059     0.24
timer:  r-eigvec         50       0.001       0.052     0.21
timer:  r-buildHS        50       0.000       0.001     0.00
timer:  rdiag            50       0.001       0.051     0.21
timer:  rdiag1           50       0.000       0.001     0.00
timer:  rdiag2           50       0.000       0.004     0.02
timer:  rdiag3           50       0.001       0.043     0.18
timer:  rdiag4           50       0.000       0.001     0.01
timer:  r-buildD         50       0.000       0.005     0.02
timer:  DHSCF4           50       0.142       7.075    28.80
timer:  dfscf            50       0.094       4.722    19.22
timer:  overfsm          50       0.004       0.184     0.75
timer:  optical           1       0.000       0.000     0.00
  

elaps: ELAPSED times:
elaps:  Routine       Calls   Time/call    Tot.time        %
elaps:  siesta            1      24.570      24.570   100.00
elaps:  Setup             1       0.466       0.466     1.90
elaps:  bands             1       0.000       0.000     0.00
elaps:  writewave         1       0.001       0.001     0.00
elaps:  KSV_init          1       0.000       0.000     0.00
elaps:  IterMD           50       0.482      24.096    98.07
elaps:  hsparse          50       0.030       1.490     6.06
elaps:  overlap          50       0.004       0.216     0.88
elaps:  IterSCF          50       0.210      10.524    42.83
elaps:  kinefsm         100       0.004       0.397     1.62
elaps:  nlefsm          100       0.027       2.750    11.19
elaps:  DHSCF           100       0.184      18.440    75.05
elaps:  DHSCF1           50       0.022       1.084     4.41
elaps:  DHSCF2           50       0.106       5.313    21.62
elaps:  REORD           900       0.000       0.034     0.14
elaps:  POISON          150       0.002       0.231     0.94
elaps:  DHSCF3          100       0.050       4.963    20.20
elaps:  rhoofd          100       0.021       2.114     8.61
elaps:  cellXC          150       0.007       1.009     4.11
elaps:  vmat            100       0.020       1.966     8.00
elaps:  MolMec          100       0.000       0.001     0.00
elaps:  diagon           50       0.001       0.059     0.24
elaps:  r-eigvec         50       0.001       0.053     0.21
elaps:  r-buildHS        50       0.000       0.000     0.00
elaps:  rdiag            50       0.001       0.052     0.21
elaps:  rdiag1           50       0.000       0.001     0.01
elaps:  rdiag2           50       0.000       0.004     0.02
elaps:  rdiag3           50       0.001       0.043     0.18
elaps:  rdiag4           50       0.000       0.002     0.01
elaps:  r-buildD         50       0.000       0.005     0.02
elaps:  DHSCF4           50       0.141       7.074    28.79
elaps:  dfscf            50       0.094       4.721    19.21
elaps:  overfsm          50       0.004       0.184     0.75
elaps:  optical           1       0.000       0.000     0.00
  
>> End of run:  10-JUN-2011  14:36:05
