Siesta Version:                                        siesta-3.0-rc2
Architecture  : macosx-openmpi
Compiler flags: /opt/openmpi.gcc.gfortran/bin/mpif90 -O2
PARALLEL version

* Running on    2 nodes in parallel
>> Start of run:  30-JUN-2010  16:51:35

                           ***********************       
                           *  WELCOME TO SIESTA  *       
                           ***********************       

reinit: Reading from standard input
************************** Dump of input data file ****************************
#
# MgCO3 in primitive cell. SZ Harris. Some MD steps in Verlet MD
#
SystemName	MgCo3 MD Verlet test -- SZ, 100 Ry  Harris
SystemLabel	md_verlet
NumberOfSpecies		3
NumberOfAtoms	       10
%block ChemicalSpeciesLabel
      1      12     Mg
      2       6     C
      3       8     O
%endblock ChemicalSpeciesLabel
PAO.BasisSize  SZ
# Rhombohedral primitive cell
# (HEX 3-fold cell had A=4.635 and C=15.023, so alpha=48.179 degrees
#  and a=5.67783 Ang)
LatticeConstant     5.67783 Ang
%block LatticeParameters
1.0 1.0 1.0 48.179 48.179 48.179
%endblock LatticeParameters
AtomicCoordinatesFormat    Fractional
%block AtomicCoordinatesAndAtomicSpecies
  0.0         0.0         0.0      1
  0.5         0.5         0.5      1
  0.25        0.25        0.25     2
 -0.25       -0.25       -0.25     2
  0.5274     -0.0274      0.25     3
  0.25        0.5274     -0.0274   3
 -0.0274      0.25        0.5274   3
 -0.5274      0.0274     -0.25     3
 -0.25       -0.5274      0.0274   3
  0.0274     -0.25       -0.5274   3
%endblock AtomicCoordinatesAndAtomicSpecies
HarrisFunctional T
Solution.Method       diagon
MeshCutoff             100 Ry
WriteCoorStep      .true.
WriteForces        .true.
WriteMDHistory     .true.
MD.UseSaveXV       T
MD.TypeOfRun         Verlet
MD.InitialTemperature 600 K
MD.Initial.Time.Step      1
MD.Final.Time.Step        5
MD.Length.Time.Step       1 fs
************************** End of input data file *****************************

reinit: -----------------------------------------------------------------------
reinit: System Name: MgCo3 MD Verlet test -- SZ, 100 Ry  Harris
reinit: -----------------------------------------------------------------------
reinit: System Label: md_verlet                                                   
reinit: -----------------------------------------------------------------------

initatom: Reading input for the pseudopotentials and atomic orbitals ----------
 Species number:            1  Label: Mg Atomic number:          12
 Species number:            2  Label: C Atomic number:           6
 Species number:            3  Label: O Atomic number:           8
Ground state valence configuration:   3s02
Reading pseudopotential information in formatted form from Mg.psf

Valence configuration for pseudopotential generation:
3s( 2.00) rc: 2.59
3p( 0.00) rc: 2.59
3d( 0.00) rc: 2.59
4f( 0.00) rc: 2.59
Ground state valence configuration:   2s02  2p02
Reading pseudopotential information in formatted form from C.psf

Valence configuration for pseudopotential generation:
2s( 2.00) rc: 1.49
2p( 2.00) rc: 1.52
3d( 0.00) rc: 1.58
Ground state valence configuration:   2s02  2p04
Reading pseudopotential information in formatted form from O.psf

Valence configuration for pseudopotential generation:
2s( 2.00) rc: 1.14
2p( 4.00) rc: 1.14
3d( 0.00) rc: 1.14
4f( 0.00) rc: 1.14
For Mg, standard SIESTA heuristics set lmxkb to 1
 (one more than the basis l, including polarization orbitals).
Use PS.lmax or PS.KBprojectors blocks to override.
For C, standard SIESTA heuristics set lmxkb to 2
 (one more than the basis l, including polarization orbitals).
Use PS.lmax or PS.KBprojectors blocks to override.
For O, standard SIESTA heuristics set lmxkb to 2
 (one more than the basis l, including polarization orbitals).
Use PS.lmax or PS.KBprojectors blocks to override.

<basis_specs>
===============================================================================
Mg                   Z=  12    Mass=  24.310        Charge= 0.17977+309
Lmxo=0 Lmxkb=1     BasisType=split      Semic=F
L=0  Nsemic=0  Cnfigmx=3
          n=1  nzeta=1  polorb=0
            splnorm:   0.15000    
               vcte:    0.0000    
               rinn:    0.0000    
                rcs:    0.0000    
            lambdas:    1.0000    
-------------------------------------------------------------------------------
L=0  Nkbl=1  erefs: 0.17977+309
L=1  Nkbl=1  erefs: 0.17977+309
===============================================================================
</basis_specs>

atom: Called for Mg                    (Z =  12)

read_vps: Pseudopotential generation method:
read_vps: ATM3      Troullier-Martins                       
Total valence charge:    2.00000

xc_check: Exchange-correlation functional:
xc_check: Ceperley-Alder
V l=0 = -2*Zval/r beyond r=  3.5878
V l=1 = -2*Zval/r beyond r=  3.5878
All V_l potentials equal beyond r=  2.5600
This should be close to max(r_c) in ps generation
All pots = -2*Zval/r beyond r=  3.5878
Using large-core scheme for Vlocal

atom: Estimated core radius    3.58779

atom: Including non-local core corrections could be a good idea
atom: Maximum radius for 4*pi*r*r*local-pseudopot. charge    3.91588
atom: Maximum radius for r*vlocal+2*Zval:    3.63292
GHOST: No ghost state for L =  0
GHOST: No ghost state for L =  1

KBgen: Kleinman-Bylander projectors: 
   l= 0   rc=  2.657845   el= -0.351328   Ekb=  2.184400   kbcos=  0.257081
   l= 1   rc=  2.657845   el= -0.101748   Ekb=  0.525536   kbcos=  0.270508

KBgen: Total number of  Kleinman-Bylander projectors:    4
atom: -------------------------------------------------------------------------

atom: SANKEY-TYPE ORBITALS:

SPLIT: Orbitals with angular momentum L= 0

SPLIT: Basis orbitals for state 3s

SPLIT: PAO cut-off radius determined from an
SPLIT: energy shift=  0.020000 Ry

   izeta = 1
                 lambda =    1.000000
                     rc =    6.619780
                 energy =   -0.332103
                kinetic =    0.289627
    potential(screened) =   -0.621729
       potential(ionic) =   -1.387191
atom: Total number of Sankey-type orbitals:  1

atm_pop: Valence configuration (for local Pseudopot. screening):
 3s( 2.00)                                                            
Vna: chval, zval:    2.00000   2.00000

Vna:  Cut-off radius for the neutral-atom potential:   6.619780

atom: _________________________________________________________________________

<basis_specs>
===============================================================================
C                    Z=   6    Mass=  12.010        Charge= 0.17977+309
Lmxo=1 Lmxkb=2     BasisType=split      Semic=F
L=0  Nsemic=0  Cnfigmx=2
          n=1  nzeta=1  polorb=0
            splnorm:   0.15000    
               vcte:    0.0000    
               rinn:    0.0000    
                rcs:    0.0000    
            lambdas:    1.0000    
L=1  Nsemic=0  Cnfigmx=2
          n=1  nzeta=1  polorb=0
            splnorm:   0.15000    
               vcte:    0.0000    
               rinn:    0.0000    
                rcs:    0.0000    
            lambdas:    1.0000    
-------------------------------------------------------------------------------
L=0  Nkbl=1  erefs: 0.17977+309
L=1  Nkbl=1  erefs: 0.17977+309
L=2  Nkbl=1  erefs: 0.17977+309
===============================================================================
</basis_specs>

atom: Called for C                     (Z =   6)

read_vps: Pseudopotential generation method:
read_vps: ATM3      Troullier-Martins                       
Total valence charge:    4.00000

xc_check: Exchange-correlation functional:
xc_check: Ceperley-Alder
V l=0 = -2*Zval/r beyond r=  1.4666
V l=1 = -2*Zval/r beyond r=  1.5038
V l=2 = -2*Zval/r beyond r=  1.5612
All V_l potentials equal beyond r=  1.5612
This should be close to max(r_c) in ps generation
All pots = -2*Zval/r beyond r=  1.5612

VLOCAL1: 99.0% of the norm of Vloc inside     17.809 Ry
VLOCAL1: 99.9% of the norm of Vloc inside     40.586 Ry
atom: Maximum radius for 4*pi*r*r*local-pseudopot. charge    1.88329
atom: Maximum radius for r*vlocal+2*Zval:    1.62091
GHOST: No ghost state for L =  0
GHOST: No ghost state for L =  1
GHOST: No ghost state for L =  2

KBgen: Kleinman-Bylander projectors: 
   l= 0   rc=  1.747182   el= -1.001947   Ekb=  5.181700   kbcos=  0.300603
   l= 1   rc=  1.747182   el= -0.398598   Ekb= -4.328763   kbcos= -0.367074
   l= 2   rc=  1.955272   el=  0.002326   Ekb= -1.016175   kbcos= -0.009979

KBgen: Total number of  Kleinman-Bylander projectors:    9
atom: -------------------------------------------------------------------------

atom: SANKEY-TYPE ORBITALS:

SPLIT: Orbitals with angular momentum L= 0

SPLIT: Basis orbitals for state 2s

SPLIT: PAO cut-off radius determined from an
SPLIT: energy shift=  0.020000 Ry

   izeta = 1
                 lambda =    1.000000
                     rc =    4.191849
                 energy =   -0.983897
                kinetic =    0.886956
    potential(screened) =   -1.870853
       potential(ionic) =   -5.479661

SPLIT: Orbitals with angular momentum L= 1

SPLIT: Basis orbitals for state 2p

SPLIT: PAO cut-off radius determined from an
SPLIT: energy shift=  0.020000 Ry

   izeta = 1
                 lambda =    1.000000
                     rc =    4.870301
                 energy =   -0.379093
                kinetic =    2.545357
    potential(screened) =   -2.924450
       potential(ionic) =   -6.433151
atom: Total number of Sankey-type orbitals:  4

atm_pop: Valence configuration (for local Pseudopot. screening):
 2s( 2.00)                                                            
 2p( 2.00)                                                            
Vna: chval, zval:    4.00000   4.00000

Vna:  Cut-off radius for the neutral-atom potential:   4.870301

atom: _________________________________________________________________________

<basis_specs>
===============================================================================
O                    Z=   8    Mass=  16.000        Charge= 0.17977+309
Lmxo=1 Lmxkb=2     BasisType=split      Semic=F
L=0  Nsemic=0  Cnfigmx=2
          n=1  nzeta=1  polorb=0
            splnorm:   0.15000    
               vcte:    0.0000    
               rinn:    0.0000    
                rcs:    0.0000    
            lambdas:    1.0000    
L=1  Nsemic=0  Cnfigmx=2
          n=1  nzeta=1  polorb=0
            splnorm:   0.15000    
               vcte:    0.0000    
               rinn:    0.0000    
                rcs:    0.0000    
            lambdas:    1.0000    
-------------------------------------------------------------------------------
L=0  Nkbl=1  erefs: 0.17977+309
L=1  Nkbl=1  erefs: 0.17977+309
L=2  Nkbl=1  erefs: 0.17977+309
===============================================================================
</basis_specs>

atom: Called for O                     (Z =   8)

read_vps: Pseudopotential generation method:
read_vps: ATM3      Troullier-Martins                       
Total valence charge:    6.00000

xc_check: Exchange-correlation functional:
xc_check: Ceperley-Alder
V l=0 = -2*Zval/r beyond r=  1.1278
V l=1 = -2*Zval/r beyond r=  1.1278
V l=2 = -2*Zval/r beyond r=  1.1278
All V_l potentials equal beyond r=  1.1278
This should be close to max(r_c) in ps generation
All pots = -2*Zval/r beyond r=  1.1278

VLOCAL1: 99.0% of the norm of Vloc inside     34.126 Ry
VLOCAL1: 99.9% of the norm of Vloc inside     77.774 Ry
atom: Maximum radius for 4*pi*r*r*local-pseudopot. charge    1.37759
atom: Maximum radius for r*vlocal+2*Zval:    1.18566
GHOST: No ghost state for L =  0
GHOST: No ghost state for L =  1
GHOST: No ghost state for L =  2

KBgen: Kleinman-Bylander projectors: 
   l= 0   rc=  1.294105   el= -1.742414   Ekb=  9.135903   kbcos=  0.326910
   l= 1   rc=  1.294105   el= -0.676589   Ekb= -8.124878   kbcos= -0.395047
   l= 2   rc=  1.448233   el=  0.002386   Ekb= -2.039267   kbcos= -0.003484

KBgen: Total number of  Kleinman-Bylander projectors:    9
atom: -------------------------------------------------------------------------

atom: SANKEY-TYPE ORBITALS:

SPLIT: Orbitals with angular momentum L= 0

SPLIT: Basis orbitals for state 2s

SPLIT: PAO cut-off radius determined from an
SPLIT: energy shift=  0.020000 Ry

   izeta = 1
                 lambda =    1.000000
                     rc =    3.305093
                 energy =   -1.723766
                kinetic =    1.614911
    potential(screened) =   -3.338677
       potential(ionic) =  -11.304675

SPLIT: Orbitals with angular momentum L= 1

SPLIT: Basis orbitals for state 2p

SPLIT: PAO cut-off radius determined from an
SPLIT: energy shift=  0.020000 Ry

   izeta = 1
                 lambda =    1.000000
                     rc =    3.937239
                 energy =   -0.658841
                kinetic =    5.005986
    potential(screened) =   -5.664827
       potential(ionic) =  -13.452360
atom: Total number of Sankey-type orbitals:  4

atm_pop: Valence configuration (for local Pseudopot. screening):
 2s( 2.00)                                                            
 2p( 4.00)                                                            
Vna: chval, zval:    6.00000   6.00000

Vna:  Cut-off radius for the neutral-atom potential:   3.937239

atom: _________________________________________________________________________

prinput: Basis input ----------------------------------------------------------

PAO.BasisType split     

%block ChemicalSpeciesLabel
    1   12 Mg                      # Species index, atomic number, species label
    2    6 C                       # Species index, atomic number, species label
    3    8 O                       # Species index, atomic number, species label
%endblock ChemicalSpeciesLabel

%block PAO.Basis                 # Define Basis set
Mg                    1                    # Species label, number of l-shells
 n=3   0   1                         # n, l, Nzeta 
   6.620   
   1.000   
C                     2                    # Species label, number of l-shells
 n=2   0   1                         # n, l, Nzeta 
   4.192   
   1.000   
 n=2   1   1                         # n, l, Nzeta 
   4.870   
   1.000   
O                     2                    # Species label, number of l-shells
 n=2   0   1                         # n, l, Nzeta 
   3.305   
   1.000   
 n=2   1   1                         # n, l, Nzeta 
   3.937   
   1.000   
%endblock PAO.Basis

prinput: ----------------------------------------------------------------------

coor:   Atomic-coordinates input format  =     Fractional

siesta: WARNING: XV file not found

siesta: Atomic coordinates (Bohr) and species
siesta:      0.00000   0.00000   0.00000  1        1
siesta:     12.51930   5.59740   3.66414  1        2
siesta:      6.25965   2.79870   1.83207  2        3
siesta:     -6.25965  -2.79870  -1.83207  2        4
siesta:      7.25136   0.58061   1.83207  3        5
siesta:      6.25965   4.12944  -0.20079  3        6
siesta:      5.26794   3.68605   3.86493  3        7
siesta:     -7.25136  -0.58061  -1.83207  3        8
siesta:     -6.25965  -4.12944   0.20079  3        9
siesta:     -5.26794  -3.68605  -3.86493  3       10

siesta: System type = bulk      

initatomlists: Number of atoms, orbitals, and projectors:     10    34    80

siesta: ******************** Simulation parameters ****************************
siesta:
siesta: The following are some of the parameters of the simulation.
siesta: A complete list of the parameters used, including default values,
siesta: can be found in file out.fdf
siesta:
redata: Non-Collinear-spin run           =     F
redata: SpinPolarized (Up/Down) run      =     F
redata: Number of spin components        =     1
redata: Long output                      =     F
redata: Number of Atomic Species         =        3
redata: Charge density info will appear in .RHO file
redata: Write Mulliken Pop.              =     NO
redata: Mesh Cutoff                      =   100.0000  Ry
redata: Net charge of the system         =     0.0000 |e|
redata: Max. number of SCF Iter          =       50
redata: Mixing is linear
redata: Mix DM in first SCF step ?       =     F
redata: Write Pulay info on disk?        =     F
redata: Discard 1st Pulay DM after  kick =     F
redata: New DM Mixing Weight             =     0.2500
redata: New DM Occupancy tolerance       = 0.000000000001
redata: No kicks to SCF
redata: DM Mixing Weight for Kicks       =     0.5000
redata: DM Tolerance for SCF             =     0.000100
redata: Require Energy convergence for SCF =     F
redata: DM Energy tolerance for SCF      =     0.000100 eV
redata: Require Harris convergence for SCF =     F
redata: DM Harris energy tolerance for SCF =     0.000100 eV
redata: Using Saved Data (generic)   =     F
redata: Use continuation files for DM    =     F
redata: Neglect nonoverlap interactions  =     F
redata: Method of Calculation            =     Diagonalization
redata: Divide and Conquer               =     T
redata: Electronic Temperature           =     0.0019  Ry
redata: Fix the spin of the system       =     F
redata: Dynamics option                  =     Verlet MD run
redata: Initial MD time step             =        1
redata:   Final MD time step             =        5
redata: Length of MD time step           =     1.0000  fs
redata: Initial Temperature of MD run    =   600.0000  K
redata: Perform a MD quench              =     F
redata: ***********************************************************************
Total number of electrons:    48.000000
Total ionic charge:    48.000000

* ProcessorY, Blocksize:    1  17

 Kpoints in:            1 . Kpoints trimmed:            1

siesta: k-grid: Number of k-points =     1
siesta: k-grid: Cutoff (effective) =     2.317 Ang
siesta: k-grid: Supercell and displacements
siesta: k-grid:    1   0   0      0.000
siesta: k-grid:    0   1   0      0.000
siesta: k-grid:    0   0   1      0.000

* Maximum dynamic memory allocated =     3 MB

siesta:                 ==============================
                            Begin MD step =      1
                        ==============================

outcoor: Atomic coordinates (fractional):                   
    0.00000000    0.00000000    0.00000000   1       1  Mg
    0.50000000    0.50000000    0.50000000   1       2  Mg
    0.25000000    0.25000000    0.25000000   2       3  C
   -0.25000000   -0.25000000   -0.25000000   2       4  C
    0.52740000   -0.02740000    0.25000000   3       5  O
    0.25000000    0.52740000   -0.02740000   3       6  O
   -0.02740000    0.25000000    0.52740000   3       7  O
   -0.52740000    0.02740000   -0.25000000   3       8  O
   -0.25000000   -0.52740000    0.02740000   3       9  O
    0.02740000   -0.25000000   -0.52740000   3      10  O

outcell: Unit cell vectors (Ang):
        5.677830    0.000000    0.000000
        3.786009    4.231299    0.000000
        3.786009    1.692731    3.877957

outcell: Cell vector modules (Ang)   :    5.677830    5.677830    5.677830
outcell: Cell angles (23,13,12) (deg):     48.1790     48.1790     48.1790
outcell: Cell volume (Ang**3)        :     93.1663

NOTE: orbital pair      1     1 (at least) is multiply connected.
NOTE: Harmless for Gamma calculations, except if a COHP analysis is intended.
New_DM. Step:     1
Initializing Density Matrix...

InitMesh: MESH =    32 x    32 x    32 =       32768
InitMesh: Mesh cutoff (required, used) =   100.000   112.857 Ry

* Maximum dynamic memory allocated =     5 MB

stepf: Fermi-Dirac step function

siesta: Program's energy decomposition (eV):
siesta: Ebs     =      -719.731835
siesta: Eions   =      5228.674091
siesta: Ena     =      1092.429444
siesta: Ekin    =      2069.792750
siesta: Enl     =      -254.036133
siesta: DEna    =        15.976650
siesta: DUscf   =         0.158309
siesta: DUext   =         0.000000
siesta: Exc     =      -679.226103
siesta: eta*DQ  =         0.000000
siesta: Emadel  =         0.000000
siesta: Emeta   =         0.000000
siesta: Emolmec =         0.000000
siesta: Ekinion =         0.000000
siesta: Eharris =     -2966.548610
siesta: Etot    =     -2983.579175
siesta: FreeEng =     -2983.579175

siesta: Eharris(eV) =   -2966.548610


siesta: Eharris(eV) =   -2966.548610

timer: Routine,Calls,Time,% = IterSCF        1       1.190  51.04
elaps: Routine,Calls,Wall,% = IterSCF        1       0.611  50.87

siesta: E_KS - E_eggbox =     -2945.3446

siesta: Atomic forces (eV/Ang):
     1   -0.000000    0.000000   -0.000000
     2    0.000000    0.000000    0.000000
     3    0.000001   -0.000001    0.000001
     4   -0.000001    0.000001   -0.000000
     5    2.753943   -6.159527   -0.000005
     6   -0.000002    3.695396   -5.645145
     7   -2.753928    2.464114    5.645152
     8   -2.753942    6.159526    0.000003
     9    0.000003   -3.695396    5.645146
    10    2.753928   -2.464115   -5.645152
----------------------------------------
   Tot    0.000000   -0.000002   -0.000001
----------------------------------------
   Max    6.159527
   Res    3.017409    sqrt( Sum f_i^2 / 3N )
----------------------------------------
   Max    6.159527    constrained

Stress-tensor-Voigt (kbar):      654.06      456.91      425.46      110.52       28.07       71.70
(Free)E + p*V (eV/cell)    -2975.1253
Target enthalpy (eV/cell)    -2945.3446

siesta: Stress tensor (static) (eV/Ang**3):
         0.410796    0.067429    0.044140
         0.067429    0.290131    0.019735
         0.044140    0.019735    0.272902

siesta: Pressure (static):       -520.08737434  kBar

siesta: Stress tensor (total) (eV/Ang**3):
         0.408226    0.068982    0.044751
         0.068982    0.285181    0.017520
         0.044751    0.017520    0.265547

siesta: Pressure (total):       -512.14294686  kBar

siesta: Temp_ion =     600.000 K
 iupos on opening:           16
 iupos on writing:           16
 istep, xa, va :            1  8.67660661731436966E-003 -1.63531508476395041E-002  2.75412198218801668E-003   12.516462249488018        5.6003862385345835        3.6630386803088846        6.2648485813650305        2.7916013206762629        1.8221103955173528       -6.2627560455887075       -2.7900460636912752       -1.8180163973786996        7.2450964320983386       0.58617134574518304        1.8185027556459334        6.2493511899182721        4.1405041396429425      -0.17716137758927614        5.2688809096374420        3.6984749535518842        3.8690170960387058       -7.2621226415502269      -0.58743892772340356       -1.8451595260489608       -6.2526462023483882       -4.1379913680006224       0.19225148187198199       -5.2590059848647890       -3.6805794839713761       -3.8630352455070209       8.67660662346333988E-003 -1.63531508571509408E-002  2.75412198637611403E-003 -2.83500222717316449E-003  2.98707917234507887E-003 -1.10096990583535815E-003  5.19995479759313359E-003 -7.09825800977354014E-003 -9.95943000120425546E-003 -3.10741907158113180E-003  8.65351509377590769E-003  1.40534280195283405E-002 -7.82189248400776659E-003  9.04614402427993125E-003 -1.35670668391406121E-002 -1.02974348102740677E-002  8.97109057298165445E-003  2.68268221835015509E-002  2.50197435908222588E-003  1.10344749954860363E-002  8.89242173480404678E-004 -9.20431715487377358E-003 -1.03137254358704883E-002 -1.30897029195760125E-002  7.00242207279524326E-003 -6.45831863793046215E-003 -1.17367181994952850E-002  7.37295070832699045E-003  6.86099479847596897E-003  5.09260839635382236E-003

* Maximum dynamic memory allocated =     5 MB

siesta:                 ==============================
                            Begin MD step =      2
                        ==============================

outcoor: Atomic coordinates (fractional):                   
    0.00202205   -0.00219551    0.00037582   1       1  Mg
    0.49954678    0.50043367    0.49984976   1       2  Mg
    0.25162026    0.24965596    0.24864096   2       3  C
   -0.25177843   -0.24968494   -0.24808230   2       4  C
    0.52709300   -0.02596380    0.24814867   3       5  O
    0.24682768    0.52749323   -0.02417503   3       6  O
   -0.02857131    0.25133146    0.52795710   3       7  O
   -0.52711895    0.02726046   -0.25178619   3       8  O
   -0.24816809   -0.52800274    0.02623419   3       9  O
    0.02767276   -0.24941995   -0.52714083   3      10  O

outcell: Unit cell vectors (Ang):
        5.677830    0.000000    0.000000
        3.786009    4.231299    0.000000
        3.786009    1.692731    3.877957

outcell: Cell vector modules (Ang)   :    5.677830    5.677830    5.677830
outcell: Cell angles (23,13,12) (deg):     48.1790     48.1790     48.1790
outcell: Cell volume (Ang**3)        :     93.1663
New_DM. Step:     2
Initializing Density Matrix...

siesta: Eharris(eV) =   -2966.465549


siesta: Eharris(eV) =   -2966.465549


siesta: Atomic forces (eV/Ang):
     1   -0.023459    0.047770   -0.009394
     2    0.006518   -0.011016    0.001835
     3   -0.457553    0.363005    1.047311
     4    0.333740   -0.367693   -0.655758
     5    2.960927   -6.657477    0.147432
     6    0.029399    4.066692   -6.345283
     7   -2.519778    2.112470    5.194147
     8   -2.831152    6.512595    0.083164
     9   -0.036920   -3.753792    5.937705
    10    2.550243   -2.344148   -5.327687
----------------------------------------
   Tot    0.011967   -0.031594    0.073471
----------------------------------------
   Max    6.657477
   Res    3.109067    sqrt( Sum f_i^2 / 3N )
----------------------------------------
   Max    6.657477    constrained

Stress-tensor-Voigt (kbar):      655.18      437.76      422.69      112.55       45.63       64.94
(Free)E + p*V (eV/cell)    -2974.6585
Target enthalpy (eV/cell)    -2945.2809

siesta: Stress tensor (static) (eV/Ang**3):
         0.411497    0.068693    0.039916
         0.068693    0.278175    0.030694
         0.039922    0.030693    0.271176

siesta: Pressure (static):       -513.15484406  kBar

siesta: Stress tensor (total) (eV/Ang**3):
         0.408927    0.070246    0.040527
         0.070246    0.273225    0.028479
         0.040534    0.028478    0.263821

siesta: Pressure (total):       -505.21041659  kBar

siesta: Temp_ion =     532.110 K
 iupos on opening:           17
 iupos on writing:           17
 istep, xa, va :            2  1.73357454234914221E-002 -3.26707313940219415E-002  5.50124911499220992E-003   12.513632100847826        5.6033651153174917        3.6619390765855853        6.2693589020407829        2.7850501921667203        1.8137294986287431       -6.2653604435842301       -2.7819467431127607       -1.8049513442417950        7.2421822655967603       0.58420116112410780        1.8051024850161752        6.2390870147261923        4.1561665361604225      -0.16070670381720112        5.2669742645773656        3.7132932943301320        3.8789761407452636       -7.2760878624726626      -0.58690023939745672       -1.8581551388877844       -6.2456855486237970       -4.1507869908750559       0.19042579536036777       -5.2471899473323811       -3.6777644664054692       -3.8671635224314751       8.66787271174571106E-003 -1.63353656970109708E-002  2.75062455749610539E-003 -2.83257543278610507E-003  2.98297797919330407E-003 -1.10028681377810048E-003  4.85513809204230363E-003 -6.82469375641611697E-003 -9.17016323891383343E-003 -2.85590886376592152E-003  8.37641828339629954E-003  1.35592404323879121E-002 -4.58910406942422688E-003  1.79581843686695518E-003 -1.34836700451978642E-002 -1.02808055652527791E-002  1.33619496174719240E-002  2.00440745072395163E-002 -4.81256700209823935E-004  1.36233582336632020E-002  7.02081885022112513E-003 -1.23636943685270610E-002 -3.14535757354134516E-003 -1.30426568906068484E-002  6.98153861645018844E-003 -1.06721769747885123E-002 -5.18452873565620510E-003  1.03734153227017997E-002  4.14105572866814604E-003 -1.11450969332649915E-003

* Maximum dynamic memory allocated =     5 MB

siesta:                 ==============================
                            Begin MD step =      3
                        ==============================

outcoor: Atomic coordinates (fractional):                   
    0.00403988   -0.00438620    0.00075069   1       1  Mg
    0.49909462    0.50086625    0.49969971   1       2  Mg
    0.25304446    0.24929417    0.24749732   2       3  C
   -0.25340980   -0.24938524   -0.24629947   2       4  C
    0.52771721   -0.02547868    0.24632010   3       5  O
    0.24366667    0.52855375   -0.02192966   3       6  O
   -0.03052841    0.25264101    0.52931609   3       7  O
   -0.52775601    0.02803726   -0.25355954   3       8  O
   -0.24635263   -0.52950333    0.02598506   3       9  O
    0.02876463   -0.24884254   -0.52770417   3      10  O

outcell: Unit cell vectors (Ang):
        5.677830    0.000000    0.000000
        3.786009    4.231299    0.000000
        3.786009    1.692731    3.877957

outcell: Cell vector modules (Ang)   :    5.677830    5.677830    5.677830
outcell: Cell angles (23,13,12) (deg):     48.1790     48.1790     48.1790
outcell: Cell volume (Ang**3)        :     93.1663
New_DM. Step:     3
Initializing Density Matrix...

siesta: Eharris(eV) =   -2966.534022


siesta: Eharris(eV) =   -2966.534022


siesta: Atomic forces (eV/Ang):
     1   -0.046819    0.101699   -0.018950
     2    0.015546   -0.027355    0.004638
     3   -0.820922    0.662169    1.883869
     4    0.599483   -0.665062   -1.177313
     5    2.973278   -6.717069    0.273487
     6    0.074490    4.185604   -6.669837
     7   -2.230157    1.722550    4.553552
     8   -2.719435    6.418316    0.157212
     9   -0.051124   -3.659817    5.889589
    10    2.214979   -2.109071   -4.756202
----------------------------------------
   Tot    0.009320   -0.088035    0.140045
----------------------------------------
   Max    6.717069
   Res    3.056464    sqrt( Sum f_i^2 / 3N )
----------------------------------------
   Max    6.717069    constrained

Stress-tensor-Voigt (kbar):      661.55      441.35      446.43      106.98       58.12       54.02
(Free)E + p*V (eV/cell)    -2975.3196
Target enthalpy (eV/cell)    -2945.2889

siesta: Stress tensor (static) (eV/Ang**3):
         0.415823    0.064702    0.033430
         0.064701    0.280523    0.038716
         0.033442    0.038716    0.283850

siesta: Pressure (static):       -523.48840925  kBar

siesta: Stress tensor (total) (eV/Ang**3):
         0.412901    0.066774    0.033707
         0.066773    0.275465    0.036274
         0.033719    0.036274    0.278639

siesta: Pressure (total):       -516.44289247  kBar

siesta: Temp_ion =     587.245 K
 iupos on opening:           17
 iupos on writing:           17
 istep, xa, va :            3  2.59600214038528329E-002 -4.89125846655658961E-002  8.23426565149100627E-003   12.510813528297227        5.6063236230347417        3.6608429263803250        6.2726319095352778        2.7794971004229110        1.8081880148337872       -6.2670612857056209       -2.7748498196269566       -1.7936607665211044        7.2426319483145543       0.57463155097544627        1.7920116266710764        6.2289071149106539        4.1765643597116000      -0.15179801930098177        5.2625445086667195        3.7300604602154630        3.8940868937635664       -7.2931297447230419      -0.57910012272655653       -1.8709728879266689       -6.2387827349936771       -4.1677231859870503       0.19526335682138934       -5.2328679705353096       -3.6773355677558794       -3.8766727773340466       8.64170739326923162E-003 -1.62797169089631960E-002  2.74007183465149523E-003 -2.82436059539482040E-003  2.96869225007939273E-003 -1.09787696427975480E-003  3.89166408512355922E-003 -6.05211012667579776E-003 -6.96119034178284239E-003 -2.15262005845668312E-003  7.59812203215931396E-003  1.21778154287976170E-002 -1.23224189189242474E-003 -5.76989738486833811E-003 -1.32455644874285693E-002 -1.02220375038093707E-002  1.80301100343289514E-002  1.26816791441471798E-002 -3.16820048536087424E-003  1.57927533317895365E-002  1.25348988624302375E-002 -1.55035515864078068E-002  4.16940249842360361E-003 -1.29066809388541509E-002  6.93173367735576418E-003 -1.48659089932141244E-002  1.50593747470367627E-003  1.30690071647394795E-002  1.62195810774849129E-003 -6.81876591351278285E-003

* Maximum dynamic memory allocated =     5 MB

siesta:                 ==============================
                            Begin MD step =      4
                        ==============================

outcoor: Atomic coordinates (fractional):                   
    0.00604892   -0.00656664    0.00112363   1       1  Mg
    0.49864505    0.50129608    0.49955014   1       2  Mg
    0.25411510    0.24890219    0.24674114   2       3  C
   -0.25477650   -0.24911403   -0.24475879   2       4  C
    0.52927179   -0.02596085    0.24453375   3       5  O
    0.24053055    0.53061843   -0.02071401   3       6  O
   -0.03316441    0.25391306    0.53137807   3       7  O
   -0.52929508    0.02971248   -0.25530862   3       8  O
   -0.24456102   -0.53188550    0.02664518   3       9  O
    0.03058279   -0.24826979   -0.52900178   3      10  O

outcell: Unit cell vectors (Ang):
        5.677830    0.000000    0.000000
        3.786009    4.231299    0.000000
        3.786009    1.692731    3.877957

outcell: Cell vector modules (Ang)   :    5.677830    5.677830    5.677830
outcell: Cell angles (23,13,12) (deg):     48.1790     48.1790     48.1790
outcell: Cell volume (Ang**3)        :     93.1663
New_DM. Step:     4
Initializing Density Matrix...

siesta: Eharris(eV) =   -2966.748444


siesta: Eharris(eV) =   -2966.748444


siesta: Atomic forces (eV/Ang):
     1   -0.083045    0.167747   -0.038381
     2    0.025443   -0.036977    0.010689
     3   -1.041233    0.871291    2.379579
     4    0.759465   -0.854576   -1.495815
     5    2.849367   -6.431877    0.358690
     6    0.083540    4.042064   -6.513590
     7   -1.920499    1.323811    3.904347
     8   -2.457331    5.989648    0.200976
     9   -0.074595   -3.319491    5.485524
    10    1.870265   -1.872116   -4.145947
----------------------------------------
   Tot    0.011377   -0.120476    0.146072
----------------------------------------
   Max    6.513590
   Res    2.871841    sqrt( Sum f_i^2 / 3N )
----------------------------------------
   Max    6.513590    constrained

Stress-tensor-Voigt (kbar):      671.10      460.46      482.22       97.69       62.86       42.95
(Free)E + p*V (eV/cell)    -2976.6465
Target enthalpy (eV/cell)    -2945.3664

siesta: Stress tensor (static) (eV/Ang**3):
         0.422429    0.057833    0.026636
         0.057832    0.294052    0.041445
         0.026653    0.041447    0.305312

siesta: Pressure (static):       -545.70343673  kBar

siesta: Stress tensor (total) (eV/Ang**3):
         0.418862    0.060974    0.026790
         0.060973    0.287394    0.039231
         0.026808    0.039233    0.300977

siesta: Pressure (total):       -537.92789607  kBar

siesta: Temp_ion =     761.029 K
 iupos on opening:           17
 iupos on writing:           17
 istep, xa, va :            4  3.45224604004866764E-002 -6.50295297176839565E-002  1.09387025391730654E-002   12.508013900859423        5.6092545968856582        3.6597547352096651        6.2743355454981726        2.7752572403688025        1.8062330914168427       -6.2676174435804111       -2.7690409346457847       -1.7846247171485765        7.2463052919188167       0.55778517050826193        1.7793265755373429        6.2188217286000738        4.2015352141026989      -0.15025855217206210        5.2559419766386650        3.7483253333653836        3.9136148702475224       -7.3129517542206788      -0.56452355612171112       -1.8835632601968686       -6.2319643146580095       -4.1884149220569524       0.20630702258673406       -5.2164300499481220       -3.6790247064705897       -3.8908725927396817       8.59335748849762888E-003 -1.61793991618310110E-002  2.71872671209042729E-003 -2.80909999420004067E-003  2.94474078408307315E-003 -1.09217068796012241E-003  2.48832172869500878E-003 -4.89647589895903998E-003 -3.74820360595026639E-003 -1.12849999809066484E-003  6.45290423348781565E-003  1.01633135466093170E-002  2.06151316102810931E-003 -1.32079953079228818E-002 -1.28879547394162228E-002 -1.01326430630589472E-002  2.26843389711385741E-002  5.22407582256951414E-003 -5.51614396935015770E-003  1.75160195176258145E-002  1.73193647511294471E-002 -1.84319458740083535E-002  1.11883416378728805E-002 -1.27040606545421580E-002  6.86061698289351565E-003 -1.88139655909483686E-002  7.94061361318314229E-003  1.53799486921296358E-002 -6.30120032560192028E-004 -1.18545351541032261E-002

* Maximum dynamic memory allocated =     5 MB

siesta:                 ==============================
                            Begin MD step =      5
                        ==============================

outcoor: Atomic coordinates (fractional):                   
    0.00804334   -0.00872990    0.00149267   1       1  Mg
    0.49819910    0.50172204    0.49940164   1       2  Mg
    0.25473417    0.24847867    0.24647438   2       3  C
   -0.25580603   -0.24888084   -0.24352575   2       4  C
    0.53171148   -0.02737522    0.24280278   3       5  O
    0.23742416    0.53365731   -0.02050393   3       6  O
   -0.03636895    0.25513128    0.53404281   3       7  O
   -0.53167077    0.03222277   -0.25702667   3       8  O
   -0.24280287   -0.53507613    0.02815218   3       9  O
    0.03303084   -0.24770587   -0.53093945   3      10  O

outcell: Unit cell vectors (Ang):
        5.677830    0.000000    0.000000
        3.786009    4.231299    0.000000
        3.786009    1.692731    3.877957

outcell: Cell vector modules (Ang)   :    5.677830    5.677830    5.677830
outcell: Cell angles (23,13,12) (deg):     48.1790     48.1790     48.1790
outcell: Cell volume (Ang**3)        :     93.1663
New_DM. Step:     5
Initializing Density Matrix...

siesta: Eharris(eV) =   -2967.074984


siesta: Eharris(eV) =   -2967.074984


siesta: Atomic forces (eV/Ang):
     1   -0.116300    0.236282   -0.047398
     2    0.030903   -0.034018    0.009065
     3   -1.108178    0.973960    2.504379
     4    0.789687   -0.928662   -1.594759
     5    2.551562   -5.737487    0.419927
     6    0.095541    3.623882   -5.981190
     7   -1.576330    0.882044    3.179356
     8   -2.093826    5.261790    0.262237
     9   -0.096768   -2.780101    4.759729
    10    1.471807   -1.577762   -3.468960
----------------------------------------
   Tot   -0.051904   -0.080072    0.042385
----------------------------------------
   Max    5.981190
   Res    2.540778    sqrt( Sum f_i^2 / 3N )
----------------------------------------
   Max    5.981190    constrained

Stress-tensor-Voigt (kbar):      684.73      499.07      530.74       82.09       61.41       31.30
(Free)E + p*V (eV/cell)    -2978.7154
Target enthalpy (eV/cell)    -2945.4822

siesta: Stress tensor (static) (eV/Ang**3):
         0.431811    0.046565    0.019295
         0.046565    0.321140    0.039816
         0.019318    0.039820    0.336040

siesta: Pressure (static):       -581.59168243  kBar

siesta: Stress tensor (total) (eV/Ang**3):
         0.427373    0.051236    0.019515
         0.051235    0.311493    0.038324
         0.019539    0.038328    0.331258

siesta: Pressure (total):       -571.51511910  kBar

siesta: Temp_ion =    1024.514 K
 iupos on opening:           17
 iupos on writing:           17
 istep, xa, va :            5  4.29982996763306341E-002 -8.09705340893413783E-002  1.36078458971813435E-002   12.505237284727860        5.6121602401193371        3.6586732937550499        6.2743689080287082        2.7724853572563881        1.8080528298383503       -6.2669833659074108       -2.7646317523058364       -1.7779923270943665        7.2528653718040177       0.53444762417613867        1.7671166128919822        6.2088444330429837        4.2306059853701949      -0.15548596627423045        5.2475560468719014        3.7675881164585991        3.9367398437906340       -7.3351426357249183      -0.54399400853004820       -1.8958569483778140       -6.2252553743589063       -4.2122519542361392       0.22273565677851212       -5.1983269852703771       -3.6824988628870883       -3.9089970524107871       8.51913913623890233E-003 -1.60289747118877446E-002  2.68679012284516773E-003 -2.78812178468242338E-003  2.91830854229756806E-003 -1.08481631263737210E-003  8.68499246715180410E-004 -3.50587158326153610E-003 -6.75924977184627976E-005  3.89598991052330593E-005  5.10903366056008994E-003  7.83421971336902001E-003  5.11671174473198303E-003 -2.00919633996537624E-002 -1.24475068895471778E-002 -1.00313409338350593E-002  2.70208128292977988E-002 -1.84397348662433506E-003 -7.49423089740899363E-003  1.87638281215680228E-002  2.13264750135338382E-002 -2.10064455009384768E-002  1.75530570982542211E-002 -1.24420302255725639E-002  6.76368031738487641E-003 -2.22643841245447061E-002  1.37361499785613808E-002  1.72704926324660051E-002 -2.58164756560451056E-003 -1.61621375383701610E-002

* Maximum dynamic memory allocated =     5 MB

siesta: Program's energy decomposition (eV):
siesta: Ebs     =      -714.755611
siesta: Eions   =      5228.674091
siesta: Ena     =      1093.495794
siesta: Ekin    =      2394.510053
siesta: Enl     =      -403.173899
siesta: DEna    =      -103.588971
siesta: DUscf   =        24.883748
siesta: DUext   =         0.000000
siesta: Exc     =      -722.934880
siesta: eta*DQ  =         0.000000
siesta: Emadel  =         0.000000
siesta: Emeta   =         0.000000
siesta: Emolmec =         0.000000
siesta: Ekinion =         1.191812
siesta: Eharris =     -2965.883172
siesta: Etot    =     -2944.290434
siesta: FreeEng =     -2944.290434

siesta: Final energy (eV):
siesta:  Band Struct. =    -714.755611
siesta:       Kinetic =    2394.510053
siesta:       Hartree =    1091.795848
siesta:    Ext. field =       0.000000
siesta:   Exch.-corr. =    -722.934880
siesta:  Ion-electron =   -4161.368853
siesta:       Ion-ion =   -1547.484413
siesta:       Ekinion =       1.191812
siesta:         Total =   -2944.290434

siesta: Atomic forces (eV/Ang):
siesta:      1   -0.116300    0.236282   -0.047398
siesta:      2    0.030903   -0.034018    0.009065
siesta:      3   -1.108178    0.973960    2.504379
siesta:      4    0.789687   -0.928662   -1.594759
siesta:      5    2.551562   -5.737487    0.419927
siesta:      6    0.095541    3.623882   -5.981190
siesta:      7   -1.576330    0.882044    3.179356
siesta:      8   -2.093826    5.261790    0.262237
siesta:      9   -0.096768   -2.780101    4.759729
siesta:     10    1.471807   -1.577762   -3.468960
siesta: ----------------------------------------
siesta:    Tot   -0.051904   -0.080072    0.042385

siesta: Stress tensor (static) (eV/Ang**3):
siesta:     0.431811    0.046565    0.019295
siesta:     0.046565    0.321140    0.039816
siesta:     0.019318    0.039820    0.336040

siesta: Cell volume =         93.166340 Ang**3

siesta: Pressure (static):
siesta:                Solid            Molecule  Units
siesta:          -0.00395350         -0.00556118  Ry/Bohr**3
siesta:          -0.36299705         -0.51060881  eV/Ang**3
siesta:        -581.59168243       -818.09435246  kBar
(Free)E+ p_basis*V_orbitals  =       -2944.287948
(Free)Eharris+ p_basis*V_orbitals  =       -2929.288045

* Maximum dynamic memory allocated : Node    0 =     5 MB
* Maximum dynamic memory allocated : Node    1 =     5 MB

* Maximum memory occured during redistribXZ                   

timer: CPU execution times:
timer:  Routine       Calls   Time/call    Tot.time        %
timer:  siesta            1       7.265       7.265   100.00
timer:  Setup             1       0.976       0.976    13.43
timer:  bands             1       0.001       0.001     0.01
timer:  writewave         1       0.002       0.002     0.03
timer:  KSV_init          1       0.000       0.000     0.00
timer:  IterMD            5       1.254       6.270    86.30
timer:  hsparse           5       0.032       0.162     2.22
timer:  overlap           5       0.022       0.109     1.51
timer:  IterSCF           5       0.620       3.100    42.67
timer:  kinefsm          10       0.012       0.120     1.65
timer:  nlefsm           10       0.071       0.710     9.77
timer:  DHSCF            10       0.484       4.836    66.56
timer:  DHSCF1            1       0.133       0.133     1.83
timer:  DHSCF2            5       0.318       1.590    21.89
timer:  REORD            90       0.000       0.009     0.13
timer:  POISON           15       0.016       0.247     3.40
timer:  DHSCF3           10       0.123       1.233    16.97
timer:  rhoofd           10       0.054       0.545     7.50
timer:  cellXC           15       0.020       0.298     4.11
timer:  vmat             10       0.028       0.285     3.92
timer:  MolMec           10       0.000       0.000     0.00
timer:  diagon            5       0.005       0.024     0.33
timer:  r-eigvec          5       0.004       0.022     0.30
timer:  r-buildHS         5       0.000       0.000     0.00
timer:  rdiag             5       0.004       0.021     0.29
timer:  rdiag1            5       0.000       0.002     0.02
timer:  rdiag2            5       0.000       0.002     0.02
timer:  rdiag3            5       0.003       0.014     0.19
timer:  rdiag4            5       0.000       0.001     0.02
timer:  r-buildD          5       0.000       0.001     0.01
timer:  DHSCF4            5       0.374       1.872    25.76
timer:  dfscf             5       0.242       1.212    16.69
timer:  overfsm           5       0.005       0.023     0.32
timer:  optical           1       0.010       0.010     0.13
  

elaps: ELAPSED times:
elaps:  Routine       Calls   Time/call    Tot.time        %
elaps:  siesta            1       3.710       3.710    99.97
elaps:  Setup             1       0.504       0.504    13.58
elaps:  bands             1       0.000       0.000     0.00
elaps:  writewave         1       0.001       0.001     0.03
elaps:  KSV_init          1       0.000       0.000     0.00
elaps:  IterMD            5       0.639       3.196    86.12
elaps:  hsparse           5       0.018       0.092     2.48
elaps:  overlap           5       0.014       0.070     1.89
elaps:  IterSCF           5       0.316       1.580    42.58
elaps:  kinefsm          10       0.008       0.080     2.16
elaps:  nlefsm           10       0.038       0.379    10.21
elaps:  DHSCF            10       0.246       2.461    66.32
elaps:  DHSCF1            1       0.066       0.066     1.78
elaps:  DHSCF2            5       0.163       0.813    21.91
elaps:  REORD            90       0.000       0.006     0.16
elaps:  POISON           15       0.008       0.126     3.40
elaps:  DHSCF3           10       0.063       0.626    16.87
elaps:  rhoofd           10       0.029       0.285     7.68
elaps:  cellXC           15       0.010       0.153     4.12
elaps:  vmat             10       0.014       0.143     3.85
elaps:  MolMec           10       0.000       0.001     0.03
elaps:  diagon            5       0.002       0.011     0.30
elaps:  r-eigvec          5       0.002       0.010     0.27
elaps:  r-buildHS         5       0.000       0.000     0.00
elaps:  rdiag             5       0.002       0.010     0.27
elaps:  rdiag1            5       0.000       0.001     0.03
elaps:  rdiag2            5       0.000       0.000     0.00
elaps:  rdiag3            5       0.001       0.006     0.16
elaps:  rdiag4            5       0.000       0.001     0.03
elaps:  r-buildD          5       0.000       0.000     0.00
elaps:  DHSCF4            5       0.191       0.953    25.68
elaps:  dfscf             5       0.123       0.614    16.55
elaps:  overfsm           5       0.003       0.013     0.35
elaps:  optical           1       0.001       0.001     0.03
  
>> End of run:  30-JUN-2010  16:51:39
