Siesta Version: siesta-2.0.1
Architecture  : powerpc-apple-darwin8.8.0--unknown
Compiler flags: g95 -g -O2
SERIAL version
NetCDF-capable

* Running in serial mode
>> Start of run:   5-DEC-2006  13:44:10

                           ***********************       
                           *  WELCOME TO SIESTA  *       
                           ***********************       

reinit: Reading from standard input
************************** Dump of input data file ****************************
#
# MgCO3 in primitive cell. SZ Harris. Some MD steps in Verlet MD
#
SystemName	MgCo3 MD Verlet test -- SZ, 100 Ry  Harris
SystemLabel	md_verlet
NumberOfSpecies		3
NumberOfAtoms	       10
%block ChemicalSpeciesLabel
      1      12     Mg
      2       6     C
      3       8     O
%endblock ChemicalSpeciesLabel
PAO.BasisSize  SZ
# Rhombohedral primitive cell
# (HEX 3-fold cell had A=4.635 and C=15.023, so alpha=48.179 degrees
#  and a=5.67783 Ang)
LatticeConstant     5.67783 Ang
%block LatticeParameters
1.0 1.0 1.0 48.179 48.179 48.179
%endblock LatticeParameters
AtomicCoordinatesFormat    Fractional
%block AtomicCoordinatesAndAtomicSpecies
  0.0         0.0         0.0      1
  0.5         0.5         0.5      1
  0.25        0.25        0.25     2
 -0.25       -0.25       -0.25     2
  0.5274     -0.0274      0.25     3
  0.25        0.5274     -0.0274   3
 -0.0274      0.25        0.5274   3
 -0.5274      0.0274     -0.25     3
 -0.25       -0.5274      0.0274   3
  0.0274     -0.25       -0.5274   3
%endblock AtomicCoordinatesAndAtomicSpecies
HarrisFunctional T
Solution.Method       diagon
MeshCutoff             100 Ry
WriteCoorStep      .true.
WriteForces        .true.
WriteMDHistory     .true.
MD.UseSaveXV       T
MD.TypeOfRun         Verlet
MD.InitialTemperature 600 K
MD.Initial.Time.Step      1
MD.Final.Time.Step        5
MD.Length.Time.Step       1 fs
************************** End of input data file *****************************

reinit: -----------------------------------------------------------------------
reinit: System Name: MgCo3 MD Verlet test -- SZ, 100 Ry  Harris                 
reinit: -----------------------------------------------------------------------
reinit: System Label: md_verlet                                                   
reinit: -----------------------------------------------------------------------

initatom: Reading input for the pseudopotentials and atomic orbitals ----------
 Species number:  1  Label: Mg Atomic number: 12
 Species number:  2  Label: C Atomic number: 6
 Species number:  3  Label: O Atomic number: 8
Ground state valence configuration:   3s02
Reading pseudopotential information in formatted form from Mg.psf
Ground state valence configuration:   2s02  2p02
Reading pseudopotential information in formatted form from C.psf
Ground state valence configuration:   2s02  2p04
Reading pseudopotential information in formatted form from O.psf
For Mg, standard SIESTA heuristics set lmxkb to 1
 (one more than the basis l, including polarization orbitals).
Use PS.lmax or PS.KBprojectors blocks to override.
For C, standard SIESTA heuristics set lmxkb to 2
 (one more than the basis l, including polarization orbitals).
Use PS.lmax or PS.KBprojectors blocks to override.
For O, standard SIESTA heuristics set lmxkb to 2
 (one more than the basis l, including polarization orbitals).
Use PS.lmax or PS.KBprojectors blocks to override.

<basis_specs>
===============================================================================
Mg                   Z=  12    Mass=  24.310        Charge=  .00000    
Lmxo=0 Lmxkb=1     BasisType=split      Semic=F
L=0  Nsemic=0  Cnfigmx=3
          n=1  nzeta=1  polorb=0
               vcte:    .00000    
               rinn:    .00000    
                rcs:    .00000    
            lambdas:    1.0000    
-------------------------------------------------------------------------------
L=0  Nkbl=1  erefs: 0.17977+309
L=1  Nkbl=1  erefs: 0.17977+309
===============================================================================
</basis_specs>

atom: Called for Mg  (Z =  12)

read_vps: Pseudopotential generation method:
read_vps: ATM3      Troullier-Martins                       

read_vps: Valence configuration (pseudopotential and basis set generation):
3s( 2.00) rc: 2.59
3p( 0.00) rc: 2.59
Total valence charge:    2.00000

xc_check: Exchange-correlation functional:
xc_check: Ceperley-Alder
V l=0 = -2*Zval/r beyond r=  3.5878
V l=1 = -2*Zval/r beyond r=  3.5878
All V_l potentials equal beyond r=  2.5600
This should be close to max(r_c) in ps generation
All pots = -2*Zval/r beyond r=  3.5878
Using large-core scheme for Vlocal

atom: Estimated core radius    3.58779

atom: Including non-local core corrections could be a good idea
atom: Maximum radius for 4*pi*r*r*local-pseudopot. charge    3.91588
atom: Maximum radius for r*vlocal+2*Zval:    3.63292
GHOST: No ghost state for L =  0
GHOST: No ghost state for L =  1

KBgen: Kleinman-Bylander projectors: 
   l= 0   rc=  2.657845   el= -0.351328   Ekb=  2.184400   kbcos=  0.257081
   l= 1   rc=  2.657845   el= -0.101748   Ekb=  0.525536   kbcos=  0.270508

KBgen: Total number of  Kleinman-Bylander projectors:    4
atom: -------------------------------------------------------------------------

atom: SANKEY-TYPE ORBITALS:

SPLIT: Orbitals with angular momentum L= 0

SPLIT: Basis orbitals for state 3s

SPLIT: PAO cut-off radius determined from an
SPLIT: energy shift=  0.020000 Ry

   izeta = 1
                 lambda =    1.000000
                     rc =    6.619780
                 energy =   -0.332103
                kinetic =    0.289627
    potential(screened) =   -0.621729
       potential(ionic) =   -1.387191
atom: Total number of Sankey-type orbitals:  1

atm_pop: Valence configuration(local Pseudopot. screening):
 3s( 2.00)                                                            
Vna: chval, zval:    2.00000   2.00000

Vna:  Cut-off radius for the neutral-atom potential:   6.619780

atom: _________________________________________________________________________

<basis_specs>
===============================================================================
C                    Z=   6    Mass=  12.010        Charge=  .00000    
Lmxo=1 Lmxkb=2     BasisType=split      Semic=F
L=0  Nsemic=0  Cnfigmx=2
          n=1  nzeta=1  polorb=0
               vcte:    .00000    
               rinn:    .00000    
                rcs:    .00000    
            lambdas:    1.0000    
L=1  Nsemic=0  Cnfigmx=2
          n=1  nzeta=1  polorb=0
               vcte:    .00000    
               rinn:    .00000    
                rcs:    .00000    
            lambdas:    1.0000    
-------------------------------------------------------------------------------
L=0  Nkbl=1  erefs: 0.17977+309
L=1  Nkbl=1  erefs: 0.17977+309
L=2  Nkbl=1  erefs: 0.17977+309
===============================================================================
</basis_specs>

atom: Called for C   (Z =   6)

read_vps: Pseudopotential generation method:
read_vps: ATM3      Troullier-Martins                       

read_vps: Valence configuration (pseudopotential and basis set generation):
2s( 2.00) rc: 1.49
2p( 2.00) rc: 1.52
3d( 0.00) rc: 1.58
Total valence charge:    4.00000

xc_check: Exchange-correlation functional:
xc_check: Ceperley-Alder
V l=0 = -2*Zval/r beyond r=  1.4666
V l=1 = -2*Zval/r beyond r=  1.5038
V l=2 = -2*Zval/r beyond r=  1.5612
All V_l potentials equal beyond r=  1.5612
This should be close to max(r_c) in ps generation
All pots = -2*Zval/r beyond r=  1.5612

VLOCAL1: 99.0% of the norm of Vloc inside     17.809 Ry
VLOCAL1: 99.9% of the norm of Vloc inside     40.586 Ry
atom: Maximum radius for 4*pi*r*r*local-pseudopot. charge    1.88329
atom: Maximum radius for r*vlocal+2*Zval:    1.62091
GHOST: No ghost state for L =  0
GHOST: No ghost state for L =  1
GHOST: No ghost state for L =  2

KBgen: Kleinman-Bylander projectors: 
   l= 0   rc=  1.747182   el= -1.001947   Ekb=  5.181700   kbcos=  0.300603
   l= 1   rc=  1.747182   el= -0.398598   Ekb= -4.328763   kbcos= -0.367074
   l= 2   rc=  1.955272   el=  0.002326   Ekb= -1.016175   kbcos= -0.009979

KBgen: Total number of  Kleinman-Bylander projectors:    9
atom: -------------------------------------------------------------------------

atom: SANKEY-TYPE ORBITALS:

SPLIT: Orbitals with angular momentum L= 0

SPLIT: Basis orbitals for state 2s

SPLIT: PAO cut-off radius determined from an
SPLIT: energy shift=  0.020000 Ry

   izeta = 1
                 lambda =    1.000000
                     rc =    4.191849
                 energy =   -0.983897
                kinetic =    0.886956
    potential(screened) =   -1.870853
       potential(ionic) =   -5.479661

SPLIT: Orbitals with angular momentum L= 1

SPLIT: Basis orbitals for state 2p

SPLIT: PAO cut-off radius determined from an
SPLIT: energy shift=  0.020000 Ry

   izeta = 1
                 lambda =    1.000000
                     rc =    4.870301
                 energy =   -0.379093
                kinetic =    2.545357
    potential(screened) =   -2.924450
       potential(ionic) =   -6.433151
atom: Total number of Sankey-type orbitals:  4

atm_pop: Valence configuration(local Pseudopot. screening):
 2s( 2.00)                                                            
 2p( 2.00)                                                            
Vna: chval, zval:    4.00000   4.00000

Vna:  Cut-off radius for the neutral-atom potential:   4.870301

atom: _________________________________________________________________________

<basis_specs>
===============================================================================
O                    Z=   8    Mass=  16.000        Charge=  .00000    
Lmxo=1 Lmxkb=2     BasisType=split      Semic=F
L=0  Nsemic=0  Cnfigmx=2
          n=1  nzeta=1  polorb=0
               vcte:    .00000    
               rinn:    .00000    
                rcs:    .00000    
            lambdas:    1.0000    
L=1  Nsemic=0  Cnfigmx=2
          n=1  nzeta=1  polorb=0
               vcte:    .00000    
               rinn:    .00000    
                rcs:    .00000    
            lambdas:    1.0000    
-------------------------------------------------------------------------------
L=0  Nkbl=1  erefs: 0.17977+309
L=1  Nkbl=1  erefs: 0.17977+309
L=2  Nkbl=1  erefs: 0.17977+309
===============================================================================
</basis_specs>

atom: Called for O   (Z =   8)

read_vps: Pseudopotential generation method:
read_vps: ATM3      Troullier-Martins                       

read_vps: Valence configuration (pseudopotential and basis set generation):
2s( 2.00) rc: 1.14
2p( 4.00) rc: 1.14
3d( 0.00) rc: 1.14
Total valence charge:    6.00000

xc_check: Exchange-correlation functional:
xc_check: Ceperley-Alder
V l=0 = -2*Zval/r beyond r=  1.1278
V l=1 = -2*Zval/r beyond r=  1.1278
V l=2 = -2*Zval/r beyond r=  1.1278
All V_l potentials equal beyond r=  1.1278
This should be close to max(r_c) in ps generation
All pots = -2*Zval/r beyond r=  1.1278

VLOCAL1: 99.0% of the norm of Vloc inside     34.126 Ry
VLOCAL1: 99.9% of the norm of Vloc inside     77.774 Ry
atom: Maximum radius for 4*pi*r*r*local-pseudopot. charge    1.37759
atom: Maximum radius for r*vlocal+2*Zval:    1.18566
GHOST: No ghost state for L =  0
GHOST: No ghost state for L =  1
GHOST: No ghost state for L =  2

KBgen: Kleinman-Bylander projectors: 
   l= 0   rc=  1.294105   el= -1.742414   Ekb=  9.135903   kbcos=  0.326910
   l= 1   rc=  1.294105   el= -0.676589   Ekb= -8.124878   kbcos= -0.395047
   l= 2   rc=  1.448233   el=  0.002386   Ekb= -2.039267   kbcos= -0.003484

KBgen: Total number of  Kleinman-Bylander projectors:    9
atom: -------------------------------------------------------------------------

atom: SANKEY-TYPE ORBITALS:

SPLIT: Orbitals with angular momentum L= 0

SPLIT: Basis orbitals for state 2s

SPLIT: PAO cut-off radius determined from an
SPLIT: energy shift=  0.020000 Ry

   izeta = 1
                 lambda =    1.000000
                     rc =    3.305093
                 energy =   -1.723766
                kinetic =    1.614911
    potential(screened) =   -3.338677
       potential(ionic) =  -11.304675

SPLIT: Orbitals with angular momentum L= 1

SPLIT: Basis orbitals for state 2p

SPLIT: PAO cut-off radius determined from an
SPLIT: energy shift=  0.020000 Ry

   izeta = 1
                 lambda =    1.000000
                     rc =    3.937239
                 energy =   -0.658841
                kinetic =    5.005986
    potential(screened) =   -5.664827
       potential(ionic) =  -13.452360
atom: Total number of Sankey-type orbitals:  4

atm_pop: Valence configuration(local Pseudopot. screening):
 2s( 2.00)                                                            
 2p( 4.00)                                                            
Vna: chval, zval:    6.00000   6.00000

Vna:  Cut-off radius for the neutral-atom potential:   3.937239

atom: _________________________________________________________________________

prinput: Basis input ----------------------------------------------------------

PAO.BasisType split     

%block ChemicalSpeciesLabel
    1   12 Mg                      # Species index, atomic number, species label
    2    6 C                       # Species index, atomic number, species label
    3    8 O                       # Species index, atomic number, species label
%endblock ChemicalSpeciesLabel

%block PAO.Basis                 # Define Basis set
Mg          1                    # Species label, number of l-shells
 n=3   0   1                         # n, l, Nzeta 
   6.620   
   1.000   
C           2                    # Species label, number of l-shells
 n=2   0   1                         # n, l, Nzeta 
   4.192   
   1.000   
 n=2   1   1                         # n, l, Nzeta 
   4.870   
   1.000   
O           2                    # Species label, number of l-shells
 n=2   0   1                         # n, l, Nzeta 
   3.305   
   1.000   
 n=2   1   1                         # n, l, Nzeta 
   3.937   
   1.000   
%endblock PAO.Basis

prinput: ----------------------------------------------------------------------

Dumping basis to NetCDF file Mg.ion.nc
Dumping basis to NetCDF file C.ion.nc
Dumping basis to NetCDF file O.ion.nc

siesta: ******************** Simulation parameters ****************************
siesta:
siesta: The following are some of the parameters of the simulation.
siesta: A complete list of the parameters used, including default values,
siesta: can be found in file out.fdf
siesta:
coor:   Atomic-coordinates input format  =     Fractional
redata: Number of spin components        =     1
redata: Long output                      =     F
redata: Number of Atomic Species         =     3
redata: Charge density info will appear in .RHO file
redata: Write Mulliken Pop.              =     NO
redata: Mesh Cutoff                      =   100.0000  Ry
redata: Net charge of the system         =     0.0000 |e|
redata: Max. number of SCF Iter          =    50
redata: Mixing is linear
redata: Mix DM in first SCF step ?       =     F
redata: Write Pulay info on disk?        =     F
redata: New DM Mixing Weight             =     0.2500
redata: New DM Occupancy tolerance       = 0.000000000001
redata: No kicks to SCF
redata: DM Mixing Weight for Kicks       =     0.5000
redata: DM Tolerance for SCF             =     0.000100
redata: Require Energy convergence for SCF =     F
redata: DM Energy tolerance for SCF      =     0.000100 eV
redata: Using Saved Data (generic)   =     F
redata: Use continuation files for DM    =     F
redata: Neglect nonoverlap interactions  =     F
redata: Method of Calculation            =     Diagonalization
redata: Divide and Conquer               =     T
redata: Electronic Temperature           =     0.0019  Ry
redata: Fix the spin of the system       =     F
redata: Dynamics option                  =     Verlet MD run
redata: Initial MD time step             =     1
redata:   Final MD time step             =     5
redata: Length of MD time step           =     1.0000  fs
redata: Initial Temperature of MD run    =   600.0000  K
redata: Perform a MD quench              =     F
redata: ***********************************************************************

siesta: WARNING: XV file not found

siesta: Atomic coordinates (Bohr) and species
siesta:      0.00000   0.00000   0.00000  1        1
siesta:     12.51930   5.59740   3.66414  1        2
siesta:      6.25965   2.79870   1.83207  2        3
siesta:     -6.25965  -2.79870  -1.83207  2        4
siesta:      7.25136   0.58061   1.83207  3        5
siesta:      6.25965   4.12944  -0.20079  3        6
siesta:      5.26794   3.68605   3.86493  3        7
siesta:     -7.25136  -0.58061  -1.83207  3        8
siesta:     -6.25965  -4.12944   0.20079  3        9
siesta:     -5.26794  -3.68605  -3.86493  3       10

initatomlists: Number of atoms, orbitals, and projectors:     10    34    80

siesta: System type = bulk      

siesta: k-grid: Number of k-points =     1
siesta: k-grid: Cutoff (effective) =     2.317 Ang
siesta: k-grid: Supercell and displacements
siesta: k-grid:   -1   0   1      0.000
siesta: k-grid:    0  -1   1      0.000
siesta: k-grid:    0   0   1      0.000

* Maximum dynamic memory allocated =     1 MB

siesta:                 ==============================
                            Begin MD step =      1
                        ==============================

outcoor: Atomic coordinates (fractional):                   
    0.00000000    0.00000000    0.00000000   1  Mg         1
    0.50000000    0.50000000    0.50000000   1  Mg         2
    0.25000000    0.25000000    0.25000000   2  C          3
   -0.25000000   -0.25000000   -0.25000000   2  C          4
    0.52740000   -0.02740000    0.25000000   3  O          5
    0.25000000    0.52740000   -0.02740000   3  O          6
   -0.02740000    0.25000000    0.52740000   3  O          7
   -0.52740000    0.02740000   -0.25000000   3  O          8
   -0.25000000   -0.52740000    0.02740000   3  O          9
    0.02740000   -0.25000000   -0.52740000   3  O         10

outcell: Unit cell vectors (Ang):
        5.677830    0.000000    0.000000
        3.786009    4.231299    0.000000
        3.786009    1.692731    3.877957

outcell: Cell vector modules (Ang)   :    5.677830    5.677830    5.677830
outcell: Cell angles (23,13,12) (deg):     48.1790     48.1790     48.1790
outcell: Cell volume (Ang**3)        :     93.1663

InitMesh: MESH =    32 x    32 x    32 =       32768
InitMesh: Mesh cutoff (required, used) =   100.000   112.857 Ry

* Maximum dynamic memory allocated =     7 MB

stepf: Fermi-Dirac step function

siesta: Program's energy decomposition (eV):
siesta: Eions   =      5228.674091
siesta: Ena     =      1092.429444
siesta: Ekin    =      2069.792750
siesta: Enl     =      -254.036133
siesta: DEna    =        15.976650
siesta: DUscf   =         0.158309
siesta: DUext   =         0.000000
siesta: Exc     =      -679.226103
siesta: eta*DQ  =         0.000000
siesta: Emadel  =         0.000000
siesta: Ekinion =         0.000000
siesta: Eharris =     -2966.548610
siesta: Etot    =     -2983.579175
siesta: FreeEng =     -2983.579175

siesta: Eharris(eV) =   -2966.548610


siesta: Eharris(eV) =   -2966.548610

timer: Routine,Calls,Time,% = IterSCF        1       4.878  60.83
elaps: Routine,Calls,Wall,% = IterSCF        1       5.602  59.90

siesta: E_KS - E_eggbox =     -2945.3446

siesta: Atomic forces (eV/Ang):
     1   -0.000000    0.000000   -0.000000
     2   -0.000014   -0.000006   -0.000014
     3   -0.000129   -0.000059   -0.000133
     4    0.000129    0.000059    0.000133
     5    2.753943   -6.159528   -0.000004
     6   -0.000002    3.695397   -5.645147
     7   -2.753929    2.464115    5.645154
     8   -2.753943    6.159528    0.000004
     9    0.000003   -3.695397    5.645147
    10    2.753929   -2.464116   -5.645154
----------------------------------------
   Tot   -0.000013   -0.000008   -0.000014
----------------------------------------
   Max    6.159528
   Res    3.017409    sqrt( Sum f_i^2 / 3N )
----------------------------------------
   Max    6.159528    constrained

Stress-tensor-Voigt (kbar):      657.71      464.55      437.04      107.66       31.37       70.41
Target enthalpy (eV/cell)    -2945.3446

siesta: Stress tensor (static) (eV/Ang**3):
         0.410796    0.067429    0.044140
         0.067429    0.290131    0.019735
         0.044140    0.019735    0.272902

siesta: Pressure (static):       -520.08734078  kBar

siesta: Stress tensor (total) (eV/Ang**3):
         0.410507    0.067196    0.043947
         0.067196    0.289944    0.019580
         0.043947    0.019580    0.272774

siesta: Pressure (total):       -519.76473750  kBar

siesta: Temp_ion =     600.000 K

* Maximum dynamic memory allocated =     7 MB

siesta:                 ==============================
                            Begin MD step =      2
                        ==============================

outcoor: Atomic coordinates (fractional):                   
    0.00210524   -0.00228388    0.00037321   1  Mg         1
    0.49963259    0.50034253    0.49984771   1  Mg         2
    0.25170388    0.24956564    0.24864017   2  C          3
   -0.25169121   -0.24977596   -0.24808653   2  C          4
    0.52717912   -0.02605647    0.24814842   3  O          5
    0.24691637    0.52740291   -0.02418112   3  O          6
   -0.02848519    0.25123936    0.52795476   3  O          7
   -0.52703438    0.02717039   -0.25178651   3  O          8
   -0.24808469   -0.52809325    0.02623367   3  O          9
    0.02775827   -0.24951125   -0.52714378   3  O         10

outcell: Unit cell vectors (Ang):
        5.677830    0.000000    0.000000
        3.786009    4.231299    0.000000
        3.786009    1.692731    3.877957

outcell: Cell vector modules (Ang)   :    5.677830    5.677830    5.677830
outcell: Cell angles (23,13,12) (deg):     48.1790     48.1790     48.1790
outcell: Cell volume (Ang**3)        :     93.1663

siesta: Eharris(eV) =   -2966.465765


siesta: Eharris(eV) =   -2966.465765


siesta: Atomic forces (eV/Ang):
     1   -0.024754    0.047852   -0.008273
     2    0.006116   -0.010157    0.001847
     3   -0.457652    0.363966    1.046465
     4    0.332708   -0.368135   -0.656356
     5    2.961600   -6.658825    0.146435
     6    0.028735    4.069145   -6.344609
     7   -2.518428    2.111800    5.192892
     8   -2.852510    6.537967    0.107035
     9   -0.036217   -3.754838    5.938908
    10    2.551642   -2.344543   -5.330253
----------------------------------------
   Tot   -0.008759   -0.005766    0.094091
----------------------------------------
   Max    6.658825
   Res    3.111881    sqrt( Sum f_i^2 / 3N )
----------------------------------------
   Max    6.658825    constrained

Stress-tensor-Voigt (kbar):      658.33      444.48      433.72      110.23       48.45       64.12
Target enthalpy (eV/cell)    -2945.2810

siesta: Stress tensor (static) (eV/Ang**3):
         0.411182    0.069036    0.040209
         0.069035    0.277607    0.030392
         0.040216    0.030392    0.270835

siesta: Pressure (static):       -512.50150944  kBar

siesta: Stress tensor (total) (eV/Ang**3):
         0.410893    0.068803    0.040017
         0.068803    0.277420    0.030238
         0.040023    0.030237    0.270707

siesta: Pressure (total):       -512.17890616  kBar

siesta: Temp_ion =     532.243 K

* Maximum dynamic memory allocated =     7 MB

siesta:                 ==============================
                            Begin MD step =      3
                        ==============================

outcoor: Atomic coordinates (fractional):                   
    0.00420613   -0.00456296    0.00074558   1  Mg         1
    0.49926617    0.50068403    0.49969561   1  Mg         2
    0.25321163    0.24911378    0.24749557   2  C          3
   -0.25323540   -0.24956732   -0.24630806   2  C          4
    0.52788972   -0.02566414    0.24631944   3  O          5
    0.24384371    0.52837341   -0.02194174   3  O          6
   -0.03035590    0.25245680    0.52931121   3  O          7
   -0.52759298    0.02785922   -0.25355650   3  O          8
   -0.24618574   -0.52968458    0.02598421   3  O          9
    0.02893599   -0.24902504   -0.52771046   3  O         10

outcell: Unit cell vectors (Ang):
        5.677830    0.000000    0.000000
        3.786009    4.231299    0.000000
        3.786009    1.692731    3.877957

outcell: Cell vector modules (Ang)   :    5.677830    5.677830    5.677830
outcell: Cell angles (23,13,12) (deg):     48.1790     48.1790     48.1790
outcell: Cell volume (Ang**3)        :     93.1663

siesta: Eharris(eV) =   -2966.534667


siesta: Eharris(eV) =   -2966.534667


siesta: Atomic forces (eV/Ang):
     1   -0.043478    0.096636   -0.026301
     2    0.014980   -0.024730    0.003361
     3   -0.819634    0.661537    1.881423
     4    0.598341   -0.662898   -1.174939
     5    2.974217   -6.719533    0.277841
     6    0.076538    4.181071   -6.666339
     7   -2.228929    1.726438    4.552930
     8   -2.714932    6.410583    0.155837
     9   -0.054080   -3.651239    5.887968
    10    2.215551   -2.107018   -4.757475
----------------------------------------
   Tot    0.018573   -0.089153    0.134306
----------------------------------------
   Max    6.719533
   Res    3.055026    sqrt( Sum f_i^2 / 3N )
----------------------------------------
   Max    6.719533    constrained

Stress-tensor-Voigt (kbar):      665.41      449.68      454.47      103.18       61.81       53.69
Target enthalpy (eV/cell)    -2945.2894

siesta: Stress tensor (static) (eV/Ang**3):
         0.415874    0.064580    0.033436
         0.064578    0.280725    0.038559
         0.033448    0.038560    0.283660

siesta: Pressure (static):       -523.52174908  kBar

siesta: Stress tensor (total) (eV/Ang**3):
         0.415312    0.064400    0.033496
         0.064398    0.280667    0.038578
         0.033508    0.038579    0.283654

siesta: Pressure (total):       -523.18743749  kBar

siesta: Temp_ion =     587.662 K

* Maximum dynamic memory allocated =     7 MB

siesta:                 ==============================
                            Begin MD step =      4
                        ==============================

outcoor: Atomic coordinates (fractional):                   
    0.00629906   -0.00683197    0.00111528   1  Mg         1
    0.49890218    0.50102310    0.49954385   1  Mg         2
    0.25436628    0.24863181    0.24673793   2  C          3
   -0.25451556   -0.24938695   -0.24477124   2  C          4
    0.52953073   -0.02623973    0.24453336   3  O          5
    0.24079637    0.53034721   -0.02073153   3  O          6
   -0.03290571    0.25363733    0.53137056   3  O          7
   -0.52905230    0.02944547   -0.25530243   3  O          8
   -0.24431166   -0.53215616    0.02664376   3  O          9
    0.03083995   -0.24854312   -0.52901161   3  O         10

outcell: Unit cell vectors (Ang):
        5.677830    0.000000    0.000000
        3.786009    4.231299    0.000000
        3.786009    1.692731    3.877957

outcell: Cell vector modules (Ang)   :    5.677830    5.677830    5.677830
outcell: Cell angles (23,13,12) (deg):     48.1790     48.1790     48.1790
outcell: Cell volume (Ang**3)        :     93.1663

siesta: Eharris(eV) =   -2966.749485


siesta: Eharris(eV) =   -2966.749485


siesta: Atomic forces (eV/Ang):
     1   -0.080929    0.164405   -0.037745
     2    0.025098   -0.037609    0.010083
     3   -1.040230    0.869316    2.375965
     4    0.757164   -0.851796   -1.492830
     5    2.852530   -6.434309    0.362164
     6    0.087931    4.036013   -6.507589
     7   -1.919156    1.325507    3.908137
     8   -2.482805    6.019965    0.225921
     9   -0.073877   -3.320861    5.488301
    10    1.872529   -1.871131   -4.150125
----------------------------------------
   Tot   -0.001745   -0.100501    0.182282
----------------------------------------
   Max    6.507589
   Res    2.874699    sqrt( Sum f_i^2 / 3N )
----------------------------------------
   Max    6.507589    constrained

Stress-tensor-Voigt (kbar):      675.02      470.53      488.43       93.07       65.70       44.00
Target enthalpy (eV/cell)    -2945.3672

siesta: Stress tensor (static) (eV/Ang**3):
         0.422192    0.058149    0.026988
         0.058147    0.293681    0.040977
         0.027006    0.040979    0.305085

siesta: Pressure (static):       -545.25777347  kBar

siesta: Stress tensor (total) (eV/Ang**3):
         0.421309    0.058090    0.027442
         0.058089    0.293677    0.041007
         0.027460    0.041009    0.304852

siesta: Pressure (total):       -544.65915386  kBar

siesta: Temp_ion =     761.862 K

* Maximum dynamic memory allocated =     7 MB

siesta:                 ==============================
                            Begin MD step =      5
                        ==============================

outcoor: Atomic coordinates (fractional):                   
    0.00837771   -0.00908414    0.00148114   1  Mg         1
    0.49854186    0.50135826    0.49939311   1  Mg         2
    0.25507006    0.24811822    0.24646896   2  C          3
   -0.25545945   -0.24924432   -0.24354145   2  C          4
    0.53205722   -0.02774808    0.24280319   3  O          5
    0.23777943    0.53329399   -0.02052597   3  O          6
   -0.03602430    0.25476403    0.53403326   3  O          7
   -0.53135534    0.03186954   -0.25701348   3  O          8
   -0.24247101   -0.53543658    0.02815060   3  O          9
    0.03337420   -0.24806963   -0.53095347   3  O         10

outcell: Unit cell vectors (Ang):
        5.677830    0.000000    0.000000
        3.786009    4.231299    0.000000
        3.786009    1.692731    3.877957

outcell: Cell vector modules (Ang)   :    5.677830    5.677830    5.677830
outcell: Cell angles (23,13,12) (deg):     48.1790     48.1790     48.1790
outcell: Cell volume (Ang**3)        :     93.1663

siesta: Eharris(eV) =   -2967.076342


siesta: Eharris(eV) =   -2967.076342


siesta: Atomic forces (eV/Ang):
     1   -0.118803    0.237140   -0.051526
     2    0.033208   -0.045962    0.016742
     3   -1.106774    0.971431    2.501069
     4    0.786607   -0.925008   -1.593339
     5    2.551644   -5.712908    0.402233
     6    0.102117    3.616638   -5.980567
     7   -1.570701    0.880248    3.173960
     8   -2.097200    5.261993    0.267654
     9   -0.092422   -2.779084    4.760154
    10    1.474307   -1.577927   -3.472214
----------------------------------------
   Tot   -0.038017   -0.073439    0.024167
----------------------------------------
   Max    5.980567
   Res    2.538151    sqrt( Sum f_i^2 / 3N )
----------------------------------------
   Max    5.980567    constrained

Stress-tensor-Voigt (kbar):      689.87      516.11      537.94       74.73       62.68       32.74
Target enthalpy (eV/cell)    -2945.4833

siesta: Stress tensor (static) (eV/Ang**3):
         0.431795    0.046540    0.019484
         0.046539    0.322139    0.039196
         0.019507    0.039200    0.336455

siesta: Pressure (static):       -582.33767307  kBar

siesta: Stress tensor (total) (eV/Ang**3):
         0.430577    0.046646    0.020409
         0.046645    0.322129    0.039115
         0.020433    0.039119    0.335751

siesta: Pressure (total):       -581.30682092  kBar

siesta: Temp_ion =    1025.729 K

* Maximum dynamic memory allocated =     7 MB

siesta: Program's energy decomposition (eV):
siesta: Eions   =      5228.674091
siesta: Ena     =      1093.497206
siesta: Ekin    =      2394.501017
siesta: Enl     =      -403.170802
siesta: DEna    =      -103.587555
siesta: DUscf   =        24.884097
siesta: DUext   =         0.000000
siesta: Exc     =      -722.933150
siesta: eta*DQ  =         0.000000
siesta: Emadel  =         0.000000
siesta: Ekinion =         1.193226
siesta: Eharris =     -2965.883116
siesta: Etot    =     -2944.290053
siesta: FreeEng =     -2944.290053

siesta: Final energy (eV):
siesta:       Kinetic =    2394.501017
siesta:       Hartree =    1091.769669
siesta:    Ext. field =       0.000000
siesta:   Exch.-corr. =    -722.933150
siesta:  Ion-electron =   -4161.303383
siesta:       Ion-ion =   -1547.517432
siesta:       Ekinion =       1.193226
siesta:         Total =   -2944.290053

siesta: Atomic forces (eV/Ang):
siesta:      1   -0.118803    0.237140   -0.051526
siesta:      2    0.033208   -0.045962    0.016742
siesta:      3   -1.106774    0.971431    2.501069
siesta:      4    0.786607   -0.925008   -1.593339
siesta:      5    2.551644   -5.712908    0.402233
siesta:      6    0.102117    3.616638   -5.980567
siesta:      7   -1.570701    0.880248    3.173960
siesta:      8   -2.097200    5.261993    0.267654
siesta:      9   -0.092422   -2.779084    4.760154
siesta:     10    1.474307   -1.577927   -3.472214
siesta: ----------------------------------------
siesta:    Tot   -0.038017   -0.073439    0.024167

siesta: Stress tensor (static) (eV/Ang**3):
siesta:     0.431795    0.046540    0.019484
siesta:     0.046539    0.322139    0.039196
siesta:     0.019507    0.039200    0.336455

siesta: Cell volume =         93.166340 Ang**3

siesta: Pressure (static):
siesta:                Solid            Molecule  Units
siesta:          -0.00395857         -0.00556539  Ry/Bohr**3
siesta:          -0.36346266         -0.51099536  eV/Ang**3
siesta:        -582.33767307       -818.71368152  kBar

* Maximum dynamic memory allocated : Node    0 =     7 MB

* Maximum memory occured during poison                        

timer: CPU execution times:
timer:  Routine       Calls   Time/call    Tot.time        %
timer:  siesta            1      45.557      45.557   100.00
timer:  Setup             1       2.123       2.123     4.66
timer:  bands             1       0.002       0.002     0.00
timer:  writewave         1       0.005       0.005     0.01
timer:  KSV_init          1       0.002       0.002     0.00
timer:  IterMD            5       8.681      43.403    95.27
timer:  hsparse           6       0.414       2.487     5.46
timer:  overfsm          10       0.060       0.596     1.31
timer:  IterSCF          10       4.034      40.336    88.54
timer:  kinefsm          10       0.054       0.544     1.19
timer:  nlefsm           10       0.221       2.207     4.84
timer:  DHSCF            10       3.725      37.247    81.76
timer:  DHSCF1            1       0.714       0.714     1.57
timer:  DHSCF2            5       1.933       9.664    21.21
timer:  REORD            90       0.001       0.047     0.10
timer:  POISON           15       0.024       0.356     0.78
timer:  DHSCF3           10       0.519       5.189    11.39
timer:  rhoofd           10       0.183       1.831     4.02
timer:  cellXC           15       0.199       2.985     6.55
timer:  vmat             10       0.101       1.015     2.23
timer:  diagon            5       0.008       0.042     0.09
timer:  rdiag             5       0.007       0.033     0.07
timer:  rdiag1            5       0.001       0.004     0.01
timer:  rdiag2            5       0.001       0.003     0.01
timer:  rdiag3            5       0.003       0.017     0.04
timer:  rdiag4            5       0.000       0.001     0.00
timer:  DHSCF4            5       4.333      21.663    47.55
timer:  dfscf             5       2.009      10.044    22.05
timer:  optical           1       0.002       0.002     0.00
  

elaps: ELAPSED times:
elaps:  Routine       Calls   Time/call    Tot.time        %
elaps:  siesta            1      54.714      54.714   100.00
elaps:  Setup             1       2.644       2.644     4.83
elaps:  bands             1       0.002       0.002     0.00
elaps:  writewave         1       0.005       0.005     0.01
elaps:  KSV_init          1       0.002       0.002     0.00
elaps:  IterMD            5      10.407      52.036    95.10
elaps:  hsparse           6       0.471       2.827     5.17
elaps:  overfsm          10       0.070       0.699     1.28
elaps:  IterSCF          10       4.763      47.627    87.05
elaps:  kinefsm          10       0.060       0.605     1.11
elaps:  nlefsm           10       0.249       2.490     4.55
elaps:  DHSCF            10       4.373      43.729    79.92
elaps:  DHSCF1            1       0.779       0.779     1.42
elaps:  DHSCF2            5       2.289      11.444    20.91
elaps:  REORD            90       0.001       0.056     0.10
elaps:  POISON           15       0.027       0.401     0.73
elaps:  DHSCF3           10       0.601       6.010    10.98
elaps:  rhoofd           10       0.211       2.107     3.85
elaps:  cellXC           15       0.234       3.510     6.41
elaps:  vmat             10       0.119       1.188     2.17
elaps:  diagon            5       0.018       0.091     0.17
elaps:  rdiag             5       0.016       0.082     0.15
elaps:  rdiag1            5       0.008       0.041     0.07
elaps:  rdiag2            5       0.001       0.003     0.00
elaps:  rdiag3            5       0.003       0.017     0.03
elaps:  rdiag4            5       0.000       0.001     0.00
elaps:  DHSCF4            5       5.096      25.479    46.57
elaps:  dfscf             5       2.383      11.916    21.78
elaps:  optical           1       0.002       0.002     0.00
  
>> End of run:   5-DEC-2006  13:45:04
