Siesta Version  : siesta-4.0--578
Architecture    : x86_64-linux-n-62-25-35
Compiler version: GNU Fortran (GCC) 7.3.0
Compiler flags  : mpif90 -m64 -fPIC -O3 -march=native -ftree-vectorize -fexpensive-optimizationns -funroll-loops -fprefetch-loop-arrays -fno-second-underscore
PP flags        : -I/zdata/groups/common/nicpa/2018-feb/generic/build-tools/1.0/include -I/zdatta/groups/common/nicpa/2018-feb/generic/gcc/7.3.0/include -I/zdata/groups/common/nicpa/2018-feb/generic/gcc/7.3.0/include -I/zdata/groups/common/nicpa/2018-feb/XeonE5-2660v3/zlib/1.2.11/gnu-7.3.0/include -I/zdata/groups/common/nicpa/2018-feb/generic/numactl/2.0.11/include -I/zdata/groups/common/nicpa/2018-feb/XeonE5-2660v3/libxml2/2.9.7/gnu-7.3.0/include -I/zdata/groups/common/nicpa/2018-feb/XeonE5-2660v3/hwloc/1.11.9/gnu-7.3.0/include -I/zdata/groups/common/nicpa/2018-feb/XeonE5-2660v3/openmpi/3.0.0/gnu-7.3.0/include -I/zdata/groups/common/nicpa/2018-feb/XeonE5-2660v3/szip/2.1.1/gnu-7.3.0/include -I/zdata/groups/common/nicpa/2018-feb/XeonE5-2660v3/hdf5-serial/1.8.18/gnu-7.3.0/include -I/zdata/groups/common/nicpa/2018-feb/XeonE5-2660v3/netcdf-serial/4.6.0/gnu-7.3.0/include -I/zdata/groups/common/nicpa/2018-feb/XeonE5-2660v3/scalapack/204/gnu-7.3.0/include -I/zdata/groups/common/nicpa/2018-feb/XeonE5-2660v3/openblas/0.2.20/gnu-7.3.0/include -I/zdata/groups/common/nicpa/2018-feb/XeonE5-2660v3/elpa/2017.05.003/gnu-7.3.0/include -DSIESTA__ELPA -DMPI -D1 -DFC_HAVE_ABORT -DCDF -DSIESTA__MRRR 
PARALLEL version
NetCDF support

* Running on    8 nodes in parallel
>> Start of run:  10-JUN-2018  21:50:22

                           ***********************       
                           *  WELCOME TO SIESTA  *       
                           ***********************       

reinit: Reading from standard input
************************** Dump of input data file ****************************
#
# MgCO3 in primitive cell. SZ. Some MD steps in Verlet MD
#
SystemName	MgCo3 MD Verlet test -- SZ, 100 Ry
SystemLabel	md_verlet
NumberOfSpecies		3
NumberOfAtoms	       10
%block ChemicalSpeciesLabel
      1      12     Mg
      2       6     C
      3       8     O
%endblock ChemicalSpeciesLabel
PAO.BasisSize  SZ
# Rhombohedral primitive cell
# (HEX 3-fold cell had A=4.635 and C=15.023, so alpha=48.179 degrees
#  and a=5.67783 Ang)
LatticeConstant     5.67783 Ang
%block LatticeParameters
1.0 1.0 1.0 48.179 48.179 48.179
%endblock LatticeParameters
AtomicCoordinatesFormat    Fractional
%block AtomicCoordinatesAndAtomicSpecies
  0.0         0.0         0.0      1
  0.5         0.5         0.5      1
  0.25        0.25        0.25     2
 -0.25       -0.25       -0.25     2
  0.5274     -0.0274      0.25     3
  0.25        0.5274     -0.0274   3
 -0.0274      0.25        0.5274   3
 -0.5274      0.0274     -0.25     3
 -0.25       -0.5274      0.0274   3
  0.0274     -0.25       -0.5274   3
%endblock AtomicCoordinatesAndAtomicSpecies
Solution.Method       diagon
MeshCutoff             100 Ry
WriteCoorStep      .true.
WriteForces        .true.
WriteMDHistory     .true.
MD.UseSaveXV       T
MD.TypeOfRun         Verlet
MD.InitialTemperature 600 K
MD.Initial.Time.Step      1
MD.Final.Time.Step        5
MD.Length.Time.Step       1 fs
************************** End of input data file *****************************

reinit: -----------------------------------------------------------------------
reinit: System Name: MgCo3 MD Verlet test -- SZ, 100 Ry
reinit: -----------------------------------------------------------------------
reinit: System Label: md_verlet                                                   
reinit: -----------------------------------------------------------------------

initatom: Reading input for the pseudopotentials and atomic orbitals ----------
 Species number:            1  Label: Mg Atomic number:          12
 Species number:            2  Label: C Atomic number:           6
 Species number:            3  Label: O Atomic number:           8
Ground state valence configuration:   3s02
Reading pseudopotential information in formatted form from Mg.psf

Valence configuration for pseudopotential generation:
3s( 2.00) rc: 2.59
3p( 0.00) rc: 2.59
3d( 0.00) rc: 2.59
4f( 0.00) rc: 2.59
Ground state valence configuration:   2s02  2p02
Reading pseudopotential information in formatted form from C.psf

Valence configuration for pseudopotential generation:
2s( 2.00) rc: 1.49
2p( 2.00) rc: 1.52
3d( 0.00) rc: 1.58
Ground state valence configuration:   2s02  2p04
Reading pseudopotential information in formatted form from O.psf

Valence configuration for pseudopotential generation:
2s( 2.00) rc: 1.14
2p( 4.00) rc: 1.14
3d( 0.00) rc: 1.14
4f( 0.00) rc: 1.14
For Mg, standard SIESTA heuristics set lmxkb to 1
 (one more than the basis l, including polarization orbitals).
Use PS.lmax or PS.KBprojectors blocks to override.
For C, standard SIESTA heuristics set lmxkb to 2
 (one more than the basis l, including polarization orbitals).
Use PS.lmax or PS.KBprojectors blocks to override.
For O, standard SIESTA heuristics set lmxkb to 2
 (one more than the basis l, including polarization orbitals).
Use PS.lmax or PS.KBprojectors blocks to override.

<basis_specs>
===============================================================================
Mg                   Z=  12    Mass=  24.310        Charge= 0.17977+309
Lmxo=0 Lmxkb= 1    BasisType=split      Semic=F
L=0  Nsemic=0  Cnfigmx=3
          n=1  nzeta=1  polorb=0
            splnorm:   0.15000    
               vcte:    0.0000    
               rinn:    0.0000    
               qcoe:    0.0000    
               qyuk:    0.0000    
               qwid:   0.10000E-01
                rcs:    0.0000    
            lambdas:    1.0000    
-------------------------------------------------------------------------------
L=0  Nkbl=1  erefs: 0.17977+309
L=1  Nkbl=1  erefs: 0.17977+309
===============================================================================
</basis_specs>

atom: Called for Mg                    (Z =  12)

read_vps: Pseudopotential generation method:
read_vps: ATM3      Troullier-Martins                       
Total valence charge:    2.00000

xc_check: Exchange-correlation functional:
xc_check: Ceperley-Alder
V l=0 = -2*Zval/r beyond r=  3.5878
V l=1 = -2*Zval/r beyond r=  3.5878
All V_l potentials equal beyond r=  2.5600
This should be close to max(r_c) in ps generation
All pots = -2*Zval/r beyond r=  3.5878
Using large-core scheme for Vlocal

atom: Estimated core radius    3.58779

atom: Including non-local core corrections could be a good idea
atom: Maximum radius for 4*pi*r*r*local-pseudopot. charge    3.91588
atom: Maximum radius for r*vlocal+2*Zval:    3.63292
GHOST: No ghost state for L =  0
GHOST: No ghost state for L =  1

KBgen: Kleinman-Bylander projectors: 
   l= 0   rc=  2.657845   el= -0.351328   Ekb=  2.184400   kbcos=  0.257081
   l= 1   rc=  2.657845   el= -0.101748   Ekb=  0.525536   kbcos=  0.270508

KBgen: Total number of  Kleinman-Bylander projectors:    4
atom: -------------------------------------------------------------------------

atom: SANKEY-TYPE ORBITALS:

SPLIT: Orbitals with angular momentum L= 0

SPLIT: Basis orbitals for state 3s

SPLIT: PAO cut-off radius determined from an
SPLIT: energy shift=  0.020000 Ry

   izeta = 1
                 lambda =    1.000000
                     rc =    6.619780
                 energy =   -0.332103
                kinetic =    0.289627
    potential(screened) =   -0.621729
       potential(ionic) =   -1.387191
atom: Total number of Sankey-type orbitals:  1

atm_pop: Valence configuration (for local Pseudopot. screening):
 3s( 2.00)                                                            
Vna: chval, zval:    2.00000   2.00000

Vna:  Cut-off radius for the neutral-atom potential:   6.619780

atom: _________________________________________________________________________

<basis_specs>
===============================================================================
C                    Z=   6    Mass=  12.010        Charge= 0.17977+309
Lmxo=1 Lmxkb= 2    BasisType=split      Semic=F
L=0  Nsemic=0  Cnfigmx=2
          n=1  nzeta=1  polorb=0
            splnorm:   0.15000    
               vcte:    0.0000    
               rinn:    0.0000    
               qcoe:    0.0000    
               qyuk:    0.0000    
               qwid:   0.10000E-01
                rcs:    0.0000    
            lambdas:    1.0000    
L=1  Nsemic=0  Cnfigmx=2
          n=1  nzeta=1  polorb=0
            splnorm:   0.15000    
               vcte:    0.0000    
               rinn:    0.0000    
               qcoe:    0.0000    
               qyuk:    0.0000    
               qwid:   0.10000E-01
                rcs:    0.0000    
            lambdas:    1.0000    
-------------------------------------------------------------------------------
L=0  Nkbl=1  erefs: 0.17977+309
L=1  Nkbl=1  erefs: 0.17977+309
L=2  Nkbl=1  erefs: 0.17977+309
===============================================================================
</basis_specs>

atom: Called for C                     (Z =   6)

read_vps: Pseudopotential generation method:
read_vps: ATM3      Troullier-Martins                       
Total valence charge:    4.00000

xc_check: Exchange-correlation functional:
xc_check: Ceperley-Alder
V l=0 = -2*Zval/r beyond r=  1.4666
V l=1 = -2*Zval/r beyond r=  1.5038
V l=2 = -2*Zval/r beyond r=  1.5612
All V_l potentials equal beyond r=  1.5612
This should be close to max(r_c) in ps generation
All pots = -2*Zval/r beyond r=  1.5612

VLOCAL1: 99.0% of the norm of Vloc inside     17.809 Ry
VLOCAL1: 99.9% of the norm of Vloc inside     40.586 Ry
atom: Maximum radius for 4*pi*r*r*local-pseudopot. charge    1.88329
atom: Maximum radius for r*vlocal+2*Zval:    1.62091
GHOST: No ghost state for L =  0
GHOST: No ghost state for L =  1
GHOST: No ghost state for L =  2

KBgen: Kleinman-Bylander projectors: 
   l= 0   rc=  1.747182   el= -1.001947   Ekb=  5.181700   kbcos=  0.300603
   l= 1   rc=  1.747182   el= -0.398598   Ekb= -4.328763   kbcos= -0.367074
   l= 2   rc=  1.955272   el=  0.002326   Ekb= -1.016175   kbcos= -0.009979

KBgen: Total number of  Kleinman-Bylander projectors:    9
atom: -------------------------------------------------------------------------

atom: SANKEY-TYPE ORBITALS:

SPLIT: Orbitals with angular momentum L= 0

SPLIT: Basis orbitals for state 2s

SPLIT: PAO cut-off radius determined from an
SPLIT: energy shift=  0.020000 Ry

   izeta = 1
                 lambda =    1.000000
                     rc =    4.191849
                 energy =   -0.983897
                kinetic =    0.886956
    potential(screened) =   -1.870853
       potential(ionic) =   -5.479661

SPLIT: Orbitals with angular momentum L= 1

SPLIT: Basis orbitals for state 2p

SPLIT: PAO cut-off radius determined from an
SPLIT: energy shift=  0.020000 Ry

   izeta = 1
                 lambda =    1.000000
                     rc =    4.870301
                 energy =   -0.379093
                kinetic =    2.545357
    potential(screened) =   -2.924450
       potential(ionic) =   -6.433151
atom: Total number of Sankey-type orbitals:  4

atm_pop: Valence configuration (for local Pseudopot. screening):
 2s( 2.00)                                                            
 2p( 2.00)                                                            
Vna: chval, zval:    4.00000   4.00000

Vna:  Cut-off radius for the neutral-atom potential:   4.870301

atom: _________________________________________________________________________

<basis_specs>
===============================================================================
O                    Z=   8    Mass=  16.000        Charge= 0.17977+309
Lmxo=1 Lmxkb= 2    BasisType=split      Semic=F
L=0  Nsemic=0  Cnfigmx=2
          n=1  nzeta=1  polorb=0
            splnorm:   0.15000    
               vcte:    0.0000    
               rinn:    0.0000    
               qcoe:    0.0000    
               qyuk:    0.0000    
               qwid:   0.10000E-01
                rcs:    0.0000    
            lambdas:    1.0000    
L=1  Nsemic=0  Cnfigmx=2
          n=1  nzeta=1  polorb=0
            splnorm:   0.15000    
               vcte:    0.0000    
               rinn:    0.0000    
               qcoe:    0.0000    
               qyuk:    0.0000    
               qwid:   0.10000E-01
                rcs:    0.0000    
            lambdas:    1.0000    
-------------------------------------------------------------------------------
L=0  Nkbl=1  erefs: 0.17977+309
L=1  Nkbl=1  erefs: 0.17977+309
L=2  Nkbl=1  erefs: 0.17977+309
===============================================================================
</basis_specs>

atom: Called for O                     (Z =   8)

read_vps: Pseudopotential generation method:
read_vps: ATM3      Troullier-Martins                       
Total valence charge:    6.00000

xc_check: Exchange-correlation functional:
xc_check: Ceperley-Alder
V l=0 = -2*Zval/r beyond r=  1.1278
V l=1 = -2*Zval/r beyond r=  1.1278
V l=2 = -2*Zval/r beyond r=  1.1278
All V_l potentials equal beyond r=  1.1278
This should be close to max(r_c) in ps generation
All pots = -2*Zval/r beyond r=  1.1278

VLOCAL1: 99.0% of the norm of Vloc inside     34.126 Ry
VLOCAL1: 99.9% of the norm of Vloc inside     77.774 Ry
atom: Maximum radius for 4*pi*r*r*local-pseudopot. charge    1.37759
atom: Maximum radius for r*vlocal+2*Zval:    1.18566
GHOST: No ghost state for L =  0
GHOST: No ghost state for L =  1
GHOST: No ghost state for L =  2

KBgen: Kleinman-Bylander projectors: 
   l= 0   rc=  1.294105   el= -1.742414   Ekb=  9.135903   kbcos=  0.326910
   l= 1   rc=  1.294105   el= -0.676589   Ekb= -8.124878   kbcos= -0.395047
   l= 2   rc=  1.448233   el=  0.002386   Ekb= -2.039267   kbcos= -0.003484

KBgen: Total number of  Kleinman-Bylander projectors:    9
atom: -------------------------------------------------------------------------

atom: SANKEY-TYPE ORBITALS:

SPLIT: Orbitals with angular momentum L= 0

SPLIT: Basis orbitals for state 2s

SPLIT: PAO cut-off radius determined from an
SPLIT: energy shift=  0.020000 Ry

   izeta = 1
                 lambda =    1.000000
                     rc =    3.305093
                 energy =   -1.723766
                kinetic =    1.614911
    potential(screened) =   -3.338677
       potential(ionic) =  -11.304675

SPLIT: Orbitals with angular momentum L= 1

SPLIT: Basis orbitals for state 2p

SPLIT: PAO cut-off radius determined from an
SPLIT: energy shift=  0.020000 Ry

   izeta = 1
                 lambda =    1.000000
                     rc =    3.937239
                 energy =   -0.658841
                kinetic =    5.005986
    potential(screened) =   -5.664827
       potential(ionic) =  -13.452360
atom: Total number of Sankey-type orbitals:  4

atm_pop: Valence configuration (for local Pseudopot. screening):
 2s( 2.00)                                                            
 2p( 4.00)                                                            
Vna: chval, zval:    6.00000   6.00000

Vna:  Cut-off radius for the neutral-atom potential:   3.937239

atom: _________________________________________________________________________

prinput: Basis input ----------------------------------------------------------

PAO.BasisType split     

%block ChemicalSpeciesLabel
    1   12 Mg                      # Species index, atomic number, species label
    2    6 C                       # Species index, atomic number, species label
    3    8 O                       # Species index, atomic number, species label
%endblock ChemicalSpeciesLabel

%block PAO.Basis                 # Define Basis set
Mg                    1                    # Species label, number of l-shells
 n=3   0   1                         # n, l, Nzeta 
   6.620   
   1.000   
C                     2                    # Species label, number of l-shells
 n=2   0   1                         # n, l, Nzeta 
   4.192   
   1.000   
 n=2   1   1                         # n, l, Nzeta 
   4.870   
   1.000   
O                     2                    # Species label, number of l-shells
 n=2   0   1                         # n, l, Nzeta 
   3.305   
   1.000   
 n=2   1   1                         # n, l, Nzeta 
   3.937   
   1.000   
%endblock PAO.Basis

prinput: ----------------------------------------------------------------------

Dumping basis to NetCDF file Mg.ion.nc
Dumping basis to NetCDF file C.ion.nc
Dumping basis to NetCDF file O.ion.nc
coor:   Atomic-coordinates input format  =     Fractional

siesta: WARNING: XV file not found

siesta: Atomic coordinates (Bohr) and species
siesta:      0.00000   0.00000   0.00000  1        1
siesta:     12.51930   5.59740   3.66414  1        2
siesta:      6.25965   2.79870   1.83207  2        3
siesta:     -6.25965  -2.79870  -1.83207  2        4
siesta:      7.25136   0.58061   1.83207  3        5
siesta:      6.25965   4.12944  -0.20079  3        6
siesta:      5.26794   3.68605   3.86493  3        7
siesta:     -7.25136  -0.58061  -1.83207  3        8
siesta:     -6.25965  -4.12944   0.20079  3        9
siesta:     -5.26794  -3.68605  -3.86493  3       10

siesta: System type = bulk      

initatomlists: Number of atoms, orbitals, and projectors:     10    34    80

siesta: ******************** Simulation parameters ****************************
siesta:
siesta: The following are some of the parameters of the simulation.
siesta: A complete list of the parameters used, including default values,
siesta: can be found in file out.fdf
siesta:
redata: Non-Collinear-spin run           =     F
redata: SpinPolarized (Up/Down) run      =     F
redata: Number of spin components        =     1
redata: Long output                      =     F
redata: Number of Atomic Species         =        3
redata: Charge density info will appear in .RHO file
redata: Write Mulliken Pop.              =     NO
redata: Matel table size (NRTAB)         =     1024
redata: Mesh Cutoff                      =   100.0000 Ry
redata: Net charge of the system         =     0.0000 |e|
redata: Min. number of SCF Iter          =        0
redata: Max. number of SCF Iter          =       50
redata: Mix DM or H after convergence    =     F
redata: Recompute H after scf cycle      =     F
redata: Mixing is linear
redata: Mix DM in first SCF step ?       =     F
redata: Write Pulay info on disk?        =     F
redata: Discard 1st Pulay DM after  kick =     F
redata: New DM Mixing Weight             =     0.2500
redata: New DM Occupancy tolerance       = 0.000000000001
redata: No kicks to SCF
redata: DM Mixing Weight for Kicks       =     0.5000
redata: DM Tolerance for SCF             =     0.000100
redata: Require (free) Energy convergence in SCF =     F
redata: DM (free)Energy tolerance for SCF =     0.000010 eV
redata: Require Harris convergence for SCF =     F
redata: DM Harris energy tolerance for SCF =     0.000010 eV
redata: Using Saved Data (generic)   =     F
redata: Use continuation files for DM    =     F
redata: Neglect nonoverlap interactions  =     F
redata: Method of Calculation            =     Diagonalization
redata: Divide and Conquer               =     T
redata: Electronic Temperature           =     0.0019  Ry
redata: Fix the spin of the system       =     F
redata: Dynamics option                  =     Verlet MD run
redata: Initial MD time step             =        1
redata:   Final MD time step             =        5
redata: Length of MD time step           =     1.0000  fs
redata: Initial Temperature of MD run    =   600.0000  K
redata: Perform a MD quench              =     F
redata: ***********************************************************************
Total number of electrons:    48.000000
Total ionic charge:    48.000000

* ProcessorY, Blocksize:    2   4


* Orbital distribution balance (max,min):     6     4

 Kpoints in:            1 . Kpoints trimmed:            1

siesta: k-grid: Number of k-points =     1
siesta: k-grid: Cutoff (effective) =     2.317 Ang
siesta: k-grid: Supercell and displacements
siesta: k-grid:    1   0   0      0.000
siesta: k-grid:    0   1   0      0.000
siesta: k-grid:    0   0   1      0.000

                     ====================================
                        Begin MD step =      1
                     ====================================

outcoor: Atomic coordinates (fractional):                   
    0.00000000    0.00000000    0.00000000   1       1  Mg
    0.50000000    0.50000000    0.50000000   1       2  Mg
    0.25000000    0.25000000    0.25000000   2       3  C
   -0.25000000   -0.25000000   -0.25000000   2       4  C
    0.52740000   -0.02740000    0.25000000   3       5  O
    0.25000000    0.52740000   -0.02740000   3       6  O
   -0.02740000    0.25000000    0.52740000   3       7  O
   -0.52740000    0.02740000   -0.25000000   3       8  O
   -0.25000000   -0.52740000    0.02740000   3       9  O
    0.02740000   -0.25000000   -0.52740000   3      10  O

outcell: Unit cell vectors (Ang):
        5.677830    0.000000    0.000000
        3.786009    4.231299    0.000000
        3.786009    1.692731    3.877957

outcell: Cell vector modules (Ang)   :    5.677830    5.677830    5.677830
outcell: Cell angles (23,13,12) (deg):     48.1790     48.1790     48.1790
outcell: Cell volume (Ang**3)        :     93.1663
Gamma-point calculation with interaction between periodic images
Some features might not work optimally:
e.g. DM initialization from atomic data
New_DM. Step:     1
Initializing Density Matrix...
New grid distribution:   1
           1       1:   16    1:    8    1:    4
           2       1:   16    1:    8    5:    8
           3       1:   16    1:    8    9:   12
           4       1:   16    1:    8   13:   16
           5       1:   16    9:   16    1:    4
           6       1:   16    9:   16    5:    8
           7       1:   16    9:   16    9:   12
           8       1:   16    9:   16   13:   16

InitMesh: MESH =    32 x    32 x    32 =       32768
InitMesh: (bp) =    16 x    16 x    16 =        4096
InitMesh: Mesh cutoff (required, used) =   100.000   112.857 Ry
ExtMesh (bp) on 0 =    76 x    68 x    64 =      330752
New grid distribution:   2
           1       8:   16    1:    8    1:    8
           2       9:   16    9:   16    1:    8
           3       1:    8    1:    8    9:   16
           4       1:    7    1:    8    1:    8
           5       9:   16    1:    8    9:   16
           6       1:    8    9:   16    1:    8
           7       1:    9    9:   16    9:   16
           8      10:   16    9:   16    9:   16
New grid distribution:   3
           1       1:    8    9:   16    9:   16
           2       9:   16    1:    8    1:    8
           3       9:   16    1:    8    9:   16
           4       9:   16    9:   16    1:    8
           5       1:    8    1:    8    9:   16
           6       1:    8    1:    8    1:    8
           7       9:   16    9:   16    9:   16
           8       1:    8    9:   16    1:    8
Setting up quadratic distribution...
ExtMesh (bp) on 0 =    69 x    68 x    68 =      319056
PhiOnMesh: Number of (b)points on node 0 =                  576
PhiOnMesh: nlist on node 0 =                12062

stepf: Fermi-Dirac step function

siesta: Program's energy decomposition (eV):
siesta: Ebs     =      -693.510234
siesta: Eions   =      5228.674091
siesta: Ena     =      1092.439512
siesta: Ekin    =      2093.980631
siesta: Enl     =      -258.689349
siesta: DEna    =         0.304568
siesta: DUscf   =         0.114961
siesta: DUext   =         0.000000
siesta: Exc     =      -684.304224
siesta: eta*DQ  =         0.000000
siesta: Emadel  =         0.000000
siesta: Emeta   =         0.000000
siesta: Emolmec =         0.000000
siesta: Ekinion =         0.000000
siesta: Eharris =     -2965.562494
siesta: Etot    =     -2984.827991
siesta: FreeEng =     -2984.827991

   scf: iscf   Eharris(eV)      E_KS(eV)   FreeEng(eV)    dDmax  Ef(eV)
   scf:    1    -2965.5625    -2984.8280    -2984.8280  1.59934 -2.6351
timer: Routine,Calls,Time,% =    IterSCF     1       0.018   3.21
   scf:    2    -2966.8782    -2945.8363    -2945.8363  0.94207 -1.4282
   scf:    3    -2957.6828    -2949.5313    -2949.5313  0.41484 -3.3913
   scf:    4    -2955.7585    -2951.2345    -2951.2345  0.16655 -3.1391
   scf:    5    -2955.3951    -2952.3018    -2952.3018  0.06210 -3.0419
   scf:    6    -2955.3273    -2953.0633    -2953.0633  0.02764 -3.0105
   scf:    7    -2955.3141    -2953.6270    -2953.6270  0.02074 -3.0044
   scf:    8    -2955.3112    -2954.0483    -2954.0483  0.01556 -3.0069
   scf:    9    -2955.3104    -2954.3639    -2954.3639  0.01168 -3.0115
   scf:   10    -2955.3101    -2954.6005    -2954.6005  0.00877 -3.0159
   scf:   11    -2955.3100    -2954.7779    -2954.7779  0.00659 -3.0195
   scf:   12    -2955.3099    -2954.9109    -2954.9109  0.00495 -3.0223
   scf:   13    -2955.3099    -2955.0106    -2955.0106  0.00372 -3.0243
   scf:   14    -2955.3099    -2955.0854    -2955.0854  0.00280 -3.0257
   scf:   15    -2955.3099    -2955.1415    -2955.1415  0.00210 -3.0268
   scf:   16    -2955.3098    -2955.1836    -2955.1836  0.00158 -3.0275
   scf:   17    -2955.3098    -2955.2152    -2955.2152  0.00119 -3.0280
   scf:   18    -2955.3098    -2955.2388    -2955.2388  0.00089 -3.0284
   scf:   19    -2955.3098    -2955.2566    -2955.2566  0.00067 -3.0287
   scf:   20    -2955.3098    -2955.2699    -2955.2699  0.00050 -3.0289
   scf:   21    -2955.3098    -2955.2799    -2955.2799  0.00038 -3.0290
   scf:   22    -2955.3098    -2955.2874    -2955.2874  0.00028 -3.0291
   scf:   23    -2955.3098    -2955.2930    -2955.2930  0.00021 -3.0291
   scf:   24    -2955.3098    -2955.2972    -2955.2972  0.00016 -3.0292
   scf:   25    -2955.3098    -2955.3004    -2955.3004  0.00012 -3.0292
   scf:   26    -2955.3098    -2955.3027    -2955.3027  0.00009 -3.0292

SCF Convergence by dMax criterion
max |DM_out - DM_in|:     0.00009069
SCF cycle converged after   26 iterations

Using DM_out to compute the final energy and forces

siesta: E_KS(eV) =            -2955.3098

siesta: E_KS - E_eggbox =     -2955.3098

siesta: Atomic forces (eV/Ang):
     1    0.000000    0.000000    0.000000
     2   -0.000000   -0.000000   -0.000000
     3    0.000000   -0.000000    0.000000
     4   -0.000000    0.000000   -0.000000
     5    3.186553   -7.127133   -0.000000
     6    0.000000    4.275923   -6.531969
     7   -3.186554    2.851210    6.531969
     8   -3.186553    7.127133    0.000000
     9   -0.000000   -4.275923    6.531969
    10    3.186554   -2.851210   -6.531969
----------------------------------------
   Tot   -0.000000    0.000000   -0.000000
----------------------------------------
   Max    7.127133
   Res    3.491422    sqrt( Sum f_i^2 / 3N )
----------------------------------------
   Max    7.127133    constrained

Stress-tensor-Voigt (kbar):      120.20     -280.34     -340.84      224.18       61.34      146.10
(Free)E + p*V (eV/cell)    -2945.5994
Target enthalpy (eV/cell)    -2955.3098

siesta: Stress tensor (static) (eV/Ang**3):
         0.077592    0.138368    0.090578
         0.138368   -0.170022    0.040497
         0.090578    0.040497   -0.205376

siesta: Pressure (static):        159.04763803  kBar

siesta: Stress tensor (total) (eV/Ang**3):
         0.075021    0.139921    0.091189
         0.139921   -0.174972    0.038282
         0.091189    0.038282   -0.212731

siesta: Pressure (total):        166.99206550  kBar

siesta: Temp_ion =     600.000 K

                     ====================================
                        Begin MD step =      2
                     ====================================

outcoor: Atomic coordinates (fractional):                   
    0.00202205   -0.00219551    0.00037582   1       1  Mg
    0.49954678    0.50043367    0.49984976   1       2  Mg
    0.25162026    0.24965596    0.24864096   2       3  C
   -0.25177843   -0.24968494   -0.24808230   2       4  C
    0.52716145   -0.02603225    0.24814867   3       5  O
    0.24682768    0.52756169   -0.02424349   3       6  O
   -0.02863976    0.25133146    0.52802556   3       7  O
   -0.52718741    0.02732892   -0.25178619   3       8  O
   -0.24816809   -0.52807120    0.02630265   3       9  O
    0.02774122   -0.24941995   -0.52720929   3      10  O

outcell: Unit cell vectors (Ang):
        5.677830    0.000000    0.000000
        3.786009    4.231299    0.000000
        3.786009    1.692731    3.877957

outcell: Cell vector modules (Ang)   :    5.677830    5.677830    5.677830
outcell: Cell angles (23,13,12) (deg):     48.1790     48.1790     48.1790
outcell: Cell volume (Ang**3)        :     93.1663
Gamma-point calculation with interaction between periodic images
Some features might not work optimally:
e.g. DM initialization from atomic data
New_DM. Step:     2
Re-using DM from previous geometry...
Re-using DM without extrapolation for lack of history
Density Matrix sparsity pattern changed.
New grid distribution:   1
           1       1:   16    1:    8    1:    4
           2       1:   16    1:    8    5:    8
           3       1:   16    1:    8    9:   12
           4       1:   16    1:    8   13:   16
           5       1:   16    9:   16    1:    4
           6       1:   16    9:   16    5:    8
           7       1:   16    9:   16    9:   12
           8       1:   16    9:   16   13:   16

InitMesh: MESH =    32 x    32 x    32 =       32768
InitMesh: (bp) =    16 x    16 x    16 =        4096
InitMesh: Mesh cutoff (required, used) =   100.000   112.857 Ry
ExtMesh (bp) on 0 =    76 x    68 x    64 =      330752
New grid distribution:   2
           1       8:   16    1:    8    1:    8
           2       9:   16    9:   16    1:    8
           3       1:    8    1:    8    9:   16
           4       1:    7    1:    8    1:    8
           5       9:   16    1:    8    9:   16
           6       1:    8    9:   16    1:    8
           7       1:    9    9:   16    9:   16
           8      10:   16    9:   16    9:   16
New grid distribution:   3
           1       1:    8    9:   16    9:   16
           2       9:   16    1:    8    1:    8
           3       9:   16    1:    8    9:   16
           4       9:   16    9:   16    1:    8
           5       1:    8    1:    8    9:   16
           6       1:    8    1:    8    1:    8
           7       9:   16    9:   16    9:   16
           8       1:    8    9:   16    1:    8
Setting up quadratic distribution...
ExtMesh (bp) on 0 =    69 x    68 x    68 =      319056
PhiOnMesh: Number of (b)points on node 0 =                  576
PhiOnMesh: nlist on node 0 =                12098

   scf: iscf   Eharris(eV)      E_KS(eV)   FreeEng(eV)    dDmax  Ef(eV)
   scf:    1    -2955.2381    -2955.3349    -2955.3349  0.01926 -2.7917
   scf:    2    -2955.2507    -2955.2256    -2955.2256  0.03455 -2.8388
   scf:    3    -2955.2330    -2955.2278    -2955.2278  0.00315 -2.8131
   scf:    4    -2955.2328    -2955.2290    -2955.2290  0.00144 -2.8099
   scf:    5    -2955.2328    -2955.2300    -2955.2300  0.00106 -2.8091
   scf:    6    -2955.2328    -2955.2307    -2955.2307  0.00076 -2.8087
   scf:    7    -2955.2328    -2955.2312    -2955.2312  0.00054 -2.8085
   scf:    8    -2955.2328    -2955.2316    -2955.2316  0.00039 -2.8084
   scf:    9    -2955.2328    -2955.2319    -2955.2319  0.00028 -2.8083
   scf:   10    -2955.2328    -2955.2321    -2955.2321  0.00020 -2.8083
   scf:   11    -2955.2328    -2955.2323    -2955.2323  0.00014 -2.8082
   scf:   12    -2955.2328    -2955.2324    -2955.2324  0.00010 -2.8082

SCF Convergence by dMax criterion
max |DM_out - DM_in|:     0.00009815
SCF cycle converged after   12 iterations

Using DM_out to compute the final energy and forces

siesta: E_KS(eV) =            -2955.2328

siesta: Atomic forces (eV/Ang):
     1   -0.036125    0.065698   -0.013985
     2    0.016923   -0.007141    0.009300
     3   -0.499355    0.409867    1.129267
     4    0.375047   -0.420972   -0.716268
     5    3.371662   -7.623441    0.157123
     6    0.037838    4.600209   -7.273448
     7   -2.901974    2.469097    6.039200
     8   -3.302182    7.456891    0.088897
     9   -0.037587   -4.290076    6.832405
    10    2.984534   -2.697790   -6.169288
----------------------------------------
   Tot    0.008780   -0.037657    0.083205
----------------------------------------
   Max    7.623441
   Res    3.572799    sqrt( Sum f_i^2 / 3N )
----------------------------------------
   Max    7.623441    constrained

Stress-tensor-Voigt (kbar):      121.82     -299.90     -338.33      226.59       80.67      137.45
(Free)E + p*V (eV/cell)    -2945.2233
Target enthalpy (eV/cell)    -2955.2328

siesta: Stress tensor (static) (eV/Ang**3):
         0.078603    0.139871    0.085177
         0.139870   -0.182228    0.052567
         0.085177    0.052568   -0.203809

siesta: Pressure (static):        164.18984902  kBar

siesta: Stress tensor (total) (eV/Ang**3):
         0.076032    0.141424    0.085788
         0.141423   -0.187178    0.050351
         0.085789    0.050353   -0.211164

siesta: Pressure (total):        172.13427649  kBar

siesta: Temp_ion =     535.206 K

                     ====================================
                        Begin MD step =      3
                     ====================================

outcoor: Atomic coordinates (fractional):                   
    0.00403807   -0.00438434    0.00075022   1       1  Mg
    0.49909480    0.50086630    0.49970047   1       2  Mg
    0.25302595    0.24929626    0.24751418   2       3  C
   -0.25339232   -0.24939031   -0.24631192   2       4  C
    0.52798797   -0.02575286    0.24632160   3       5  O
    0.24367455    0.52882347   -0.02220987   3       6  O
   -0.03079146    0.25263928    0.52958346   3       7  O
   -0.52803203    0.02830742   -0.25355866   3       8  O
   -0.24635736   -0.52977138    0.02626010   3       9  O
    0.02903268   -0.24884060   -0.52797100   3      10  O

outcell: Unit cell vectors (Ang):
        5.677830    0.000000    0.000000
        3.786009    4.231299    0.000000
        3.786009    1.692731    3.877957

outcell: Cell vector modules (Ang)   :    5.677830    5.677830    5.677830
outcell: Cell angles (23,13,12) (deg):     48.1790     48.1790     48.1790
outcell: Cell volume (Ang**3)        :     93.1663
Gamma-point calculation with interaction between periodic images
Some features might not work optimally:
e.g. DM initialization from atomic data
New_DM. Step:     3
Re-using DM from previous geometry...
Extrapolating Density Matrix...
New grid distribution:   1
           1       1:   16    1:    8    1:    4
           2       1:   16    1:    8    5:    8
           3       1:   16    1:    8    9:   12
           4       1:   16    1:    8   13:   16
           5       1:   16    9:   16    1:    4
           6       1:   16    9:   16    5:    8
           7       1:   16    9:   16    9:   12
           8       1:   16    9:   16   13:   16

InitMesh: MESH =    32 x    32 x    32 =       32768
InitMesh: (bp) =    16 x    16 x    16 =        4096
InitMesh: Mesh cutoff (required, used) =   100.000   112.857 Ry
ExtMesh (bp) on 0 =    76 x    68 x    64 =      330752
New grid distribution:   2
           1       8:   16    1:    8    1:    8
           2       9:   16    9:   16    1:    8
           3       1:    8    1:    8    9:   16
           4       1:    7    1:    8    1:    8
           5       9:   16    1:    8    9:   16
           6       1:    8    9:   16    1:    8
           7       1:    9    9:   16    9:   16
           8      10:   16    9:   16    9:   16
New grid distribution:   3
           1       1:    8    9:   16    9:   16
           2       9:   16    1:    8    1:    8
           3       9:   16    1:    8    9:   16
           4       9:   16    9:   16    1:    8
           5       1:    8    1:    8    9:   16
           6       1:    8    1:    8    1:    8
           7       9:   16    9:   16    9:   16
           8       1:    8    9:   16    1:    8
Setting up quadratic distribution...
ExtMesh (bp) on 0 =    69 x    68 x    68 =      319056
PhiOnMesh: Number of (b)points on node 0 =                  576
PhiOnMesh: nlist on node 0 =                12112

   scf: iscf   Eharris(eV)      E_KS(eV)   FreeEng(eV)    dDmax  Ef(eV)
   scf:    1    -2955.3539    -2954.9728    -2954.9728  0.01167 -2.7195
   scf:    2    -2955.3544    -2955.3514    -2955.3514  0.01115 -2.6692
   scf:    3    -2955.3529    -2955.3519    -2955.3519  0.00461 -2.6822
   scf:    4    -2955.3527    -2955.3521    -2955.3521  0.00193 -2.6868
   scf:    5    -2955.3527    -2955.3522    -2955.3522  0.00080 -2.6889
   scf:    6    -2955.3527    -2955.3524    -2955.3524  0.00035 -2.6900
   scf:    7    -2955.3527    -2955.3524    -2955.3524  0.00024 -2.6905
   scf:    8    -2955.3527    -2955.3525    -2955.3525  0.00016 -2.6909
   scf:    9    -2955.3527    -2955.3525    -2955.3525  0.00011 -2.6910
   scf:   10    -2955.3527    -2955.3526    -2955.3526  0.00008 -2.6912

SCF Convergence by dMax criterion
max |DM_out - DM_in|:     0.00007943
SCF cycle converged after   10 iterations

Using DM_out to compute the final energy and forces

siesta: E_KS(eV) =            -2955.3527

siesta: Atomic forces (eV/Ang):
     1   -0.073427    0.136268   -0.027497
     2    0.037373   -0.019750    0.020430
     3   -0.897442    0.750684    2.030576
     4    0.676335   -0.762366   -1.288503
     5    3.328156   -7.608242    0.302525
     6    0.087638    4.626158   -7.561675
     7   -2.534000    2.025903    5.308583
     8   -3.192909    7.272085    0.170951
     9   -0.055051   -4.113371    6.724074
    10    2.619162   -2.403841   -5.489090
----------------------------------------
   Tot   -0.004165   -0.096473    0.190373
----------------------------------------
   Max    7.608242
   Res    3.476481    sqrt( Sum f_i^2 / 3N )
----------------------------------------
   Max    7.608242    constrained

Stress-tensor-Voigt (kbar):      126.56     -297.14     -308.92      220.31       94.39      123.76
(Free)E + p*V (eV/cell)    -2946.0585
Target enthalpy (eV/cell)    -2955.3527

siesta: Stress tensor (static) (eV/Ang**3):
         0.082009    0.135300    0.076984
         0.135300   -0.180250    0.061372
         0.076984    0.061372   -0.187767

siesta: Pressure (static):        152.74692742  kBar

siesta: Stress tensor (total) (eV/Ang**3):
         0.078990    0.137502    0.077244
         0.137502   -0.185458    0.058914
         0.077244    0.058914   -0.192810

siesta: Pressure (total):        159.83343640  kBar

siesta: Temp_ion =     637.284 K

                     ====================================
                        Begin MD step =      4
                     ====================================

outcoor: Atomic coordinates (fractional):                   
    0.00604166   -0.00655936    0.00112183   1       1  Mg
    0.49864580    0.50129626    0.49955326   1       2  Mg
    0.25404414    0.24891099    0.24680503   2       3  C
   -0.25470937   -0.24913336   -0.24480655   2       4  C
    0.52986454   -0.02656864    0.24454123   3       5  O
    0.24056121    0.53120684   -0.02134364   3       6  O
   -0.03372934    0.25390589    0.53196092   3       7  O
   -0.52990999    0.03030431   -0.25530473   3       8  O
   -0.24457964   -0.53246885    0.02725563   3       9  O
    0.03116612   -0.24826235   -0.52958014   3      10  O

outcell: Unit cell vectors (Ang):
        5.677830    0.000000    0.000000
        3.786009    4.231299    0.000000
        3.786009    1.692731    3.877957

outcell: Cell vector modules (Ang)   :    5.677830    5.677830    5.677830
outcell: Cell angles (23,13,12) (deg):     48.1790     48.1790     48.1790
outcell: Cell volume (Ang**3)        :     93.1663
Gamma-point calculation with interaction between periodic images
Some features might not work optimally:
e.g. DM initialization from atomic data
New_DM. Step:     4
Re-using DM from previous geometry...
Extrapolating Density Matrix...
Density Matrix sparsity pattern changed.
New grid distribution:   1
           1       1:   16    1:    8    1:    4
           2       1:   16    1:    8    5:    8
           3       1:   16    1:    8    9:   12
           4       1:   16    1:    8   13:   16
           5       1:   16    9:   16    1:    4
           6       1:   16    9:   16    5:    8
           7       1:   16    9:   16    9:   12
           8       1:   16    9:   16   13:   16

InitMesh: MESH =    32 x    32 x    32 =       32768
InitMesh: (bp) =    16 x    16 x    16 =        4096
InitMesh: Mesh cutoff (required, used) =   100.000   112.857 Ry
ExtMesh (bp) on 0 =    76 x    68 x    64 =      330752
New grid distribution:   2
           1       8:   16    1:    8    1:    8
           2       9:   16    9:   16    1:    8
           3       1:    8    1:    8    9:   16
           4       1:    7    1:    8    1:    8
           5       9:   16    1:    8    9:   16
           6       1:    8    9:   16    1:    8
           7       1:    9    9:   16    9:   16
           8      10:   16    9:   16    9:   16
New grid distribution:   3
           1       1:    8    9:   16    9:   16
           2       9:   16    1:    8    1:    8
           3       9:   16    1:    8    9:   16
           4       9:   16    9:   16    1:    8
           5       1:    8    1:    8    9:   16
           6       1:    8    1:    8    1:    8
           7       9:   16    9:   16    9:   16
           8       1:    8    9:   16    1:    8
Setting up quadratic distribution...
ExtMesh (bp) on 0 =    69 x    68 x    68 =      319056
PhiOnMesh: Number of (b)points on node 0 =                  576
PhiOnMesh: nlist on node 0 =                12134

   scf: iscf   Eharris(eV)      E_KS(eV)   FreeEng(eV)    dDmax  Ef(eV)
   scf:    1    -2955.6536    -2955.2951    -2955.2951  0.01155 -2.7296
   scf:    2    -2955.6547    -2955.6508    -2955.6508  0.01168 -2.6759
   scf:    3    -2955.6526    -2955.6514    -2955.6514  0.00457 -2.6922
   scf:    4    -2955.6524    -2955.6516    -2955.6516  0.00186 -2.6969
   scf:    5    -2955.6523    -2955.6518    -2955.6518  0.00076 -2.6989
   scf:    6    -2955.6523    -2955.6520    -2955.6520  0.00037 -2.6999
   scf:    7    -2955.6523    -2955.6520    -2955.6520  0.00025 -2.7004
   scf:    8    -2955.6523    -2955.6521    -2955.6521  0.00017 -2.7007
   scf:    9    -2955.6523    -2955.6522    -2955.6522  0.00012 -2.7009
   scf:   10    -2955.6523    -2955.6522    -2955.6522  0.00009 -2.7010

SCF Convergence by dMax criterion
max |DM_out - DM_in|:     0.00008520
SCF cycle converged after   10 iterations

Using DM_out to compute the final energy and forces

siesta: E_KS(eV) =            -2955.6523

siesta: Atomic forces (eV/Ang):
     1   -0.128442    0.223740   -0.056511
     2    0.057740   -0.025547    0.035361
     3   -1.146442    0.999519    2.576370
     4    0.869338   -0.986768   -1.655467
     5    3.126236   -7.200371    0.397233
     6    0.113855    4.370231   -7.347985
     7   -2.106973    1.539094    4.491966
     8   -2.896892    6.689206    0.221686
     9   -0.071352   -3.680441    6.185099
    10    2.225748   -2.097754   -4.740804
----------------------------------------
   Tot    0.042817   -0.169091    0.106949
----------------------------------------
   Max    7.347985
   Res    3.225863    sqrt( Sum f_i^2 / 3N )
----------------------------------------
   Max    7.347985    constrained

Stress-tensor-Voigt (kbar):      131.47     -281.28     -269.04      210.25      100.29      109.96
(Free)E + p*V (eV/cell)    -2947.5337
Target enthalpy (eV/cell)    -2955.6523

siesta: Stress tensor (static) (eV/Ang**3):
         0.085932    0.127651    0.068415
         0.127651   -0.168145    0.064733
         0.068415    0.064733   -0.163411

siesta: Pressure (static):        131.17915161  kBar

siesta: Stress tensor (total) (eV/Ang**3):
         0.082055    0.131225    0.068631
         0.131226   -0.175558    0.062598
         0.068631    0.062598   -0.167921

siesta: Pressure (total):        139.61724613  kBar

siesta: Temp_ion =     891.747 K

                     ====================================
                        Begin MD step =      5
                     ====================================

outcoor: Atomic coordinates (fractional):                   
    0.00802474   -0.00871125    0.00148769   1       1  Mg
    0.49820097    0.50172241    0.49940964   1       2  Mg
    0.25456367    0.24850214    0.24662577   2       3  C
   -0.25564406   -0.24892620   -0.24364166   2       4  C
    0.53272556   -0.02842775    0.24282218   3       5  O
    0.23750137    0.53466236   -0.02161182   3       6  O
   -0.03731203    0.25511284    0.53503186   3       7  O
   -0.53273820    0.03323396   -0.25701658   3       8  O
   -0.24284420   -0.53606907    0.02920604   3       9  O
    0.03402497   -0.24768812   -0.53192118   3      10  O

outcell: Unit cell vectors (Ang):
        5.677830    0.000000    0.000000
        3.786009    4.231299    0.000000
        3.786009    1.692731    3.877957

outcell: Cell vector modules (Ang)   :    5.677830    5.677830    5.677830
outcell: Cell angles (23,13,12) (deg):     48.1790     48.1790     48.1790
outcell: Cell volume (Ang**3)        :     93.1663
Gamma-point calculation with interaction between periodic images
Some features might not work optimally:
e.g. DM initialization from atomic data
New_DM. Step:     5
Re-using DM from previous geometry...
Extrapolating Density Matrix...
Density Matrix sparsity pattern changed.
New grid distribution:   1
           1       1:   16    1:    8    1:    4
           2       1:   16    1:    8    5:    8
           3       1:   16    1:    8    9:   12
           4       1:   16    1:    8   13:   16
           5       1:   16    9:   16    1:    4
           6       1:   16    9:   16    5:    8
           7       1:   16    9:   16    9:   12
           8       1:   16    9:   16   13:   16

InitMesh: MESH =    32 x    32 x    32 =       32768
InitMesh: (bp) =    16 x    16 x    16 =        4096
InitMesh: Mesh cutoff (required, used) =   100.000   112.857 Ry
ExtMesh (bp) on 0 =    76 x    68 x    64 =      330752
New grid distribution:   2
           1       8:   16    1:    8    1:    8
           2       9:   16    9:   16    1:    8
           3       1:    8    1:    8    9:   16
           4       1:    7    1:    8    1:    8
           5       9:   16    1:    8    9:   16
           6       1:    8    9:   16    1:    8
           7       1:    9    9:   16    9:   16
           8      10:   16    9:   16    9:   16
New grid distribution:   3
           1       1:    8    9:   16    9:   16
           2       9:   16    1:    8    1:    8
           3       9:   16    1:    8    9:   16
           4       9:   16    9:   16    1:    8
           5       1:    8    1:    8    9:   16
           6       1:    8    1:    8    1:    8
           7       9:   16    9:   16    9:   16
           8       1:    8    9:   16    1:    8
Setting up quadratic distribution...
ExtMesh (bp) on 0 =    69 x    68 x    68 =      319056
PhiOnMesh: Number of (b)points on node 0 =                  576
PhiOnMesh: nlist on node 0 =                12138

   scf: iscf   Eharris(eV)      E_KS(eV)   FreeEng(eV)    dDmax  Ef(eV)
   scf:    1    -2956.0776    -2955.7656    -2955.7656  0.01091 -2.8641
   scf:    2    -2956.0794    -2956.0748    -2956.0748  0.01479 -2.8098
   scf:    3    -2956.0766    -2956.0753    -2956.0753  0.00429 -2.8284
   scf:    4    -2956.0764    -2956.0756    -2956.0756  0.00169 -2.8329
   scf:    5    -2956.0764    -2956.0758    -2956.0758  0.00068 -2.8347
   scf:    6    -2956.0764    -2956.0759    -2956.0759  0.00037 -2.8356
   scf:    7    -2956.0764    -2956.0761    -2956.0761  0.00025 -2.8361
   scf:    8    -2956.0764    -2956.0761    -2956.0761  0.00017 -2.8363
   scf:    9    -2956.0764    -2956.0762    -2956.0762  0.00012 -2.8365
   scf:   10    -2956.0764    -2956.0762    -2956.0762  0.00009 -2.8366

SCF Convergence by dMax criterion
max |DM_out - DM_in|:     0.00008549
SCF cycle converged after   10 iterations

Using DM_out to compute the final energy and forces

siesta: E_KS(eV) =            -2956.0764

siesta: Atomic forces (eV/Ang):
     1   -0.176784    0.315755   -0.069904
     2    0.073323   -0.012751    0.039187
     3   -1.231392    1.129761    2.727377
     4    0.929906   -1.084782   -1.804951
     5    2.720862   -6.301443    0.446264
     6    0.147584    3.743093   -6.647320
     7   -1.625225    0.950467    3.550509
     8   -2.437271    5.680225    0.324353
     9   -0.114606   -2.982581    5.349010
    10    1.760464   -1.714203   -3.891870
----------------------------------------
   Tot    0.046860   -0.276458    0.022655
----------------------------------------
   Max    6.647320
   Res    2.795054    sqrt( Sum f_i^2 / 3N )
----------------------------------------
   Max    6.647320    constrained

Stress-tensor-Voigt (kbar):      138.94     -239.71     -218.92      190.80       97.48       96.16
(Free)E + p*V (eV/cell)    -2949.8798
Target enthalpy (eV/cell)    -2956.0764

siesta: Stress tensor (static) (eV/Ang**3):
         0.091763    0.113562    0.059591
         0.113562   -0.138269    0.062056
         0.059591    0.062056   -0.130919

siesta: Pressure (static):         94.75645020  kBar

siesta: Stress tensor (total) (eV/Ang**3):
         0.086719    0.119088    0.060015
         0.119089   -0.149616    0.060844
         0.060015    0.060844   -0.136636

siesta: Pressure (total):        106.56381302  kBar

siesta: Temp_ion =    1250.420 K

siesta: Program's energy decomposition (eV):
siesta: Ebs     =      -604.878114
siesta: Eions   =      5228.674091
siesta: Ena     =      1093.768157
siesta: Ekin    =      2293.582178
siesta: Enl     =      -369.923836
siesta: DEna    =       -47.912337
siesta: DUscf   =         7.739039
siesta: DUext   =         0.000000
siesta: Exc     =      -704.655480
siesta: eta*DQ  =         0.000000
siesta: Emadel  =         0.000000
siesta: Emeta   =         0.000000
siesta: Emolmec =         0.000000
siesta: Ekinion =         1.454607
siesta: Eharris =     -2954.621764
siesta: Etot    =     -2954.621764
siesta: FreeEng =     -2954.621764

siesta: Final energy (eV):
siesta:  Band Struct. =    -604.878114
siesta:       Kinetic =    2293.582178
siesta:       Hartree =    1016.772040
siesta:    Ext. field =       0.000000
siesta:   Exch.-corr. =    -704.655480
siesta:  Ion-electron =   -4008.584767
siesta:       Ion-ion =   -1553.190342
siesta:       Ekinion =       1.454607
siesta:         Total =   -2954.621764

siesta: Atomic forces (eV/Ang):
siesta:      1   -0.176784    0.315755   -0.069904
siesta:      2    0.073323   -0.012751    0.039187
siesta:      3   -1.231392    1.129761    2.727377
siesta:      4    0.929906   -1.084782   -1.804951
siesta:      5    2.720862   -6.301443    0.446264
siesta:      6    0.147584    3.743093   -6.647320
siesta:      7   -1.625225    0.950467    3.550509
siesta:      8   -2.437271    5.680225    0.324353
siesta:      9   -0.114606   -2.982581    5.349010
siesta:     10    1.760464   -1.714203   -3.891870
siesta: ----------------------------------------
siesta:    Tot    0.046860   -0.276458    0.022655

siesta: Stress tensor (static) (eV/Ang**3):
siesta:     0.091763    0.113562    0.059591
siesta:     0.113562   -0.138269    0.062056
siesta:     0.059591    0.062056   -0.130919

siesta: Cell volume =         93.166340 Ang**3

siesta: Pressure (static):
siesta:                Solid            Molecule  Units
siesta:           0.00064413         -0.00113427  Ry/Bohr**3
siesta:           0.05914169         -0.10414519  eV/Ang**3
siesta:          94.75645020       -166.86078869  kBar
(Free)E+ p_basis*V_orbitals  =       -2954.882074
(Free)Eharris+ p_basis*V_orbitals  =       -2954.882074
>> End of run:  10-JUN-2018  21:50:24
Job completed
