Siesta Version: siesta-2.0.1
Architecture  : powerpc-apple-darwin8.8.0--unknown
Compiler flags: g95 -g -O2
SERIAL version
NetCDF-capable

* Running in serial mode
>> Start of run:   5-DEC-2006  11:44:12

                           ***********************       
                           *  WELCOME TO SIESTA  *       
                           ***********************       

reinit: Reading from standard input
************************** Dump of input data file ****************************
#
# MgCO3 in primitive cell. SZ. A couple of MD steps
#
SystemName	MgCo3 R-3c test -- SZ, 100 Ry
SystemLabel	mgco3
NumberOfSpecies		3
NumberOfAtoms	       10
%block ChemicalSpeciesLabel
      1      12     Mg
      2       6     C
      3       8     O
%endblock ChemicalSpeciesLabel
##%block PS.Lmax            # Block to be used for DZP calculations
##    Mg    3
##     C    2
##     O    3
##%endblock PS.Lmax
PAO.BasisSize  SZ
# Rhombohedral primitive cell
# (HEX 3-fold cell had A=4.635 and C=15.023, so alpha=48.179 degrees
#  and a=5.67783 Ang)
LatticeConstant     5.67783 Ang
%block LatticeParameters
1.0 1.0 1.0 48.179 48.179 48.179
%endblock LatticeParameters
AtomicCoordinatesFormat    Fractional
%block AtomicCoordinatesAndAtomicSpecies
  0.0         0.0         0.0      1
  0.5         0.5         0.5      1
  0.25        0.25        0.25     2
 -0.25       -0.25       -0.25     2
  0.5274     -0.0274      0.25     3
  0.25        0.5274     -0.0274   3
 -0.0274      0.25        0.5274   3
 -0.5274      0.0274     -0.25     3
 -0.25       -0.5274      0.0274   3
  0.0274     -0.25       -0.5274   3
%endblock AtomicCoordinatesAndAtomicSpecies
kgrid_cutoff 15.0 Ang
Solution.Method       diagon
MeshCutoff             100 Ry
DM.NumberBroyden       4
DM.UseSaveDM           T
DM.MixingWeight        0.1         # New DM amount for next SCF cycle
DM.Tolerance           1.d-4       # Tolerance in maximum difference
                                   # between input and output DM
MaxSCFIterations       20
WriteCoorStep      .true.
WriteForces        .true.
MD.TypeOfRun         Verlet
MD.Initial.Time.Step      1
MD.Final.Time.Step        2
MD.Length.Time.Step       1.0 fs
************************** End of input data file *****************************

reinit: -----------------------------------------------------------------------
reinit: System Name: MgCo3 R-3c test -- SZ, 100 Ry                              
reinit: -----------------------------------------------------------------------
reinit: System Label: mgco3                                                       
reinit: -----------------------------------------------------------------------

initatom: Reading input for the pseudopotentials and atomic orbitals ----------
 Species number:  1  Label: Mg Atomic number: 12
 Species number:  2  Label: C Atomic number: 6
 Species number:  3  Label: O Atomic number: 8
Ground state valence configuration:   3s02
Reading pseudopotential information in formatted form from Mg.psf
Ground state valence configuration:   2s02  2p02
Reading pseudopotential information in formatted form from C.psf
Ground state valence configuration:   2s02  2p04
Reading pseudopotential information in formatted form from O.psf
For Mg, standard SIESTA heuristics set lmxkb to 1
 (one more than the basis l, including polarization orbitals).
Use PS.lmax or PS.KBprojectors blocks to override.
For C, standard SIESTA heuristics set lmxkb to 2
 (one more than the basis l, including polarization orbitals).
Use PS.lmax or PS.KBprojectors blocks to override.
For O, standard SIESTA heuristics set lmxkb to 2
 (one more than the basis l, including polarization orbitals).
Use PS.lmax or PS.KBprojectors blocks to override.

<basis_specs>
===============================================================================
Mg                   Z=  12    Mass=  24.310        Charge=  .00000    
Lmxo=0 Lmxkb=1     BasisType=split      Semic=F
L=0  Nsemic=0  Cnfigmx=3
          n=1  nzeta=1  polorb=0
               vcte:    .00000    
               rinn:    .00000    
                rcs:    .00000    
            lambdas:    1.0000    
-------------------------------------------------------------------------------
L=0  Nkbl=1  erefs: 0.17977+309
L=1  Nkbl=1  erefs: 0.17977+309
===============================================================================
</basis_specs>

atom: Called for Mg  (Z =  12)

read_vps: Pseudopotential generation method:
read_vps: ATM3      Troullier-Martins                       

read_vps: Valence configuration (pseudopotential and basis set generation):
3s( 2.00) rc: 2.59
3p( 0.00) rc: 2.59
Total valence charge:    2.00000

xc_check: Exchange-correlation functional:
xc_check: Ceperley-Alder
V l=0 = -2*Zval/r beyond r=  3.5878
V l=1 = -2*Zval/r beyond r=  3.5878
All V_l potentials equal beyond r=  2.5600
This should be close to max(r_c) in ps generation
All pots = -2*Zval/r beyond r=  3.5878
Using large-core scheme for Vlocal

atom: Estimated core radius    3.58779

atom: Including non-local core corrections could be a good idea
atom: Maximum radius for 4*pi*r*r*local-pseudopot. charge    3.91588
atom: Maximum radius for r*vlocal+2*Zval:    3.63292
GHOST: No ghost state for L =  0
GHOST: No ghost state for L =  1

KBgen: Kleinman-Bylander projectors: 
   l= 0   rc=  2.657845   el= -0.351328   Ekb=  2.184400   kbcos=  0.257081
   l= 1   rc=  2.657845   el= -0.101748   Ekb=  0.525536   kbcos=  0.270508

KBgen: Total number of  Kleinman-Bylander projectors:    4
atom: -------------------------------------------------------------------------

atom: SANKEY-TYPE ORBITALS:

SPLIT: Orbitals with angular momentum L= 0

SPLIT: Basis orbitals for state 3s

SPLIT: PAO cut-off radius determined from an
SPLIT: energy shift=  0.020000 Ry

   izeta = 1
                 lambda =    1.000000
                     rc =    6.619780
                 energy =   -0.332103
                kinetic =    0.289627
    potential(screened) =   -0.621729
       potential(ionic) =   -1.387191
atom: Total number of Sankey-type orbitals:  1

atm_pop: Valence configuration(local Pseudopot. screening):
 3s( 2.00)                                                            
Vna: chval, zval:    2.00000   2.00000

Vna:  Cut-off radius for the neutral-atom potential:   6.619780

atom: _________________________________________________________________________

<basis_specs>
===============================================================================
C                    Z=   6    Mass=  12.010        Charge=  .00000    
Lmxo=1 Lmxkb=2     BasisType=split      Semic=F
L=0  Nsemic=0  Cnfigmx=2
          n=1  nzeta=1  polorb=0
               vcte:    .00000    
               rinn:    .00000    
                rcs:    .00000    
            lambdas:    1.0000    
L=1  Nsemic=0  Cnfigmx=2
          n=1  nzeta=1  polorb=0
               vcte:    .00000    
               rinn:    .00000    
                rcs:    .00000    
            lambdas:    1.0000    
-------------------------------------------------------------------------------
L=0  Nkbl=1  erefs: 0.17977+309
L=1  Nkbl=1  erefs: 0.17977+309
L=2  Nkbl=1  erefs: 0.17977+309
===============================================================================
</basis_specs>

atom: Called for C   (Z =   6)

read_vps: Pseudopotential generation method:
read_vps: ATM3      Troullier-Martins                       

read_vps: Valence configuration (pseudopotential and basis set generation):
2s( 2.00) rc: 1.49
2p( 2.00) rc: 1.52
3d( 0.00) rc: 1.58
Total valence charge:    4.00000

xc_check: Exchange-correlation functional:
xc_check: Ceperley-Alder
V l=0 = -2*Zval/r beyond r=  1.4666
V l=1 = -2*Zval/r beyond r=  1.5038
V l=2 = -2*Zval/r beyond r=  1.5612
All V_l potentials equal beyond r=  1.5612
This should be close to max(r_c) in ps generation
All pots = -2*Zval/r beyond r=  1.5612

VLOCAL1: 99.0% of the norm of Vloc inside     17.809 Ry
VLOCAL1: 99.9% of the norm of Vloc inside     40.586 Ry
atom: Maximum radius for 4*pi*r*r*local-pseudopot. charge    1.88329
atom: Maximum radius for r*vlocal+2*Zval:    1.62091
GHOST: No ghost state for L =  0
GHOST: No ghost state for L =  1
GHOST: No ghost state for L =  2

KBgen: Kleinman-Bylander projectors: 
   l= 0   rc=  1.747182   el= -1.001947   Ekb=  5.181700   kbcos=  0.300603
   l= 1   rc=  1.747182   el= -0.398598   Ekb= -4.328763   kbcos= -0.367074
   l= 2   rc=  1.955272   el=  0.002326   Ekb= -1.016175   kbcos= -0.009979

KBgen: Total number of  Kleinman-Bylander projectors:    9
atom: -------------------------------------------------------------------------

atom: SANKEY-TYPE ORBITALS:

SPLIT: Orbitals with angular momentum L= 0

SPLIT: Basis orbitals for state 2s

SPLIT: PAO cut-off radius determined from an
SPLIT: energy shift=  0.020000 Ry

   izeta = 1
                 lambda =    1.000000
                     rc =    4.191849
                 energy =   -0.983897
                kinetic =    0.886956
    potential(screened) =   -1.870853
       potential(ionic) =   -5.479661

SPLIT: Orbitals with angular momentum L= 1

SPLIT: Basis orbitals for state 2p

SPLIT: PAO cut-off radius determined from an
SPLIT: energy shift=  0.020000 Ry

   izeta = 1
                 lambda =    1.000000
                     rc =    4.870301
                 energy =   -0.379093
                kinetic =    2.545357
    potential(screened) =   -2.924450
       potential(ionic) =   -6.433151
atom: Total number of Sankey-type orbitals:  4

atm_pop: Valence configuration(local Pseudopot. screening):
 2s( 2.00)                                                            
 2p( 2.00)                                                            
Vna: chval, zval:    4.00000   4.00000

Vna:  Cut-off radius for the neutral-atom potential:   4.870301

atom: _________________________________________________________________________

<basis_specs>
===============================================================================
O                    Z=   8    Mass=  16.000        Charge=  .00000    
Lmxo=1 Lmxkb=2     BasisType=split      Semic=F
L=0  Nsemic=0  Cnfigmx=2
          n=1  nzeta=1  polorb=0
               vcte:    .00000    
               rinn:    .00000    
                rcs:    .00000    
            lambdas:    1.0000    
L=1  Nsemic=0  Cnfigmx=2
          n=1  nzeta=1  polorb=0
               vcte:    .00000    
               rinn:    .00000    
                rcs:    .00000    
            lambdas:    1.0000    
-------------------------------------------------------------------------------
L=0  Nkbl=1  erefs: 0.17977+309
L=1  Nkbl=1  erefs: 0.17977+309
L=2  Nkbl=1  erefs: 0.17977+309
===============================================================================
</basis_specs>

atom: Called for O   (Z =   8)

read_vps: Pseudopotential generation method:
read_vps: ATM3      Troullier-Martins                       

read_vps: Valence configuration (pseudopotential and basis set generation):
2s( 2.00) rc: 1.14
2p( 4.00) rc: 1.14
3d( 0.00) rc: 1.14
Total valence charge:    6.00000

xc_check: Exchange-correlation functional:
xc_check: Ceperley-Alder
V l=0 = -2*Zval/r beyond r=  1.1278
V l=1 = -2*Zval/r beyond r=  1.1278
V l=2 = -2*Zval/r beyond r=  1.1278
All V_l potentials equal beyond r=  1.1278
This should be close to max(r_c) in ps generation
All pots = -2*Zval/r beyond r=  1.1278

VLOCAL1: 99.0% of the norm of Vloc inside     34.126 Ry
VLOCAL1: 99.9% of the norm of Vloc inside     77.774 Ry
atom: Maximum radius for 4*pi*r*r*local-pseudopot. charge    1.37759
atom: Maximum radius for r*vlocal+2*Zval:    1.18566
GHOST: No ghost state for L =  0
GHOST: No ghost state for L =  1
GHOST: No ghost state for L =  2

KBgen: Kleinman-Bylander projectors: 
   l= 0   rc=  1.294105   el= -1.742414   Ekb=  9.135903   kbcos=  0.326910
   l= 1   rc=  1.294105   el= -0.676589   Ekb= -8.124878   kbcos= -0.395047
   l= 2   rc=  1.448233   el=  0.002386   Ekb= -2.039267   kbcos= -0.003484

KBgen: Total number of  Kleinman-Bylander projectors:    9
atom: -------------------------------------------------------------------------

atom: SANKEY-TYPE ORBITALS:

SPLIT: Orbitals with angular momentum L= 0

SPLIT: Basis orbitals for state 2s

SPLIT: PAO cut-off radius determined from an
SPLIT: energy shift=  0.020000 Ry

   izeta = 1
                 lambda =    1.000000
                     rc =    3.305093
                 energy =   -1.723766
                kinetic =    1.614911
    potential(screened) =   -3.338677
       potential(ionic) =  -11.304675

SPLIT: Orbitals with angular momentum L= 1

SPLIT: Basis orbitals for state 2p

SPLIT: PAO cut-off radius determined from an
SPLIT: energy shift=  0.020000 Ry

   izeta = 1
                 lambda =    1.000000
                     rc =    3.937239
                 energy =   -0.658841
                kinetic =    5.005986
    potential(screened) =   -5.664827
       potential(ionic) =  -13.452360
atom: Total number of Sankey-type orbitals:  4

atm_pop: Valence configuration(local Pseudopot. screening):
 2s( 2.00)                                                            
 2p( 4.00)                                                            
Vna: chval, zval:    6.00000   6.00000

Vna:  Cut-off radius for the neutral-atom potential:   3.937239

atom: _________________________________________________________________________

prinput: Basis input ----------------------------------------------------------

PAO.BasisType split     

%block ChemicalSpeciesLabel
    1   12 Mg                      # Species index, atomic number, species label
    2    6 C                       # Species index, atomic number, species label
    3    8 O                       # Species index, atomic number, species label
%endblock ChemicalSpeciesLabel

%block PAO.Basis                 # Define Basis set
Mg          1                    # Species label, number of l-shells
 n=3   0   1                         # n, l, Nzeta 
   6.620   
   1.000   
C           2                    # Species label, number of l-shells
 n=2   0   1                         # n, l, Nzeta 
   4.192   
   1.000   
 n=2   1   1                         # n, l, Nzeta 
   4.870   
   1.000   
O           2                    # Species label, number of l-shells
 n=2   0   1                         # n, l, Nzeta 
   3.305   
   1.000   
 n=2   1   1                         # n, l, Nzeta 
   3.937   
   1.000   
%endblock PAO.Basis

prinput: ----------------------------------------------------------------------

Dumping basis to NetCDF file Mg.ion.nc
Dumping basis to NetCDF file C.ion.nc
Dumping basis to NetCDF file O.ion.nc

siesta: ******************** Simulation parameters ****************************
siesta:
siesta: The following are some of the parameters of the simulation.
siesta: A complete list of the parameters used, including default values,
siesta: can be found in file out.fdf
siesta:
coor:   Atomic-coordinates input format  =     Fractional
redata: Number of spin components        =     1
redata: Long output                      =     F
redata: Number of Atomic Species         =     3
redata: Charge density info will appear in .RHO file
redata: Write Mulliken Pop.              =     NO
redata: Mesh Cutoff                      =   100.0000  Ry
redata: Net charge of the system         =     0.0000 |e|
redata: Max. number of SCF Iter          =    20
redata: Broyden mixing with     4 saved histories.
redata: Mix DM in first SCF step ?       =     F
redata: Write Pulay info on disk?        =     F
redata: New DM Mixing Weight             =     0.1000
redata: New DM Occupancy tolerance       = 0.000000000001
redata: No kicks to SCF
redata: DM Mixing Weight for Kicks       =     0.5000
redata: DM Tolerance for SCF             =     0.000100
redata: Require Energy convergence for SCF =     F
redata: DM Energy tolerance for SCF      =     0.000100 eV
redata: Using Saved Data (generic)   =     F
redata: Use continuation files for DM    =     T
redata: Neglect nonoverlap interactions  =     F
redata: Method of Calculation            =     Diagonalization
redata: Divide and Conquer               =     T
redata: Electronic Temperature           =     0.0019  Ry
redata: Fix the spin of the system       =     F
redata: Dynamics option                  =     Verlet MD run
redata: Initial MD time step             =     1
redata:   Final MD time step             =     2
redata: Length of MD time step           =     1.0000  fs
redata: Initial Temperature of MD run    =     0.0000  K
redata: Perform a MD quench              =     F
redata: ***********************************************************************

siesta: Atomic coordinates (Bohr) and species
siesta:      0.00000   0.00000   0.00000  1        1
siesta:     12.51930   5.59740   3.66414  1        2
siesta:      6.25965   2.79870   1.83207  2        3
siesta:     -6.25965  -2.79870  -1.83207  2        4
siesta:      7.25136   0.58061   1.83207  3        5
siesta:      6.25965   4.12944  -0.20079  3        6
siesta:      5.26794   3.68605   3.86493  3        7
siesta:     -7.25136  -0.58061  -1.83207  3        8
siesta:     -6.25965  -4.12944   0.20079  3        9
siesta:     -5.26794  -3.68605  -3.86493  3       10

initatomlists: Number of atoms, orbitals, and projectors:     10    34    80

siesta: System type = bulk      

siesta: k-grid: Number of k-points =   154
siesta: k-grid: Cutoff (effective) =    16.222 Ang
siesta: k-grid: Supercell and displacements
siesta: k-grid:   -7   0   7      0.500
siesta: k-grid:    0  -7   7      0.000
siesta: k-grid:    0   0   6      0.000
Naive supercell factors:     4    4    4
Auxiliary supercell needs to be larger than naive one...

superc: Internal auxiliary supercell:     5 x     5 x     4  =     100
superc: Number of atoms, orbitals, and projectors:   1000  3400  8000

* Maximum dynamic memory allocated =     1 MB

siesta:                 ==============================
                            Begin MD step =      1
                        ==============================

outcoor: Atomic coordinates (fractional):                   
    0.00000000    0.00000000    0.00000000   1  Mg         1
    0.50000000    0.50000000    0.50000000   1  Mg         2
    0.25000000    0.25000000    0.25000000   2  C          3
   -0.25000000   -0.25000000   -0.25000000   2  C          4
    0.52740000   -0.02740000    0.25000000   3  O          5
    0.25000000    0.52740000   -0.02740000   3  O          6
   -0.02740000    0.25000000    0.52740000   3  O          7
   -0.52740000    0.02740000   -0.25000000   3  O          8
   -0.25000000   -0.52740000    0.02740000   3  O          9
    0.02740000   -0.25000000   -0.52740000   3  O         10

superc: Internal auxiliary supercell:     5 x     5 x     4  =     100
superc: Number of atoms, orbitals, and projectors:   1000  3400  8000

outcell: Unit cell vectors (Ang):
        5.677830    0.000000    0.000000
        3.786009    4.231299    0.000000
        3.786009    1.692731    3.877957

outcell: Cell vector modules (Ang)   :    5.677830    5.677830    5.677830
outcell: Cell angles (23,13,12) (deg):     48.1790     48.1790     48.1790
outcell: Cell volume (Ang**3)        :     93.1663

InitMesh: MESH =    32 x    32 x    32 =       32768
InitMesh: Mesh cutoff (required, used) =   100.000   112.857 Ry

* Maximum dynamic memory allocated =    12 MB

stepf: Fermi-Dirac step function
 Broyden: No of relevant DM elements:  9610
 maxit for broyden:  4
 cycle on maxit:  T
 variable weight:  T
 initial alpha:  0.1

siesta: Program's energy decomposition (eV):
siesta: Eions   =      5228.674091
siesta: Ena     =      1092.429444
siesta: Ekin    =      2100.835149
siesta: Enl     =      -258.044678
siesta: DEna    =        -0.000015
siesta: DUscf   =         0.000000
siesta: DUext   =         0.000000
siesta: Exc     =      -683.847183
siesta: eta*DQ  =         0.000000
siesta: Emadel  =         0.000000
siesta: Ekinion =         0.000000
siesta: Eharris =     -2966.326649
siesta: Etot    =     -2977.301374
siesta: FreeEng =     -2977.301374

siesta: iscf   Eharris(eV)      E_KS(eV)   FreeEng(eV)   dDmax  Ef(eV)
siesta:    1    -2966.3266    -2977.3014    -2977.3014  1.7526 -2.7494
timer: Routine,Calls,Time,% = IterSCF        1      12.055  65.63
elaps: Routine,Calls,Wall,% = IterSCF        1      14.958  65.57
siesta:    2    -2967.0422    -2949.8288    -2949.8288  0.8023 -1.9561
siesta:    3    -2963.3586    -2951.3442    -2951.3442  0.6248 -1.8511
siesta:    4    -2957.5999    -2954.1342    -2954.1342  0.0411 -2.6421
siesta:    5    -2957.5949    -2954.7036    -2954.7036  0.0328 -2.6682
siesta:    6    -2957.5851    -2957.2660    -2957.2660  0.0058 -2.7830
Cycling the Broyden process...
siesta:    7    -2957.5851    -2957.5576    -2957.5576  0.0003 -2.7732
Cycling the Broyden process...
siesta:    8    -2957.5851    -2957.5361    -2957.5361  0.0008 -2.7712
Cycling the Broyden process...
siesta:    9    -2957.5850    -2957.5775    -2957.5775  0.0001 -2.7735

siesta: E_KS(eV) =            -2957.5852

siesta: E_KS - E_eggbox =     -2957.5852

siesta: Atomic forces (eV/Ang):
     1   -0.000000    0.000000   -0.000000
     2   -0.000011   -0.000005   -0.000012
     3   -0.000105   -0.000053   -0.000107
     4   -0.000121    0.000059   -0.000098
     5    3.197683   -7.152022   -0.000008
     6   -0.000013    4.290865   -6.554790
     7   -3.197683    2.861177    6.554772
     8   -3.197691    7.152023    0.000010
     9   -0.000003   -4.290871    6.554793
    10    3.197682   -2.861167   -6.554778
----------------------------------------
   Tot   -0.000262    0.000005   -0.000217
----------------------------------------
   Max    7.152023
   Res    3.503617    sqrt( Sum f_i^2 / 3N )
----------------------------------------
   Max    7.152023    constrained

Stress-tensor-Voigt (kbar):       89.91     -224.87     -269.81      175.90       51.48      115.15
Target enthalpy (eV/cell)    -2957.5852

siesta: Stress tensor (static) (eV/Ang**3):
         0.056114    0.109786    0.071868
         0.109786   -0.140351    0.032132
         0.071868    0.032132   -0.168403

siesta: Pressure (static):        134.92586288  kBar

siesta: Stress tensor (total) (eV/Ang**3):
         0.056114    0.109786    0.071868
         0.109786   -0.140351    0.032132
         0.071868    0.032132   -0.168403

siesta: Pressure (total):        134.92586288  kBar

siesta: Temp_ion =       0.000 K

* Maximum dynamic memory allocated =    12 MB

siesta:                 ==============================
                            Begin MD step =      2
                        ==============================

outcoor: Atomic coordinates (fractional):                   
   -0.00000000    0.00000000   -0.00000000   1  Mg         1
    0.50000000    0.50000000    0.50000000   1  Mg         2
    0.25000000    0.25000000    0.24999999   2  C          3
   -0.25000001   -0.24999999   -0.25000001   2  C          4
    0.52790597   -0.02790597    0.25000000   3  O          5
    0.25000000    0.52790597   -0.02790597   3  O          6
   -0.02790597    0.25000000    0.52790597   3  O          7
   -0.52790597    0.02790597   -0.25000000   3  O          8
   -0.25000000   -0.52790597    0.02790597   3  O          9
    0.02790597   -0.25000000   -0.52790597   3  O         10

superc: Internal auxiliary supercell:     5 x     5 x     4  =     100
superc: Number of atoms, orbitals, and projectors:   1000  3400  8000

outcell: Unit cell vectors (Ang):
        5.677830    0.000000    0.000000
        3.786009    4.231299    0.000000
        3.786009    1.692731    3.877957

outcell: Cell vector modules (Ang)   :    5.677830    5.677830    5.677830
outcell: Cell angles (23,13,12) (deg):     48.1790     48.1790     48.1790
outcell: Cell volume (Ang**3)        :     93.1663

siesta: iscf   Eharris(eV)      E_KS(eV)   FreeEng(eV)   dDmax  Ef(eV)
siesta:    1    -2957.6942    -2957.5109    -2957.5109  0.0057 -2.8254
siesta:    2    -2957.6942    -2957.6935    -2957.6935  0.0052 -2.8074
siesta:    3    -2957.6941    -2957.6936    -2957.6936  0.0040 -2.8089
siesta:    4    -2957.6939    -2957.6938    -2957.6938  0.0002 -2.8143
siesta:    5    -2957.6939    -2957.6939    -2957.6939  0.0000 -2.8148

siesta: E_KS(eV) =            -2957.6939

siesta: Atomic forces (eV/Ang):
     1    0.000003   -0.000015    0.000009
     2    0.000011    0.000006    0.000012
     3    0.000104    0.000057    0.000108
     4    0.000117   -0.000070    0.000109
     5    3.117066   -6.971709    0.000001
     6   -0.000006    4.182682   -6.389535
     7   -3.117068    2.789039    6.389537
     8   -3.117070    6.971721    0.000010
     9   -0.000004   -4.182683    6.389527
    10    3.117078   -2.789038   -6.389553
----------------------------------------
   Tot    0.000231   -0.000010    0.000225
----------------------------------------
   Max    6.971721
   Res    3.415289    sqrt( Sum f_i^2 / 3N )
----------------------------------------
   Max    6.971721    constrained

Stress-tensor-Voigt (kbar):       91.16     -217.23     -261.26      172.33       50.44      112.81
Target enthalpy (eV/cell)    -2957.6939

siesta: Stress tensor (static) (eV/Ang**3):
         0.056896    0.107558    0.070409
         0.107558   -0.135582    0.031480
         0.070409    0.031480   -0.163064

siesta: Pressure (static):        129.10979174  kBar

siesta: Stress tensor (total) (eV/Ang**3):
         0.056896    0.107558    0.070409
         0.107558   -0.135582    0.031480
         0.070409    0.031480   -0.163064

siesta: Pressure (total):        129.10979174  kBar

siesta: Temp_ion =      92.389 K

* Maximum dynamic memory allocated =    12 MB

siesta: Program's energy decomposition (eV):
siesta: Eions   =      5228.674091
siesta: Ena     =      1092.563488
siesta: Ekin    =      2282.004590
siesta: Enl     =      -363.876289
siesta: DEna    =       -42.643065
siesta: DUscf   =         7.266018
siesta: DUext   =         0.000000
siesta: Exc     =      -704.334521
siesta: eta*DQ  =         0.000000
siesta: Emadel  =         0.000000
siesta: Ekinion =         0.107475
siesta: Eharris =     -2957.586423
siesta: Etot    =     -2957.586394
siesta: FreeEng =     -2957.586394

siesta: Final energy (eV):
siesta:       Kinetic =    2282.004590
siesta:       Hartree =    1029.351935
siesta:    Ext. field =       0.000000
siesta:   Exch.-corr. =    -704.334521
siesta:  Ion-electron =   -4036.390891
siesta:       Ion-ion =   -1528.324982
siesta:       Ekinion =       0.107475
siesta:         Total =   -2957.586394

siesta: Atomic forces (eV/Ang):
siesta:      1    0.000003   -0.000015    0.000009
siesta:      2    0.000011    0.000006    0.000012
siesta:      3    0.000104    0.000057    0.000108
siesta:      4    0.000117   -0.000070    0.000109
siesta:      5    3.117066   -6.971709    0.000001
siesta:      6   -0.000006    4.182682   -6.389535
siesta:      7   -3.117068    2.789039    6.389537
siesta:      8   -3.117070    6.971721    0.000010
siesta:      9   -0.000004   -4.182683    6.389527
siesta:     10    3.117078   -2.789038   -6.389553
siesta: ----------------------------------------
siesta:    Tot    0.000231   -0.000010    0.000225

siesta: Stress tensor (static) (eV/Ang**3):
siesta:     0.056896    0.107558    0.070409
siesta:     0.107558   -0.135582    0.031480
siesta:     0.070409    0.031480   -0.163064

siesta: Cell volume =         93.166340 Ang**3

siesta: Pressure (static):
siesta:                Solid            Molecule  Units
siesta:           0.00087765         -0.00142224  Ry/Bohr**3
siesta:           0.08058312         -0.13058481  eV/Ang**3
siesta:         129.10979174       -209.22219580  kBar

* Maximum dynamic memory allocated : Node    0 =    12 MB

* Maximum memory occured during poison                        

timer: CPU execution times:
timer:  Routine       Calls   Time/call    Tot.time        %
timer:  siesta            1     100.231     100.231   100.00
timer:  Setup             1       2.132       2.132     2.13
timer:  bands             1       0.002       0.002     0.00
timer:  writewave         1       0.005       0.005     0.00
timer:  KSV_init          1       0.002       0.002     0.00
timer:  IterMD            2      48.972      97.944    97.72
timer:  hsparse           3       1.445       4.336     4.33
timer:  overfsm           4       0.113       0.452     0.45
timer:  IterSCF          16       5.675      90.798    90.59
timer:  kinefsm           4       0.099       0.397     0.40
timer:  nlefsm            4       1.334       5.337     5.32
timer:  DHSCF            16       1.738      27.809    27.75
timer:  DHSCF1            1       0.799       0.799     0.80
timer:  DHSCF2            2       3.924       7.848     7.83
timer:  REORD           100       0.000       0.050     0.05
timer:  POISON           18       0.023       0.416     0.42
timer:  DHSCF3           16       0.599       9.583     9.56
timer:  rhoofd           16       0.196       3.139     3.13
timer:  cellXC           16       0.241       3.853     3.84
timer:  vmat             16       0.127       2.024     2.02
timer:  diagon           14       4.056      56.783    56.65
timer:  cdiag          4312       0.006      23.786    23.73
timer:  cdiag1         4312       0.002       9.496     9.47
timer:  cdiag2         4312       0.001       3.350     3.34
timer:  cdiag3         4312       0.002       9.550     9.53
timer:  cdiag4         4312       0.000       0.611     0.61
timer:  DHSCF4            2       4.772       9.544     9.52
timer:  dfscf             2       2.085       4.169     4.16
timer:  optical           1       0.002       0.002     0.00
  

elaps: ELAPSED times:
elaps:  Routine       Calls   Time/call    Tot.time        %
elaps:  siesta            1     125.485     125.485   100.00
elaps:  Setup             1       3.094       3.094     2.47
elaps:  bands             1       0.002       0.002     0.00
elaps:  writewave         1       0.005       0.005     0.00
elaps:  KSV_init          1       0.002       0.002     0.00
elaps:  IterMD            2      61.102     122.204    97.38
elaps:  hsparse           3       1.628       4.884     3.89
elaps:  overfsm           4       0.135       0.540     0.43
elaps:  IterSCF          16       7.125     114.004    90.85
elaps:  kinefsm           4       0.114       0.457     0.36
elaps:  nlefsm            4       1.552       6.209     4.95
elaps:  DHSCF            16       2.297      36.744    29.28
elaps:  DHSCF1            1       0.837       0.837     0.67
elaps:  DHSCF2            2       4.891       9.783     7.80
elaps:  REORD           100       0.000       0.050     0.04
elaps:  POISON           18       0.032       0.569     0.45
elaps:  DHSCF3           16       0.721      11.538     9.19
elaps:  rhoofd           16       0.238       3.803     3.03
elaps:  cellXC           16       0.293       4.682     3.73
elaps:  vmat             16       0.145       2.326     1.85
elaps:  diagon           14       4.786      66.998    53.39
elaps:  cdiag          4312       0.007      28.194    22.47
elaps:  cdiag1         4312       0.003      11.400     9.08
elaps:  cdiag2         4312       0.001       4.037     3.22
elaps:  cdiag3         4312       0.003      11.220     8.94
elaps:  cdiag4         4312       0.000       0.768     0.61
elaps:  DHSCF4            2       7.255      14.510    11.56
elaps:  dfscf             2       3.677       7.353     5.86
elaps:  optical           1       0.002       0.002     0.00
  
>> End of run:   5-DEC-2006  11:46:17
