Siesta Version  : siesta-4.1-1033
Architecture    : x86_64-linux-n-62-18-18
Compiler version: GNU Fortran (GCC) 7.3.0
Compiler flags  : mpifort -m64 -fPIC -O3 -march=native -ftree-vectorize -fexpensive-optimizatioons -funroll-loops -fprefetch-loop-arrays -fno-second-underscore  -flto
PP flags        : -I/zdata/groups/common/nicpa/2018-feb/generic/build-tools/1.0/include -I/zdatta/groups/common/nicpa/2018-feb/generic/gcc/7.3.0/include -I/zdata/groups/common/nicpa/2018-feb/generic/gcc/7.3.0/include -I/zdata/groups/common/nicpa/2018-feb/XeonE5-2665/zlib/1.2.11/gnu-7.3.0/include -I/zdata/groups/common/nicpa/2018-feb/generic/numactl/2.0.11/include -I/zdata/groups/common/nicpa/2018-feb/XeonE5-2665/libxml2/2.9.7/gnu-7.3.0/include -I/zdata/groups/common/nicpa/2018-feb/XeonE5-2665/hwloc/1.11.9/gnu-7.3.0/include -I/zdata/groups/common/nicpa/2018-feb/XeonE5-2665/openmpi/3.0.0/gnu-7.3.0/include -I/zdata/groups/common/nicpa/2018-feb/XeonE5-2665/szip/2.1.1/gnu-7.3.0/include -I/zdata/groups/common/nicpa/2018-feb/XeonE5-2665/hdf5/1.8.18/gnu-7.3.0/include -I/zdata/groups/common/nicpa/2018-feb/XeonE5-2665/pnetcdf/1.8.1/gnu-7.3.0/include -I/zdata/groups/common/nicpa/2018-feb/XeonE5-2665/netcdf/4.6.0/gnu-7.3.0/include -I/zdata/groups/common/nicpa/2018-feb/XeonE5-2665/flook/0.7.0/gnu-7.3.0/include -I/zdata/groups/common/nicpa/2018-feb/XeonE5-2665/parmetis/4.0.3/gnu-7.3.0/include -I/zdata/groups/common/nicpa/2018-feb/XeonE5-2665/scalapack/204/gnu-7.3.0/include -I/zdata/groups/common/nicpa/2018-feb/XeonE5-2665/openblas/0.2.20/gnu-7.3.0/include -I/zdata/groups/common/nicpa/2018-feb/XeonE5-2665/scotch/6.0.4/gnu-7.3.0/include -I/zdata/groups/common/nicpa/2018-feb/XeonE5-2665/mumps/5.1.2/gnu-7.3.0/include -I/zdata/groups/common/nicpa/2018-feb/XeonE5-2665/fftw/3.3.7/gnu-7.3.0/include -I/zdata/groups/common/nicpa/2018-feb/XeonE5-2665/elpa/2017.05.003/gnu-7.3.0/include/elpa -DSIESTA__ELPA -DMPI -D1 -DFC_HAVE_ABORT -DCDF -DCDF4 -DSIESTA__FLOOK  -DNCDF -DNCDF_4 -DNCDF_PARALLEL -DSIESTA__METIS -DSIESTA__MUMPS -DTS_NOCHECKS -DSIESTA__MRRR
Libraries       : libncdf.a libfdict.a -lnetcdff -lnetcdf -lpnetcdf -lhdf5_hl -lhdf5 -lz  -lzmuumps -lmumps_common -lesmumps -lscotch -lscotcherr -lpord -lparmetis -lmetis -lelpa -lscalapack -lopenblas  -L/zdata/groups/common/nicpa/2018-feb/XeonE5-2665/flook/0.7.0/gnu-7.3.0/lib -Wl,-rpath=/zdata/groups/common/nicpa/2018-feb/XeonE5-2665/flook/0.7.0/gnu-7.3.0/lib -lflookall -ldl  -flto -fuse-linker-plugin  -lmetis
PARALLEL version
NetCDF support
NetCDF-4 support
NetCDF-4 MPI-IO support
METIS ordering support

* Running on 8 nodes in parallel
>> Start of run:   5-NOV-2018  10:53:45

                           ***********************       
                           *  WELCOME TO SIESTA  *       
                           ***********************       

reinit: Reading from ../mgco3.fdf

reinit: -----------------------------------------------------------------------
reinit: System Name: MgCo3 R-3c test -- SZ, 100 Ry
reinit: -----------------------------------------------------------------------
reinit: System Label: mgco3
reinit: -----------------------------------------------------------------------

initatom: Reading input for the pseudopotentials and atomic orbitals ----------
Species number:   1 Atomic number:   12 Label: Mg
Species number:   2 Atomic number:    6 Label: C
Species number:   3 Atomic number:    8 Label: O

Ground state valence configuration:   3s02
Reading pseudopotential information in formatted form from Mg.psf

Valence configuration for pseudopotential generation:
3s( 2.00) rc: 2.59
3p( 0.00) rc: 2.59
3d( 0.00) rc: 2.59
4f( 0.00) rc: 2.59
Ground state valence configuration:   2s02  2p02
Reading pseudopotential information in formatted form from C.psf

Valence configuration for pseudopotential generation:
2s( 2.00) rc: 1.49
2p( 2.00) rc: 1.52
3d( 0.00) rc: 1.58
Ground state valence configuration:   2s02  2p04
Reading pseudopotential information in formatted form from O.psf

Valence configuration for pseudopotential generation:
2s( 2.00) rc: 1.14
2p( 4.00) rc: 1.14
3d( 0.00) rc: 1.14
4f( 0.00) rc: 1.14
For Mg, standard SIESTA heuristics set lmxkb to 1
 (one more than the basis l, including polarization orbitals).
Use PS.lmax or PS.KBprojectors blocks to override.
For C, standard SIESTA heuristics set lmxkb to 2
 (one more than the basis l, including polarization orbitals).
Use PS.lmax or PS.KBprojectors blocks to override.
For O, standard SIESTA heuristics set lmxkb to 2
 (one more than the basis l, including polarization orbitals).
Use PS.lmax or PS.KBprojectors blocks to override.

<basis_specs>
===============================================================================
Mg                   Z=  12    Mass=  24.310        Charge= 0.17977+309
Lmxo=0 Lmxkb= 1    BasisType=split      Semic=F
L=0  Nsemic=0  Cnfigmx=3
          n=1  nzeta=1  polorb=0
            splnorm:   0.15000    
               vcte:    0.0000    
               rinn:    0.0000    
               qcoe:    0.0000    
               qyuk:    0.0000    
               qwid:   0.10000E-01
                rcs:    0.0000    
            lambdas:    1.0000    
-------------------------------------------------------------------------------
L=0  Nkbl=1  erefs: 0.17977+309
L=1  Nkbl=1  erefs: 0.17977+309
===============================================================================
</basis_specs>

atom: Called for Mg                    (Z =  12)

read_vps: Pseudopotential generation method:
read_vps: ATM3      Troullier-Martins                       
Total valence charge:    2.00000

xc_check: Exchange-correlation functional:
xc_check: Ceperley-Alder
V l=0 = -2*Zval/r beyond r=  3.5878
V l=1 = -2*Zval/r beyond r=  3.5878
All V_l potentials equal beyond r=  2.5600
This should be close to max(r_c) in ps generation
All pots = -2*Zval/r beyond r=  3.5878
Using large-core scheme for Vlocal

atom: Estimated core radius    3.58779

atom: Including non-local core corrections could be a good idea
atom: Maximum radius for 4*pi*r*r*local-pseudopot. charge    3.91588
atom: Maximum radius for r*vlocal+2*Zval:    3.63292
GHOST: No ghost state for L =  0
GHOST: No ghost state for L =  1

KBgen: Kleinman-Bylander projectors: 
   l= 0   rc=  2.657845   el= -0.351328   Ekb=  2.184400   kbcos=  0.257081
   l= 1   rc=  2.657845   el= -0.101748   Ekb=  0.525536   kbcos=  0.270508

KBgen: Total number of  Kleinman-Bylander projectors:    4
atom: -------------------------------------------------------------------------

atom: SANKEY-TYPE ORBITALS:

SPLIT: Orbitals with angular momentum L= 0

SPLIT: Basis orbitals for state 3s

SPLIT: PAO cut-off radius determined from an
SPLIT: energy shift=  0.020000 Ry

   izeta = 1
                 lambda =    1.000000
                     rc =    6.619780
                 energy =   -0.332103
                kinetic =    0.289627
    potential(screened) =   -0.621729
       potential(ionic) =   -1.387191
atom: Total number of Sankey-type orbitals:  1

atm_pop: Valence configuration (for local Pseudopot. screening):
 3s( 2.00)                                                            
Vna: chval, zval:    2.00000   2.00000

Vna:  Cut-off radius for the neutral-atom potential:   6.619780

atom: _________________________________________________________________________

<basis_specs>
===============================================================================
C                    Z=   6    Mass=  12.010        Charge= 0.17977+309
Lmxo=1 Lmxkb= 2    BasisType=split      Semic=F
L=0  Nsemic=0  Cnfigmx=2
          n=1  nzeta=1  polorb=0
            splnorm:   0.15000    
               vcte:    0.0000    
               rinn:    0.0000    
               qcoe:    0.0000    
               qyuk:    0.0000    
               qwid:   0.10000E-01
                rcs:    0.0000    
            lambdas:    1.0000    
L=1  Nsemic=0  Cnfigmx=2
          n=1  nzeta=1  polorb=0
            splnorm:   0.15000    
               vcte:    0.0000    
               rinn:    0.0000    
               qcoe:    0.0000    
               qyuk:    0.0000    
               qwid:   0.10000E-01
                rcs:    0.0000    
            lambdas:    1.0000    
-------------------------------------------------------------------------------
L=0  Nkbl=1  erefs: 0.17977+309
L=1  Nkbl=1  erefs: 0.17977+309
L=2  Nkbl=1  erefs: 0.17977+309
===============================================================================
</basis_specs>

atom: Called for C                     (Z =   6)

read_vps: Pseudopotential generation method:
read_vps: ATM3      Troullier-Martins                       
Total valence charge:    4.00000

xc_check: Exchange-correlation functional:
xc_check: Ceperley-Alder
V l=0 = -2*Zval/r beyond r=  1.4666
V l=1 = -2*Zval/r beyond r=  1.5038
V l=2 = -2*Zval/r beyond r=  1.5612
All V_l potentials equal beyond r=  1.5612
This should be close to max(r_c) in ps generation
All pots = -2*Zval/r beyond r=  1.5612

VLOCAL1: 99.0% of the norm of Vloc inside     17.809 Ry
VLOCAL1: 99.9% of the norm of Vloc inside     40.586 Ry
atom: Maximum radius for 4*pi*r*r*local-pseudopot. charge    1.88329
atom: Maximum radius for r*vlocal+2*Zval:    1.62091
GHOST: No ghost state for L =  0
GHOST: No ghost state for L =  1
GHOST: No ghost state for L =  2

KBgen: Kleinman-Bylander projectors: 
   l= 0   rc=  1.747182   el= -1.001947   Ekb=  5.181700   kbcos=  0.300603
   l= 1   rc=  1.747182   el= -0.398598   Ekb= -4.328763   kbcos= -0.367074
   l= 2   rc=  1.955272   el=  0.002326   Ekb= -1.016175   kbcos= -0.009979

KBgen: Total number of  Kleinman-Bylander projectors:    9
atom: -------------------------------------------------------------------------

atom: SANKEY-TYPE ORBITALS:

SPLIT: Orbitals with angular momentum L= 0

SPLIT: Basis orbitals for state 2s

SPLIT: PAO cut-off radius determined from an
SPLIT: energy shift=  0.020000 Ry

   izeta = 1
                 lambda =    1.000000
                     rc =    4.191849
                 energy =   -0.983897
                kinetic =    0.886956
    potential(screened) =   -1.870853
       potential(ionic) =   -5.479661

SPLIT: Orbitals with angular momentum L= 1

SPLIT: Basis orbitals for state 2p

SPLIT: PAO cut-off radius determined from an
SPLIT: energy shift=  0.020000 Ry

   izeta = 1
                 lambda =    1.000000
                     rc =    4.870301
                 energy =   -0.379093
                kinetic =    2.545357
    potential(screened) =   -2.924450
       potential(ionic) =   -6.433151
atom: Total number of Sankey-type orbitals:  4

atm_pop: Valence configuration (for local Pseudopot. screening):
 2s( 2.00)                                                            
 2p( 2.00)                                                            
Vna: chval, zval:    4.00000   4.00000

Vna:  Cut-off radius for the neutral-atom potential:   4.870301

atom: _________________________________________________________________________

<basis_specs>
===============================================================================
O                    Z=   8    Mass=  16.000        Charge= 0.17977+309
Lmxo=1 Lmxkb= 2    BasisType=split      Semic=F
L=0  Nsemic=0  Cnfigmx=2
          n=1  nzeta=1  polorb=0
            splnorm:   0.15000    
               vcte:    0.0000    
               rinn:    0.0000    
               qcoe:    0.0000    
               qyuk:    0.0000    
               qwid:   0.10000E-01
                rcs:    0.0000    
            lambdas:    1.0000    
L=1  Nsemic=0  Cnfigmx=2
          n=1  nzeta=1  polorb=0
            splnorm:   0.15000    
               vcte:    0.0000    
               rinn:    0.0000    
               qcoe:    0.0000    
               qyuk:    0.0000    
               qwid:   0.10000E-01
                rcs:    0.0000    
            lambdas:    1.0000    
-------------------------------------------------------------------------------
L=0  Nkbl=1  erefs: 0.17977+309
L=1  Nkbl=1  erefs: 0.17977+309
L=2  Nkbl=1  erefs: 0.17977+309
===============================================================================
</basis_specs>

atom: Called for O                     (Z =   8)

read_vps: Pseudopotential generation method:
read_vps: ATM3      Troullier-Martins                       
Total valence charge:    6.00000

xc_check: Exchange-correlation functional:
xc_check: Ceperley-Alder
V l=0 = -2*Zval/r beyond r=  1.1278
V l=1 = -2*Zval/r beyond r=  1.1278
V l=2 = -2*Zval/r beyond r=  1.1278
All V_l potentials equal beyond r=  1.1278
This should be close to max(r_c) in ps generation
All pots = -2*Zval/r beyond r=  1.1278

VLOCAL1: 99.0% of the norm of Vloc inside     34.126 Ry
VLOCAL1: 99.9% of the norm of Vloc inside     77.774 Ry
atom: Maximum radius for 4*pi*r*r*local-pseudopot. charge    1.37759
atom: Maximum radius for r*vlocal+2*Zval:    1.18566
GHOST: No ghost state for L =  0
GHOST: No ghost state for L =  1
GHOST: No ghost state for L =  2

KBgen: Kleinman-Bylander projectors: 
   l= 0   rc=  1.294105   el= -1.742414   Ekb=  9.135903   kbcos=  0.326910
   l= 1   rc=  1.294105   el= -0.676589   Ekb= -8.124878   kbcos= -0.395047
   l= 2   rc=  1.448233   el=  0.002386   Ekb= -2.039267   kbcos= -0.003484

KBgen: Total number of  Kleinman-Bylander projectors:    9
atom: -------------------------------------------------------------------------

atom: SANKEY-TYPE ORBITALS:

SPLIT: Orbitals with angular momentum L= 0

SPLIT: Basis orbitals for state 2s

SPLIT: PAO cut-off radius determined from an
SPLIT: energy shift=  0.020000 Ry

   izeta = 1
                 lambda =    1.000000
                     rc =    3.305093
                 energy =   -1.723766
                kinetic =    1.614911
    potential(screened) =   -3.338677
       potential(ionic) =  -11.304675

SPLIT: Orbitals with angular momentum L= 1

SPLIT: Basis orbitals for state 2p

SPLIT: PAO cut-off radius determined from an
SPLIT: energy shift=  0.020000 Ry

   izeta = 1
                 lambda =    1.000000
                     rc =    3.937239
                 energy =   -0.658841
                kinetic =    5.005986
    potential(screened) =   -5.664827
       potential(ionic) =  -13.452360
atom: Total number of Sankey-type orbitals:  4

atm_pop: Valence configuration (for local Pseudopot. screening):
 2s( 2.00)                                                            
 2p( 4.00)                                                            
Vna: chval, zval:    6.00000   6.00000

Vna:  Cut-off radius for the neutral-atom potential:   3.937239

atom: _________________________________________________________________________

prinput: Basis input ----------------------------------------------------------

PAO.BasisType split     

%block ChemicalSpeciesLabel
    1   12 Mg                      # Species index, atomic number, species label
    2    6 C                       # Species index, atomic number, species label
    3    8 O                       # Species index, atomic number, species label
%endblock ChemicalSpeciesLabel

%block PAO.Basis                 # Define Basis set
Mg                    1                    # Species label, number of l-shells
 n=3   0   1                         # n, l, Nzeta 
   6.620   
   1.000   
C                     2                    # Species label, number of l-shells
 n=2   0   1                         # n, l, Nzeta 
   4.192   
   1.000   
 n=2   1   1                         # n, l, Nzeta 
   4.870   
   1.000   
O                     2                    # Species label, number of l-shells
 n=2   0   1                         # n, l, Nzeta 
   3.305   
   1.000   
 n=2   1   1                         # n, l, Nzeta 
   3.937   
   1.000   
%endblock PAO.Basis

prinput: ----------------------------------------------------------------------

Dumping basis to NetCDF file Mg.ion.nc
Dumping basis to NetCDF file C.ion.nc
Dumping basis to NetCDF file O.ion.nc
coor:   Atomic-coordinates input format  =     Fractional

siesta: Atomic coordinates (Bohr) and species
siesta:      0.00000   0.00000   0.00000  1        1
siesta:     12.51930   5.59740   3.66414  1        2
siesta:      6.25965   2.79870   1.83207  2        3
siesta:     -6.25965  -2.79870  -1.83207  2        4
siesta:      7.25136   0.58061   1.83207  3        5
siesta:      6.25965   4.12944  -0.20079  3        6
siesta:      5.26794   3.68605   3.86493  3        7
siesta:     -7.25136  -0.58061  -1.83207  3        8
siesta:     -6.25965  -4.12944   0.20079  3        9
siesta:     -5.26794  -3.68605  -3.86493  3       10

siesta: System type = bulk      

initatomlists: Number of atoms, orbitals, and projectors:     10    34    80

siesta: ******************** Simulation parameters ****************************
siesta:
siesta: The following are some of the parameters of the simulation.
siesta: A complete list of the parameters used, including default values,
siesta: can be found in file out.fdf
siesta:
redata: Spin configuration                          = none
redata: Number of spin components                   = 1
redata: Time-Reversal Symmetry                      = T
redata: Spin-spiral                                 = F
redata: Long output                                 =   F
redata: Number of Atomic Species                    =        3
redata: Charge density info will appear in .RHO file
redata: Write Mulliken Pop.                         = NO
redata: Matel table size (NRTAB)                    =     1024
redata: Mesh Cutoff                                 =   100.0000 Ry
redata: Net charge of the system                    =     0.0000 |e|
redata: Min. number of SCF Iter                     =        0
redata: Max. number of SCF Iter                     =     1000
redata: SCF convergence failure will abort job
redata: SCF mix quantity                            = Hamiltonian
redata: Mix DM or H after convergence               =   F
redata: Recompute H after scf cycle                 =   F
redata: Mix DM in first SCF step                    =   T
redata: Write Pulay info on disk                    =   F
redata: New DM Mixing Weight                        =     0.1000
redata: New DM Occupancy tolerance                  = 0.000000000001
redata: No kicks to SCF
redata: DM Mixing Weight for Kicks                  =     0.5000
redata: Require Harris convergence for SCF          =   F
redata: Harris energy tolerance for SCF             =     0.000100 eV
redata: Require DM convergence for SCF              =   T
redata: DM tolerance for SCF                        =     0.000100
redata: Require EDM convergence for SCF             =   F
redata: EDM tolerance for SCF                       =     0.001000 eV
redata: Require H convergence for SCF               =   T
redata: Hamiltonian tolerance for SCF               =     0.001000 eV
redata: Require (free) Energy convergence for SCF   =   F
redata: (free) Energy tolerance for SCF             =     0.000100 eV
redata: Using Saved Data (generic)                  =   F
redata: Use continuation files for DM               =   T
redata: Neglect nonoverlap interactions             =   F
redata: Method of Calculation                       = Diagonalization
redata: Electronic Temperature                      =   299.9869 K
redata: Fix the spin of the system                  =   F
redata: Dynamics option                             = Verlet MD run
redata: Initial MD time step                        =        1
redata:   Final MD time step                        =        2
redata: Length of MD time step                      =     1.0000 fs
redata: Initial Temperature of MD run               =     0.0000 K
redata: Perform a MD quench                         =   F
mix.SCF: Broyden mixing                          = Broyden
mix.SCF:    History steps                        = 4
mix.SCF:    Jacobian weight                      =     0.100000
mix.SCF:    Weight prime                         =     0.100000
redata: Save all siesta data in one NC              =   F
redata: ***********************************************************************

%block SCF.Mixers
  Broyden
%endblock SCF.Mixers

%block SCF.Mixer.Broyden
  # Mixing method
  method broyden

  # Mixing options
  weight 0.1000
  weight.linear 0.1000
  history 4
%endblock SCF.Mixer.Broyden

Size of DM history Fstack: 1
Total number of electrons:    48.000000
Total ionic charge:    48.000000

* ProcessorY, Blocksize:    2   4


* Orbital distribution balance (max,min):     6     4

 Kpoints in:          294 . Kpoints trimmed:          294

siesta: k-grid: Number of k-points =   294
siesta: k-grid: Cutoff (effective) =    16.222 Ang
siesta: k-grid: Supercell and displacements
siesta: k-grid:   -7   0   7      0.500
siesta: k-grid:    0  -7   7      0.000
siesta: k-grid:    0   0   6      0.000

diag: Algorithm                                     = D&C
diag: Parallel over k                               =   F
diag: Use parallel 2D distribution                  =   T
diag: Parallel block-size                           = 4
diag: Parallel distribution                         =     2 x     4
diag: Used triangular part                          = Lower
diag: Absolute tolerance                            =  0.100E-15
diag: Orthogonalization factor                      =  0.100E-05
diag: Memory factor                                 =  1.0000

superc: Internal auxiliary supercell:     5 x     5 x     5  =     125
superc: Number of atoms, orbitals, and projectors:   1250   4250  10000


ts: **************************************************************
ts: Save H and S matrices                           =    F
ts: Save DM and EDM matrices                        =    F
ts: Fix Hartree potential                           =    F
ts: Only save the overlap matrix S                  =    F
ts: **************************************************************

************************ Begin: TS CHECKS AND WARNINGS ************************
************************ End: TS CHECKS AND WARNINGS **************************


                     ====================================
                        Begin MD step =      1
                     ====================================

outcoor: Atomic coordinates (fractional):                   
    0.00000000    0.00000000    0.00000000   1       1  Mg
    0.50000000    0.50000000    0.50000000   1       2  Mg
    0.25000000    0.25000000    0.25000000   2       3  C
   -0.25000000   -0.25000000   -0.25000000   2       4  C
    0.52740000   -0.02740000    0.25000000   3       5  O
    0.25000000    0.52740000   -0.02740000   3       6  O
   -0.02740000    0.25000000    0.52740000   3       7  O
   -0.52740000    0.02740000   -0.25000000   3       8  O
   -0.25000000   -0.52740000    0.02740000   3       9  O
    0.02740000   -0.25000000   -0.52740000   3      10  O

superc: Internal auxiliary supercell:     5 x     5 x     5  =     125
superc: Number of atoms, orbitals, and projectors:   1250   4250  10000

outcell: Unit cell vectors (Ang):
        5.677830    0.000000    0.000000
        3.786009    4.231299    0.000000
        3.786009    1.692731    3.877957

outcell: Cell vector modules (Ang)   :    5.677830    5.677830    5.677830
outcell: Cell angles (23,13,12) (deg):     48.1790     48.1790     48.1790
outcell: Cell volume (Ang**3)        :     93.1663
<dSpData1D:S at geom step 1
  <sparsity:sparsity for geom step 1
    nrows_g=34 nrows=6 sparsity=2.0311 nnzs=2348, refcount: 7>
  <dData1D:(new from dSpData1D) n=2348, refcount: 1>
refcount: 1>
new_DM -- step:     1
Initializing Density Matrix...

Attempting to read DM from file... Failed...
DM filled with atomic data:
<dSpData2D:DM initialized from atoms
  <sparsity:sparsity for geom step 1
    nrows_g=34 nrows=6 sparsity=2.0311 nnzs=2348, refcount: 8>
  <dData2D:DM n=2348 m=1, refcount: 1>
refcount: 1>
No. of atoms with KB's overlaping orbs in proc 0. Max # of overlaps:      89      85
New grid distribution:   1
           1       1:   16    1:    8    1:    4
           2       1:   16    1:    8    5:    8
           3       1:   16    1:    8    9:   12
           4       1:   16    1:    8   13:   16
           5       1:   16    9:   16    1:    4
           6       1:   16    9:   16    5:    8
           7       1:   16    9:   16    9:   12
           8       1:   16    9:   16   13:   16

InitMesh: MESH =    32 x    32 x    32 =       32768
InitMesh: (bp) =    16 x    16 x    16 =        4096
InitMesh: Mesh cutoff (required, used) =   100.000   112.857 Ry
ExtMesh (bp) on 0 =    76 x    68 x    64 =      330752
New grid distribution:   2
           1       8:   16    1:    8    1:    8
           2       9:   16    9:   16    1:    8
           3       1:    8    1:    8    9:   16
           4       1:    7    1:    8    1:    8
           5       9:   16    1:    8    9:   16
           6       1:    8    9:   16    1:    8
           7       1:    9    9:   16    9:   16
           8      10:   16    9:   16    9:   16
New grid distribution:   3
           1       1:    8    9:   16    9:   16
           2       9:   16    1:    8    1:    8
           3       9:   16    1:    8    9:   16
           4       9:   16    9:   16    1:    8
           5       1:    8    1:    8    9:   16
           6       1:    8    1:    8    1:    8
           7       9:   16    9:   16    9:   16
           8       1:    8    9:   16    1:    8
Setting up quadratic distribution...
ExtMesh (bp) on 0 =    69 x    68 x    68 =      319056
PhiOnMesh: Number of (b)points on node 0 =                  576
PhiOnMesh: nlist on node 0 =                12062

stepf: Fermi-Dirac step function

siesta: Program's energy decomposition (eV):
siesta: Ebs     =      -555.302338
siesta: Eions   =      5228.674091
siesta: Ena     =      1092.439512
siesta: Ekin    =      2375.469655
siesta: Enl     =      -396.901437
siesta: Eso     =         0.000000
siesta: Eldau   =         0.000000
siesta: DEna    =       -92.440295
siesta: DUscf   =        21.379259
siesta: DUext   =         0.000000
siesta: Enegf   =         0.000000
siesta: Exc     =      -720.304640
siesta: eta*DQ  =         0.000000
siesta: Emadel  =         0.000000
siesta: Emeta   =         0.000000
siesta: Emolmec =         0.000000
siesta: Ekinion =         0.000000
siesta: Eharris =     -2904.060833
siesta: Etot    =     -2949.032038
siesta: FreeEng =     -2949.032038

        iscf     Eharris(eV)        E_KS(eV)     FreeEng(eV)     dDmax    Ef(eV) dHmax(eV)
   scf:    1    -2904.060833    -2949.032038    -2949.032038  1.770207 -2.755932  4.650846
timer: Routine,Calls,Time,% = IterSCF        1       2.334  73.21
   scf:    2    -2954.863791    -2952.047144    -2952.047144  0.068557 -2.835283  3.631894
   scf:    3    -2958.374342    -2956.869230    -2956.869230  0.314305 -3.058408  0.933174
   scf:    4    -2956.911495    -2956.890824    -2956.890824  0.005372 -3.040063  0.837997
   scf:    5    -2957.042304    -2956.986026    -2956.986026  0.034035 -2.716522  0.074213
   scf:    6    -2956.986601    -2956.986666    -2956.986666  0.005009 -2.729518  0.033606
   scf:    7    -2956.986948    -2956.986817    -2956.986817  0.000608 -2.735082  0.017814
   scf:    8    -2956.986975    -2956.986902    -2956.986902  0.000539 -2.740496  0.014298
   scf:    9    -2956.986986    -2956.986947    -2956.986947  0.000464 -2.747364  0.004600
   scf:   10    -2956.986962    -2956.986955    -2956.986955  0.000226 -2.750445  0.002231
   scf:   11    -2956.986956    -2956.986956    -2956.986956  0.000031 -2.750490  0.001935
   scf:   12    -2956.986956    -2956.986956    -2956.986956  0.000027 -2.750384  0.001726
   scf:   13    -2956.986956    -2956.986956    -2956.986956  0.000025 -2.750354  0.001504
   scf:   14    -2956.986956    -2956.986956    -2956.986956  0.000022 -2.750297  0.001277
   scf:   15    -2956.986956    -2956.986956    -2956.986956  0.000018 -2.750245  0.001080
   scf:   16    -2956.986956    -2956.986956    -2956.986956  0.000014 -2.750208  0.000918

SCF Convergence by DM+H criterion
max |DM_out - DM_in|         :     0.0000139200
max |H_out - H_in|      (eV) :     0.0009181542
SCF cycle converged after 16 iterations

Using DM_out to compute the final energy and forces
No. of atoms with KB's overlaping orbs in proc 0. Max # of overlaps:      89      85

siesta: E_KS(eV) =            -2956.9870

siesta: E_KS - E_eggbox =     -2956.9870

siesta: Atomic forces (eV/Ang):
     1   -0.000000   -0.000000   -0.000000
     2    0.000000    0.000000    0.000000
     3   -0.107993    0.096630    0.221367
     4    0.107993   -0.096630   -0.221367
     5    3.416356   -7.413754    0.273948
     6   -0.254889    4.584988   -6.754488
     7   -3.024874    2.706545    6.200549
     8   -3.416356    7.413754   -0.273948
     9    0.254889   -4.584988    6.754488
    10    3.024874   -2.706545   -6.200549
----------------------------------------
   Tot    0.000000    0.000000    0.000000
----------------------------------------
   Max    7.413754
   Res    3.544127    sqrt( Sum f_i^2 / 3N )
----------------------------------------
   Max    7.413754    constrained

Stress-tensor-Voigt (kbar):       92.57     -241.44     -275.33      197.37       73.89      101.82
(Free)E + p*V (eV/cell)    -2948.7647
Target enthalpy (eV/cell)    -2956.9870

siesta: Stress tensor (static) (eV/Ang**3):
         0.057776    0.123187    0.063549
         0.123187   -0.150695    0.046120
         0.063549    0.046120   -0.171843

siesta: Pressure (static):        141.39999875  kBar

siesta: Stress tensor (total) (eV/Ang**3):
         0.057776    0.123187    0.063549
         0.123187   -0.150695    0.046120
         0.063549    0.046120   -0.171843

siesta: Pressure (total):        141.39999875  kBar

siesta: Temp_ion =       0.000 K

                     ====================================
                        Begin MD step =      2
                     ====================================

outcoor: Atomic coordinates (fractional):                   
   -0.00000000   -0.00000000   -0.00000000   1       1  Mg
    0.50000000    0.50000000    0.50000000   1       2  Mg
    0.24997724    0.25000000    0.25002276   2       3  C
   -0.24997724   -0.25000000   -0.25002276   2       4  C
    0.52792139   -0.02793295    0.25002115   3       5  O
    0.24997885    0.52793295   -0.02792139   3       6  O
   -0.02787863    0.25000000    0.52787863   3       7  O
   -0.52792139    0.02793295   -0.25002115   3       8  O
   -0.24997885   -0.52793295    0.02792139   3       9  O
    0.02787863   -0.25000000   -0.52787863   3      10  O

superc: Internal auxiliary supercell:     5 x     5 x     5  =     125
superc: Number of atoms, orbitals, and projectors:   1250   4250  10000

outcell: Unit cell vectors (Ang):
        5.677830    0.000000    0.000000
        3.786009    4.231299    0.000000
        3.786009    1.692731    3.877957

outcell: Cell vector modules (Ang)   :    5.677830    5.677830    5.677830
outcell: Cell angles (23,13,12) (deg):     48.1790     48.1790     48.1790
outcell: Cell volume (Ang**3)        :     93.1663
<dSpData1D:S at geom step 2
  <sparsity:sparsity for geom step 2
    nrows_g=34 nrows=6 sparsity=2.0311 nnzs=2348, refcount: 7>
  <dData1D:(new from dSpData1D) n=2348, refcount: 1>
refcount: 1>
new_DM -- step:     2
Re-using DM from previous geometries...
Number of DMs in history: 1
 DM extrapolation coefficients: 
1   1.00000
New DM after history re-use:
<dSpData2D:SpM extrapolated using coords
  <sparsity:sparsity for geom step 2
    nrows_g=34 nrows=6 sparsity=2.0311 nnzs=2348, refcount: 9>
  <dData2D:(temp array for extrapolation) n=2348 m=1, refcount: 1>
refcount: 1>
No. of atoms with KB's overlaping orbs in proc 0. Max # of overlaps:      89      85
New grid distribution:   1
           1       1:   16    1:    8    1:    4
           2       1:   16    1:    8    5:    8
           3       1:   16    1:    8    9:   12
           4       1:   16    1:    8   13:   16
           5       1:   16    9:   16    1:    4
           6       1:   16    9:   16    5:    8
           7       1:   16    9:   16    9:   12
           8       1:   16    9:   16   13:   16

InitMesh: MESH =    32 x    32 x    32 =       32768
InitMesh: (bp) =    16 x    16 x    16 =        4096
InitMesh: Mesh cutoff (required, used) =   100.000   112.857 Ry
ExtMesh (bp) on 0 =    76 x    68 x    64 =      330752
New grid distribution:   2
           1       8:   16    1:    8    1:    8
           2       9:   16    9:   16    1:    8
           3       1:    8    1:    8    9:   16
           4       1:    7    1:    8    1:    8
           5       9:   16    1:    8    9:   16
           6       1:    8    9:   16    1:    8
           7       1:    9    9:   16    9:   16
           8      10:   16    9:   16    9:   16
New grid distribution:   3
           1       1:    8    9:   16    9:   16
           2       9:   16    1:    8    1:    8
           3       9:   16    1:    8    9:   16
           4       9:   16    9:   16    1:    8
           5       1:    8    1:    8    9:   16
           6       1:    8    1:    8    1:    8
           7       9:   16    9:   16    9:   16
           8       1:    8    9:   16    1:    8
Setting up quadratic distribution...
ExtMesh (bp) on 0 =    69 x    68 x    68 =      319056
PhiOnMesh: Number of (b)points on node 0 =                  576
PhiOnMesh: nlist on node 0 =                12059

        iscf     Eharris(eV)        E_KS(eV)     FreeEng(eV)     dDmax    Ef(eV) dHmax(eV)
   scf:    1    -2952.588879    -2952.400997    -2952.400997  0.005785 -2.799584  7.867198
   scf:    2    -2763.490417    -2894.126494    -2894.127673  1.278507 -0.726527 39.301227
   scf:    3    -2952.438256    -2955.075171    -2955.075171  1.185203 -2.800957  3.967656
   scf:    4    -2953.046564    -2954.761588    -2954.761588  0.113781 -2.751798  6.400260
   scf:    5    -2958.196949    -2957.071694    -2957.071694  0.247216 -2.794339  0.564442
   scf:    6    -2957.043138    -2957.058145    -2957.058145  0.007703 -2.794981  0.754476
   scf:    7    -2957.083887    -2957.071286    -2957.071286  0.004827 -2.794433  0.642649
   scf:    8    -2957.113832    -2957.096742    -2957.096742  0.020622 -2.789482  0.157270
   scf:    9    -2957.098870    -2957.098027    -2957.098027  0.005216 -2.788742  0.046442
   scf:   10    -2957.098503    -2957.098295    -2957.098295  0.001229 -2.788415  0.028251
   scf:   11    -2957.098425    -2957.098362    -2957.098362  0.000536 -2.788326  0.019752
   scf:   12    -2957.098451    -2957.098407    -2957.098407  0.000683 -2.788433  0.011509
   scf:   13    -2957.098421    -2957.098415    -2957.098415  0.000281 -2.788685  0.007520
   scf:   14    -2957.098418    -2957.098417    -2957.098417  0.000109 -2.789119  0.004310
   scf:   15    -2957.098418    -2957.098417    -2957.098417  0.000075 -2.789445  0.001779
   scf:   16    -2957.098418    -2957.098417    -2957.098417  0.000024 -2.789523  0.001206
   scf:   17    -2957.098418    -2957.098418    -2957.098418  0.000013 -2.789542  0.000922

SCF Convergence by DM+H criterion
max |DM_out - DM_in|         :     0.0000129255
max |H_out - H_in|      (eV) :     0.0009218470
SCF cycle converged after 17 iterations

Using DM_out to compute the final energy and forces
No. of atoms with KB's overlaping orbs in proc 0. Max # of overlaps:      89      85

siesta: E_KS(eV) =            -2957.0984

siesta: Atomic forces (eV/Ang):
     1    0.000094    0.000030   -0.000058
     2   -0.000171    0.000036   -0.000030
     3   -0.096414    0.086283    0.198354
     4    0.096763   -0.085806   -0.198874
     5    3.332708   -7.231119    0.273476
     6   -0.253298    4.475773   -6.586521
     7   -2.954750    2.643864    6.056762
     8   -3.332910    7.231072   -0.273366
     9    0.253374   -4.476393    6.586640
    10    2.954603   -2.643739   -6.056386
----------------------------------------
   Tot   -0.000002    0.000001   -0.000004
----------------------------------------
   Max    7.231119
   Res    3.458436    sqrt( Sum f_i^2 / 3N )
----------------------------------------
   Max    7.231119    constrained

Stress-tensor-Voigt (kbar):       93.76     -233.82     -267.25      193.91       72.62       99.74
(Free)E + p*V (eV/cell)    -2949.2035
Target enthalpy (eV/cell)    -2957.0984

siesta: Stress tensor (static) (eV/Ang**3):
         0.058522    0.121027    0.062253
         0.121026   -0.145939    0.045321
         0.062255    0.045323   -0.166804

siesta: Pressure (static):        135.77008966  kBar

siesta: Stress tensor (total) (eV/Ang**3):
         0.058522    0.121027    0.062253
         0.121026   -0.145939    0.045321
         0.062255    0.045323   -0.166804

siesta: Pressure (total):        135.77008966  kBar

siesta: Temp_ion =      94.647 K
siesta: PDOS info: 
siesta: e1, e2, sigma, nhist:   -30.00 eV   15.00 eV    0.20 eV    500

siesta: Program's energy decomposition (eV):
siesta: Ebs     =      -615.668706
siesta: Eions   =      5228.674091
siesta: Ena     =      1092.574503
siesta: Ekin    =      2288.042433
siesta: Enl     =      -366.978611
siesta: Eso     =         0.000000
siesta: Eldau   =         0.000000
siesta: DEna    =       -44.615766
siesta: DUscf   =         7.482526
siesta: DUext   =         0.000000
siesta: Enegf   =         0.000000
siesta: Exc     =      -704.929412
siesta: eta*DQ  =         0.000000
siesta: Emadel  =         0.000000
siesta: Emeta   =         0.000000
siesta: Emolmec =         0.000000
siesta: Ekinion =         0.110102
siesta: Eharris =     -2956.988315
siesta: Etot    =     -2956.988315
siesta: FreeEng =     -2956.988315

siesta: Final energy (eV):
siesta:  Band Struct. =    -615.668706
siesta:       Kinetic =    2288.042433
siesta:       Hartree =    1031.943113
siesta:       Eldau   =       0.000000
siesta:       Eso     =       0.000000
siesta:    Ext. field =       0.000000
siesta:       Enegf   =       0.000000
siesta:   Exch.-corr. =    -704.929412
siesta:  Ion-electron =   -4043.809565
siesta:       Ion-ion =   -1528.344987
siesta:       Ekinion =       0.110102
siesta:         Total =   -2956.988315
siesta:         Fermi =      -2.789542

siesta: Atomic forces (eV/Ang):
siesta:      1    0.000094    0.000030   -0.000058
siesta:      2   -0.000171    0.000036   -0.000030
siesta:      3   -0.096414    0.086283    0.198354
siesta:      4    0.096763   -0.085806   -0.198874
siesta:      5    3.332708   -7.231119    0.273476
siesta:      6   -0.253298    4.475773   -6.586521
siesta:      7   -2.954750    2.643864    6.056762
siesta:      8   -3.332910    7.231072   -0.273366
siesta:      9    0.253374   -4.476393    6.586640
siesta:     10    2.954603   -2.643739   -6.056386
siesta: ----------------------------------------
siesta:    Tot   -0.000002    0.000001   -0.000004

siesta: Stress tensor (static) (eV/Ang**3):
siesta:     0.058522    0.121027    0.062253
siesta:     0.121026   -0.145939    0.045321
siesta:     0.062255    0.045323   -0.166804

siesta: Cell volume =         93.166340 Ang**3

siesta: Pressure (static):
siesta:                Solid            Molecule  Units
siesta:           0.00092293         -0.00140232  Ry/Bohr**3
siesta:           0.08474011         -0.12875593  eV/Ang**3
siesta:         135.77008966       -206.29197118  kBar
(Free)E+ p_basis*V_orbitals  =       -2955.904121
(Free)Eharris+ p_basis*V_orbitals  =       -2955.904121
>> End of run:   5-NOV-2018  10:55:05
Job completed
