Siesta Version  : siesta-4.0--578
Architecture    : x86_64-linux-n-62-25-35
Compiler version: GNU Fortran (GCC) 7.3.0
Compiler flags  : mpif90 -m64 -fPIC -O3 -march=native -ftree-vectorize -fexpensive-optimizationns -funroll-loops -fprefetch-loop-arrays -fno-second-underscore
PP flags        : -I/zdata/groups/common/nicpa/2018-feb/generic/build-tools/1.0/include -I/zdatta/groups/common/nicpa/2018-feb/generic/gcc/7.3.0/include -I/zdata/groups/common/nicpa/2018-feb/generic/gcc/7.3.0/include -I/zdata/groups/common/nicpa/2018-feb/XeonE5-2660v3/zlib/1.2.11/gnu-7.3.0/include -I/zdata/groups/common/nicpa/2018-feb/generic/numactl/2.0.11/include -I/zdata/groups/common/nicpa/2018-feb/XeonE5-2660v3/libxml2/2.9.7/gnu-7.3.0/include -I/zdata/groups/common/nicpa/2018-feb/XeonE5-2660v3/hwloc/1.11.9/gnu-7.3.0/include -I/zdata/groups/common/nicpa/2018-feb/XeonE5-2660v3/openmpi/3.0.0/gnu-7.3.0/include -I/zdata/groups/common/nicpa/2018-feb/XeonE5-2660v3/szip/2.1.1/gnu-7.3.0/include -I/zdata/groups/common/nicpa/2018-feb/XeonE5-2660v3/hdf5-serial/1.8.18/gnu-7.3.0/include -I/zdata/groups/common/nicpa/2018-feb/XeonE5-2660v3/netcdf-serial/4.6.0/gnu-7.3.0/include -I/zdata/groups/common/nicpa/2018-feb/XeonE5-2660v3/scalapack/204/gnu-7.3.0/include -I/zdata/groups/common/nicpa/2018-feb/XeonE5-2660v3/openblas/0.2.20/gnu-7.3.0/include -I/zdata/groups/common/nicpa/2018-feb/XeonE5-2660v3/elpa/2017.05.003/gnu-7.3.0/include -DSIESTA__ELPA -DMPI -D1 -DFC_HAVE_ABORT -DCDF -DSIESTA__MRRR 
PARALLEL version
NetCDF support

* Running on    8 nodes in parallel
>> Start of run:  10-JUN-2018  21:50:37

                           ***********************       
                           *  WELCOME TO SIESTA  *       
                           ***********************       

reinit: Reading from standard input
************************** Dump of input data file ****************************
#
# MgCO3 in primitive cell. SZ. A couple of MD steps
#
SystemName	MgCo3 R-3c test -- SZ, 100 Ry
SystemLabel	mgco3
NumberOfSpecies		3
NumberOfAtoms	       10
%block ChemicalSpeciesLabel
      1      12     Mg
      2       6     C
      3       8     O
%endblock ChemicalSpeciesLabel
##%block PS.Lmax            # Block to be used for DZP calculations
##    Mg    3
##     C    2
##     O    3
##%endblock PS.Lmax
PAO.BasisSize  SZ
# Rhombohedral primitive cell
# (HEX 3-fold cell had A=4.635 and C=15.023, so alpha=48.179 degrees
#  and a=5.67783 Ang)
LatticeConstant     5.67783 Ang
%block LatticeParameters
1.0 1.0 1.0 48.179 48.179 48.179
%endblock LatticeParameters
AtomicCoordinatesFormat    Fractional
%block AtomicCoordinatesAndAtomicSpecies
  0.0         0.0         0.0      1
  0.5         0.5         0.5      1
  0.25        0.25        0.25     2
 -0.25       -0.25       -0.25     2
  0.5274     -0.0274      0.25     3
  0.25        0.5274     -0.0274   3
 -0.0274      0.25        0.5274   3
 -0.5274      0.0274     -0.25     3
 -0.25       -0.5274      0.0274   3
  0.0274     -0.25       -0.5274   3
%endblock AtomicCoordinatesAndAtomicSpecies
kgrid_cutoff 15.0 Ang
Solution.Method       diagon
MeshCutoff             100 Ry
DM.NumberBroyden       4
DM.UseSaveDM           T
DM.MixingWeight        0.1         # New DM amount for next SCF cycle
DM.Tolerance           1.d-4       # Tolerance in maximum difference
                                   # between input and output DM
MaxSCFIterations       20
WriteCoorStep      .true.
WriteForces        .true.
MD.TypeOfRun         Verlet
MD.Initial.Time.Step      1
MD.Final.Time.Step        2
MD.Length.Time.Step       1.0 fs
%block Projected-density-of-states
-30.00 15.00 0.200 500 eV
%endblock Projected-density-of-states
************************** End of input data file *****************************

reinit: -----------------------------------------------------------------------
reinit: System Name: MgCo3 R-3c test -- SZ, 100 Ry
reinit: -----------------------------------------------------------------------
reinit: System Label: mgco3                                                       
reinit: -----------------------------------------------------------------------

initatom: Reading input for the pseudopotentials and atomic orbitals ----------
 Species number:            1  Label: Mg Atomic number:          12
 Species number:            2  Label: C Atomic number:           6
 Species number:            3  Label: O Atomic number:           8
Ground state valence configuration:   3s02
Reading pseudopotential information in formatted form from Mg.psf

Valence configuration for pseudopotential generation:
3s( 2.00) rc: 2.59
3p( 0.00) rc: 2.59
3d( 0.00) rc: 2.59
4f( 0.00) rc: 2.59
Ground state valence configuration:   2s02  2p02
Reading pseudopotential information in formatted form from C.psf

Valence configuration for pseudopotential generation:
2s( 2.00) rc: 1.49
2p( 2.00) rc: 1.52
3d( 0.00) rc: 1.58
Ground state valence configuration:   2s02  2p04
Reading pseudopotential information in formatted form from O.psf

Valence configuration for pseudopotential generation:
2s( 2.00) rc: 1.14
2p( 4.00) rc: 1.14
3d( 0.00) rc: 1.14
4f( 0.00) rc: 1.14
For Mg, standard SIESTA heuristics set lmxkb to 1
 (one more than the basis l, including polarization orbitals).
Use PS.lmax or PS.KBprojectors blocks to override.
For C, standard SIESTA heuristics set lmxkb to 2
 (one more than the basis l, including polarization orbitals).
Use PS.lmax or PS.KBprojectors blocks to override.
For O, standard SIESTA heuristics set lmxkb to 2
 (one more than the basis l, including polarization orbitals).
Use PS.lmax or PS.KBprojectors blocks to override.

<basis_specs>
===============================================================================
Mg                   Z=  12    Mass=  24.310        Charge= 0.17977+309
Lmxo=0 Lmxkb= 1    BasisType=split      Semic=F
L=0  Nsemic=0  Cnfigmx=3
          n=1  nzeta=1  polorb=0
            splnorm:   0.15000    
               vcte:    0.0000    
               rinn:    0.0000    
               qcoe:    0.0000    
               qyuk:    0.0000    
               qwid:   0.10000E-01
                rcs:    0.0000    
            lambdas:    1.0000    
-------------------------------------------------------------------------------
L=0  Nkbl=1  erefs: 0.17977+309
L=1  Nkbl=1  erefs: 0.17977+309
===============================================================================
</basis_specs>

atom: Called for Mg                    (Z =  12)

read_vps: Pseudopotential generation method:
read_vps: ATM3      Troullier-Martins                       
Total valence charge:    2.00000

xc_check: Exchange-correlation functional:
xc_check: Ceperley-Alder
V l=0 = -2*Zval/r beyond r=  3.5878
V l=1 = -2*Zval/r beyond r=  3.5878
All V_l potentials equal beyond r=  2.5600
This should be close to max(r_c) in ps generation
All pots = -2*Zval/r beyond r=  3.5878
Using large-core scheme for Vlocal

atom: Estimated core radius    3.58779

atom: Including non-local core corrections could be a good idea
atom: Maximum radius for 4*pi*r*r*local-pseudopot. charge    3.91588
atom: Maximum radius for r*vlocal+2*Zval:    3.63292
GHOST: No ghost state for L =  0
GHOST: No ghost state for L =  1

KBgen: Kleinman-Bylander projectors: 
   l= 0   rc=  2.657845   el= -0.351328   Ekb=  2.184400   kbcos=  0.257081
   l= 1   rc=  2.657845   el= -0.101748   Ekb=  0.525536   kbcos=  0.270508

KBgen: Total number of  Kleinman-Bylander projectors:    4
atom: -------------------------------------------------------------------------

atom: SANKEY-TYPE ORBITALS:

SPLIT: Orbitals with angular momentum L= 0

SPLIT: Basis orbitals for state 3s

SPLIT: PAO cut-off radius determined from an
SPLIT: energy shift=  0.020000 Ry

   izeta = 1
                 lambda =    1.000000
                     rc =    6.619780
                 energy =   -0.332103
                kinetic =    0.289627
    potential(screened) =   -0.621729
       potential(ionic) =   -1.387191
atom: Total number of Sankey-type orbitals:  1

atm_pop: Valence configuration (for local Pseudopot. screening):
 3s( 2.00)                                                            
Vna: chval, zval:    2.00000   2.00000

Vna:  Cut-off radius for the neutral-atom potential:   6.619780

atom: _________________________________________________________________________

<basis_specs>
===============================================================================
C                    Z=   6    Mass=  12.010        Charge= 0.17977+309
Lmxo=1 Lmxkb= 2    BasisType=split      Semic=F
L=0  Nsemic=0  Cnfigmx=2
          n=1  nzeta=1  polorb=0
            splnorm:   0.15000    
               vcte:    0.0000    
               rinn:    0.0000    
               qcoe:    0.0000    
               qyuk:    0.0000    
               qwid:   0.10000E-01
                rcs:    0.0000    
            lambdas:    1.0000    
L=1  Nsemic=0  Cnfigmx=2
          n=1  nzeta=1  polorb=0
            splnorm:   0.15000    
               vcte:    0.0000    
               rinn:    0.0000    
               qcoe:    0.0000    
               qyuk:    0.0000    
               qwid:   0.10000E-01
                rcs:    0.0000    
            lambdas:    1.0000    
-------------------------------------------------------------------------------
L=0  Nkbl=1  erefs: 0.17977+309
L=1  Nkbl=1  erefs: 0.17977+309
L=2  Nkbl=1  erefs: 0.17977+309
===============================================================================
</basis_specs>

atom: Called for C                     (Z =   6)

read_vps: Pseudopotential generation method:
read_vps: ATM3      Troullier-Martins                       
Total valence charge:    4.00000

xc_check: Exchange-correlation functional:
xc_check: Ceperley-Alder
V l=0 = -2*Zval/r beyond r=  1.4666
V l=1 = -2*Zval/r beyond r=  1.5038
V l=2 = -2*Zval/r beyond r=  1.5612
All V_l potentials equal beyond r=  1.5612
This should be close to max(r_c) in ps generation
All pots = -2*Zval/r beyond r=  1.5612

VLOCAL1: 99.0% of the norm of Vloc inside     17.809 Ry
VLOCAL1: 99.9% of the norm of Vloc inside     40.586 Ry
atom: Maximum radius for 4*pi*r*r*local-pseudopot. charge    1.88329
atom: Maximum radius for r*vlocal+2*Zval:    1.62091
GHOST: No ghost state for L =  0
GHOST: No ghost state for L =  1
GHOST: No ghost state for L =  2

KBgen: Kleinman-Bylander projectors: 
   l= 0   rc=  1.747182   el= -1.001947   Ekb=  5.181700   kbcos=  0.300603
   l= 1   rc=  1.747182   el= -0.398598   Ekb= -4.328763   kbcos= -0.367074
   l= 2   rc=  1.955272   el=  0.002326   Ekb= -1.016175   kbcos= -0.009979

KBgen: Total number of  Kleinman-Bylander projectors:    9
atom: -------------------------------------------------------------------------

atom: SANKEY-TYPE ORBITALS:

SPLIT: Orbitals with angular momentum L= 0

SPLIT: Basis orbitals for state 2s

SPLIT: PAO cut-off radius determined from an
SPLIT: energy shift=  0.020000 Ry

   izeta = 1
                 lambda =    1.000000
                     rc =    4.191849
                 energy =   -0.983897
                kinetic =    0.886956
    potential(screened) =   -1.870853
       potential(ionic) =   -5.479661

SPLIT: Orbitals with angular momentum L= 1

SPLIT: Basis orbitals for state 2p

SPLIT: PAO cut-off radius determined from an
SPLIT: energy shift=  0.020000 Ry

   izeta = 1
                 lambda =    1.000000
                     rc =    4.870301
                 energy =   -0.379093
                kinetic =    2.545357
    potential(screened) =   -2.924450
       potential(ionic) =   -6.433151
atom: Total number of Sankey-type orbitals:  4

atm_pop: Valence configuration (for local Pseudopot. screening):
 2s( 2.00)                                                            
 2p( 2.00)                                                            
Vna: chval, zval:    4.00000   4.00000

Vna:  Cut-off radius for the neutral-atom potential:   4.870301

atom: _________________________________________________________________________

<basis_specs>
===============================================================================
O                    Z=   8    Mass=  16.000        Charge= 0.17977+309
Lmxo=1 Lmxkb= 2    BasisType=split      Semic=F
L=0  Nsemic=0  Cnfigmx=2
          n=1  nzeta=1  polorb=0
            splnorm:   0.15000    
               vcte:    0.0000    
               rinn:    0.0000    
               qcoe:    0.0000    
               qyuk:    0.0000    
               qwid:   0.10000E-01
                rcs:    0.0000    
            lambdas:    1.0000    
L=1  Nsemic=0  Cnfigmx=2
          n=1  nzeta=1  polorb=0
            splnorm:   0.15000    
               vcte:    0.0000    
               rinn:    0.0000    
               qcoe:    0.0000    
               qyuk:    0.0000    
               qwid:   0.10000E-01
                rcs:    0.0000    
            lambdas:    1.0000    
-------------------------------------------------------------------------------
L=0  Nkbl=1  erefs: 0.17977+309
L=1  Nkbl=1  erefs: 0.17977+309
L=2  Nkbl=1  erefs: 0.17977+309
===============================================================================
</basis_specs>

atom: Called for O                     (Z =   8)

read_vps: Pseudopotential generation method:
read_vps: ATM3      Troullier-Martins                       
Total valence charge:    6.00000

xc_check: Exchange-correlation functional:
xc_check: Ceperley-Alder
V l=0 = -2*Zval/r beyond r=  1.1278
V l=1 = -2*Zval/r beyond r=  1.1278
V l=2 = -2*Zval/r beyond r=  1.1278
All V_l potentials equal beyond r=  1.1278
This should be close to max(r_c) in ps generation
All pots = -2*Zval/r beyond r=  1.1278

VLOCAL1: 99.0% of the norm of Vloc inside     34.126 Ry
VLOCAL1: 99.9% of the norm of Vloc inside     77.774 Ry
atom: Maximum radius for 4*pi*r*r*local-pseudopot. charge    1.37759
atom: Maximum radius for r*vlocal+2*Zval:    1.18566
GHOST: No ghost state for L =  0
GHOST: No ghost state for L =  1
GHOST: No ghost state for L =  2

KBgen: Kleinman-Bylander projectors: 
   l= 0   rc=  1.294105   el= -1.742414   Ekb=  9.135903   kbcos=  0.326910
   l= 1   rc=  1.294105   el= -0.676589   Ekb= -8.124878   kbcos= -0.395047
   l= 2   rc=  1.448233   el=  0.002386   Ekb= -2.039267   kbcos= -0.003484

KBgen: Total number of  Kleinman-Bylander projectors:    9
atom: -------------------------------------------------------------------------

atom: SANKEY-TYPE ORBITALS:

SPLIT: Orbitals with angular momentum L= 0

SPLIT: Basis orbitals for state 2s

SPLIT: PAO cut-off radius determined from an
SPLIT: energy shift=  0.020000 Ry

   izeta = 1
                 lambda =    1.000000
                     rc =    3.305093
                 energy =   -1.723766
                kinetic =    1.614911
    potential(screened) =   -3.338677
       potential(ionic) =  -11.304675

SPLIT: Orbitals with angular momentum L= 1

SPLIT: Basis orbitals for state 2p

SPLIT: PAO cut-off radius determined from an
SPLIT: energy shift=  0.020000 Ry

   izeta = 1
                 lambda =    1.000000
                     rc =    3.937239
                 energy =   -0.658841
                kinetic =    5.005986
    potential(screened) =   -5.664827
       potential(ionic) =  -13.452360
atom: Total number of Sankey-type orbitals:  4

atm_pop: Valence configuration (for local Pseudopot. screening):
 2s( 2.00)                                                            
 2p( 4.00)                                                            
Vna: chval, zval:    6.00000   6.00000

Vna:  Cut-off radius for the neutral-atom potential:   3.937239

atom: _________________________________________________________________________

prinput: Basis input ----------------------------------------------------------

PAO.BasisType split     

%block ChemicalSpeciesLabel
    1   12 Mg                      # Species index, atomic number, species label
    2    6 C                       # Species index, atomic number, species label
    3    8 O                       # Species index, atomic number, species label
%endblock ChemicalSpeciesLabel

%block PAO.Basis                 # Define Basis set
Mg                    1                    # Species label, number of l-shells
 n=3   0   1                         # n, l, Nzeta 
   6.620   
   1.000   
C                     2                    # Species label, number of l-shells
 n=2   0   1                         # n, l, Nzeta 
   4.192   
   1.000   
 n=2   1   1                         # n, l, Nzeta 
   4.870   
   1.000   
O                     2                    # Species label, number of l-shells
 n=2   0   1                         # n, l, Nzeta 
   3.305   
   1.000   
 n=2   1   1                         # n, l, Nzeta 
   3.937   
   1.000   
%endblock PAO.Basis

prinput: ----------------------------------------------------------------------

Dumping basis to NetCDF file Mg.ion.nc
Dumping basis to NetCDF file C.ion.nc
Dumping basis to NetCDF file O.ion.nc
coor:   Atomic-coordinates input format  =     Fractional

siesta: Atomic coordinates (Bohr) and species
siesta:      0.00000   0.00000   0.00000  1        1
siesta:     12.51930   5.59740   3.66414  1        2
siesta:      6.25965   2.79870   1.83207  2        3
siesta:     -6.25965  -2.79870  -1.83207  2        4
siesta:      7.25136   0.58061   1.83207  3        5
siesta:      6.25965   4.12944  -0.20079  3        6
siesta:      5.26794   3.68605   3.86493  3        7
siesta:     -7.25136  -0.58061  -1.83207  3        8
siesta:     -6.25965  -4.12944   0.20079  3        9
siesta:     -5.26794  -3.68605  -3.86493  3       10

siesta: System type = bulk      

initatomlists: Number of atoms, orbitals, and projectors:     10    34    80

siesta: ******************** Simulation parameters ****************************
siesta:
siesta: The following are some of the parameters of the simulation.
siesta: A complete list of the parameters used, including default values,
siesta: can be found in file out.fdf
siesta:
redata: Non-Collinear-spin run           =     F
redata: SpinPolarized (Up/Down) run      =     F
redata: Number of spin components        =     1
redata: Long output                      =     F
redata: Number of Atomic Species         =        3
redata: Charge density info will appear in .RHO file
redata: Write Mulliken Pop.              =     NO
redata: Matel table size (NRTAB)         =     1024
redata: Mesh Cutoff                      =   100.0000 Ry
redata: Net charge of the system         =     0.0000 |e|
redata: Min. number of SCF Iter          =        0
redata: Max. number of SCF Iter          =       20
redata: Mix DM or H after convergence    =     F
redata: Recompute H after scf cycle      =     F
redata: Broyden mixing with     4 saved histories.
redata: Mix DM in first SCF step ?       =     F
redata: Write Pulay info on disk?        =     F
redata: Discard 1st Pulay DM after  kick =     F
redata: New DM Mixing Weight             =     0.1000
redata: New DM Occupancy tolerance       = 0.000000000001
redata: No kicks to SCF
redata: DM Mixing Weight for Kicks       =     0.5000
redata: DM Tolerance for SCF             =     0.000100
redata: Require (free) Energy convergence in SCF =     F
redata: DM (free)Energy tolerance for SCF =     0.000010 eV
redata: Require Harris convergence for SCF =     F
redata: DM Harris energy tolerance for SCF =     0.000010 eV
redata: Using Saved Data (generic)   =     F
redata: Use continuation files for DM    =     T
redata: Neglect nonoverlap interactions  =     F
redata: Method of Calculation            =     Diagonalization
redata: Divide and Conquer               =     T
redata: Electronic Temperature           =     0.0019  Ry
redata: Fix the spin of the system       =     F
redata: Dynamics option                  =     Verlet MD run
redata: Initial MD time step             =        1
redata:   Final MD time step             =        2
redata: Length of MD time step           =     1.0000  fs
redata: Initial Temperature of MD run    =     0.0000  K
redata: Perform a MD quench              =     F
redata: ***********************************************************************
Total number of electrons:    48.000000
Total ionic charge:    48.000000

* ProcessorY, Blocksize:    2   4


* Orbital distribution balance (max,min):     6     4

 Kpoints in:          154 . Kpoints trimmed:          154

siesta: k-grid: Number of k-points =   154
siesta: k-grid: Cutoff (effective) =    16.222 Ang
siesta: k-grid: Supercell and displacements
siesta: k-grid:   -7   0   7      0.500
siesta: k-grid:    0  -7   7      0.000
siesta: k-grid:    0   0   6      0.000
Naive supercell factors:     4    4    4
Auxiliary supercell needs to be larger than naive one...

superc: Internal auxiliary supercell:     5 x     5 x     4  =     100
superc: Number of atoms, orbitals, and projectors:   1000   3400   8000

                     ====================================
                        Begin MD step =      1
                     ====================================

outcoor: Atomic coordinates (fractional):                   
    0.00000000    0.00000000    0.00000000   1       1  Mg
    0.50000000    0.50000000    0.50000000   1       2  Mg
    0.25000000    0.25000000    0.25000000   2       3  C
   -0.25000000   -0.25000000   -0.25000000   2       4  C
    0.52740000   -0.02740000    0.25000000   3       5  O
    0.25000000    0.52740000   -0.02740000   3       6  O
   -0.02740000    0.25000000    0.52740000   3       7  O
   -0.52740000    0.02740000   -0.25000000   3       8  O
   -0.25000000   -0.52740000    0.02740000   3       9  O
    0.02740000   -0.25000000   -0.52740000   3      10  O

superc: Internal auxiliary supercell:     5 x     5 x     4  =     100
superc: Number of atoms, orbitals, and projectors:   1000   3400   8000

outcell: Unit cell vectors (Ang):
        5.677830    0.000000    0.000000
        3.786009    4.231299    0.000000
        3.786009    1.692731    3.877957

outcell: Cell vector modules (Ang)   :    5.677830    5.677830    5.677830
outcell: Cell angles (23,13,12) (deg):     48.1790     48.1790     48.1790
outcell: Cell volume (Ang**3)        :     93.1663
New_DM. Step:     1
Initializing Density Matrix...
New grid distribution:   1
           1       1:   16    1:    8    1:    4
           2       1:   16    1:    8    5:    8
           3       1:   16    1:    8    9:   12
           4       1:   16    1:    8   13:   16
           5       1:   16    9:   16    1:    4
           6       1:   16    9:   16    5:    8
           7       1:   16    9:   16    9:   12
           8       1:   16    9:   16   13:   16

InitMesh: MESH =    32 x    32 x    32 =       32768
InitMesh: (bp) =    16 x    16 x    16 =        4096
InitMesh: Mesh cutoff (required, used) =   100.000   112.857 Ry
ExtMesh (bp) on 0 =    76 x    68 x    64 =      330752
New grid distribution:   2
           1       8:   16    1:    8    1:    8
           2       9:   16    9:   16    1:    8
           3       1:    8    1:    8    9:   16
           4       1:    7    1:    8    1:    8
           5       9:   16    1:    8    9:   16
           6       1:    8    9:   16    1:    8
           7       1:    9    9:   16    9:   16
           8      10:   16    9:   16    9:   16
New grid distribution:   3
           1       1:    8    9:   16    9:   16
           2       9:   16    1:    8    1:    8
           3       9:   16    1:    8    9:   16
           4       9:   16    9:   16    1:    8
           5       1:    8    1:    8    9:   16
           6       1:    8    1:    8    1:    8
           7       9:   16    9:   16    9:   16
           8       1:    8    9:   16    1:    8
Setting up quadratic distribution...
ExtMesh (bp) on 0 =    69 x    68 x    68 =      319056
PhiOnMesh: Number of (b)points on node 0 =                  576
PhiOnMesh: nlist on node 0 =                12062

stepf: Fermi-Dirac step function

siesta: Program's energy decomposition (eV):
siesta: Ebs     =      -700.295464
siesta: Eions   =      5228.674091
siesta: Ena     =      1092.439512
siesta: Ekin    =      2100.835150
siesta: Enl     =      -258.044044
siesta: DEna    =        -0.000021
siesta: DUscf   =         0.000000
siesta: DUext   =         0.000000
siesta: Exc     =      -683.847187
siesta: eta*DQ  =         0.000000
siesta: Emadel  =         0.000000
siesta: Emeta   =         0.000000
siesta: Emolmec =         0.000000
siesta: Ekinion =         0.000000
siesta: Eharris =     -2966.310106
siesta: Etot    =     -2977.290682
siesta: FreeEng =     -2977.290682

   scf: iscf   Eharris(eV)      E_KS(eV)   FreeEng(eV)    dDmax  Ef(eV)
   scf:    1    -2966.3101    -2977.2907    -2977.2907  1.75258 -2.7507
 Broyden: No of relevant DM elements:         9610
 maxit for broyden:            4
 cycle on maxit:  T
 variable weight:  T
 initial alpha:   0.10000000000000001     
timer: Routine,Calls,Time,% =    IterSCF     1       0.882  56.76
   scf:    2    -2967.0271    -2949.8103    -2949.8103  0.80245 -1.9577
   scf:    3    -2963.3426    -2951.3259    -2951.3259  0.62494 -1.8526
   scf:    4    -2957.5827    -2954.1163    -2954.1163  0.04115 -2.6436
   scf:    5    -2980.2909    -2920.2829    -2920.2832  1.49183  3.3615
   scf:    6    -2957.5771    -2954.6635    -2954.6635  0.03269 -2.6679
   scf:    7    -2960.4103    -2948.3832    -2948.3832  0.33542 -2.3009
   scf:    8    -2958.7503    -2951.8207    -2951.8207  0.22144 -2.5216
   scf:    9    -2958.0451    -2954.7838    -2954.7838  0.14365 -2.6834
   scf:   10    -2957.5793    -2957.5298    -2957.5298  0.02733 -2.7843
   scf:   11    -2957.5713    -2958.0365    -2958.0365  0.01263 -2.7871
   scf:   12    -2957.5679    -2957.5845    -2957.5845  0.00308 -2.7748
   scf:   13    -2957.5679    -2957.5637    -2957.5637  0.00222 -2.7784
   scf:   14    -2957.5679    -2957.5479    -2957.5479  0.00179 -2.7789
   scf:   15    -2957.5678    -2957.5817    -2957.5817  0.00084 -2.7772
   scf:   16    -2957.5678    -2957.5631    -2957.5631  0.00014 -2.7752
   scf:   17    -2957.5678    -2957.5624    -2957.5624  0.00012 -2.7752
   scf:   18    -2957.5678    -2957.5646    -2957.5646  0.00007 -2.7751

SCF Convergence by dMax criterion
max |DM_out - DM_in|:     0.00007278
SCF cycle converged after   18 iterations

Using DM_out to compute the final energy and forces

siesta: E_KS(eV) =            -2957.5678

siesta: E_KS - E_eggbox =     -2957.5678

siesta: Atomic forces (eV/Ang):
     1    0.000051    0.000055   -0.000122
     2    0.000023   -0.000142    0.000004
     3    0.000275   -0.000232   -0.000582
     4    0.000078   -0.000187    0.000003
     5    3.222065   -7.206703    0.000126
     6   -0.000046    4.323741   -6.604772
     7   -3.222353    2.883243    6.605349
     8   -3.222105    7.206633    0.000011
     9   -0.000012   -4.323476    6.604705
    10    3.222024   -2.882931   -6.604720
----------------------------------------
   Tot   -0.000002    0.000002    0.000003
----------------------------------------
   Max    7.206703
   Res    3.530394    sqrt( Sum f_i^2 / 3N )
----------------------------------------
   Max    7.206703    constrained

Stress-tensor-Voigt (kbar):       88.79     -228.51     -273.81      177.31       51.89      116.07
(Free)E + p*V (eV/cell)    -2949.5523
Target enthalpy (eV/cell)    -2957.5678

siesta: Stress tensor (static) (eV/Ang**3):
         0.055417    0.110665    0.072445
         0.110665   -0.142623    0.032387
         0.072445    0.032387   -0.170899

siesta: Pressure (static):        137.84444964  kBar

siesta: Stress tensor (total) (eV/Ang**3):
         0.055417    0.110665    0.072445
         0.110665   -0.142623    0.032387
         0.072445    0.032387   -0.170899

siesta: Pressure (total):        137.84444964  kBar

siesta: Temp_ion =       0.000 K

                     ====================================
                        Begin MD step =      2
                     ====================================

outcoor: Atomic coordinates (fractional):                   
    0.00000000    0.00000001   -0.00000001   1       1  Mg
    0.50000001    0.49999999    0.50000000   1       2  Mg
    0.25000006    0.25000000    0.24999994   2       3  C
   -0.24999998   -0.25000002   -0.25000000   2       4  C
    0.52790983   -0.02790985    0.25000001   3       5  O
    0.24999999    0.52790984   -0.02790983   3       6  O
   -0.02790988    0.25000000    0.52790988   3       7  O
   -0.52790984    0.02790984   -0.25000000   3       8  O
   -0.25000000   -0.52790982    0.02790983   3       9  O
    0.02790982   -0.25000000   -0.52790983   3      10  O

superc: Internal auxiliary supercell:     5 x     5 x     4  =     100
superc: Number of atoms, orbitals, and projectors:   1000   3400   8000

outcell: Unit cell vectors (Ang):
        5.677830    0.000000    0.000000
        3.786009    4.231299    0.000000
        3.786009    1.692731    3.877957

outcell: Cell vector modules (Ang)   :    5.677830    5.677830    5.677830
outcell: Cell angles (23,13,12) (deg):     48.1790     48.1790     48.1790
outcell: Cell volume (Ang**3)        :     93.1663
New_DM. Step:     2
Re-using DM from previous geometry...
Re-using DM without extrapolation for lack of history
Density Matrix sparsity pattern changed.
New grid distribution:   1
           1       1:   16    1:    8    1:    4
           2       1:   16    1:    8    5:    8
           3       1:   16    1:    8    9:   12
           4       1:   16    1:    8   13:   16
           5       1:   16    9:   16    1:    4
           6       1:   16    9:   16    5:    8
           7       1:   16    9:   16    9:   12
           8       1:   16    9:   16   13:   16

InitMesh: MESH =    32 x    32 x    32 =       32768
InitMesh: (bp) =    16 x    16 x    16 =        4096
InitMesh: Mesh cutoff (required, used) =   100.000   112.857 Ry
ExtMesh (bp) on 0 =    76 x    68 x    64 =      330752
New grid distribution:   2
           1       8:   16    1:    8    1:    8
           2       9:   16    9:   16    1:    8
           3       1:    8    1:    8    9:   16
           4       1:    7    1:    8    1:    8
           5       9:   16    1:    8    9:   16
           6       1:    8    9:   16    1:    8
           7       1:    9    9:   16    9:   16
           8      10:   16    9:   16    9:   16
New grid distribution:   3
           1       1:    8    9:   16    9:   16
           2       9:   16    1:    8    1:    8
           3       9:   16    1:    8    9:   16
           4       9:   16    9:   16    1:    8
           5       1:    8    1:    8    9:   16
           6       1:    8    1:    8    1:    8
           7       9:   16    9:   16    9:   16
           8       1:    8    9:   16    1:    8
Setting up quadratic distribution...
ExtMesh (bp) on 0 =    69 x    68 x    68 =      319056
PhiOnMesh: Number of (b)points on node 0 =                  576
PhiOnMesh: nlist on node 0 =                12060

   scf: iscf   Eharris(eV)      E_KS(eV)   FreeEng(eV)    dDmax  Ef(eV)
   scf:    1    -2957.6786    -2957.4939    -2957.4939  0.00575 -2.8272
   scf:    2    -2957.6787    -2957.6780    -2957.6780  0.00524 -2.8090
   scf:    3    -2957.6785    -2957.6781    -2957.6781  0.00402 -2.8105
   scf:    4    -2957.6784    -2957.6782    -2957.6782  0.00021 -2.8160
   scf:    5    -2957.6784    -2957.6783    -2957.6783  0.00007 -2.8163

SCF Convergence by dMax criterion
max |DM_out - DM_in|:     0.00007422
SCF cycle converged after    5 iterations

Using DM_out to compute the final energy and forces

siesta: E_KS(eV) =            -2957.6784

siesta: Atomic forces (eV/Ang):
     1    0.000042    0.000086   -0.000270
     2    0.000108   -0.000264    0.000027
     3    0.000561   -0.000487   -0.001173
     4    0.000176   -0.000384   -0.000015
     5    3.143197   -7.030452    0.000266
     6   -0.000093    4.218102   -6.443136
     7   -3.143783    2.812939    6.444292
     8   -3.143566    7.030945    0.000022
     9   -0.000031   -4.217933    6.443583
    10    3.143385   -2.812547   -6.443590
----------------------------------------
   Tot   -0.000004    0.000004    0.000006
----------------------------------------
   Max    7.030945
   Res    3.444204    sqrt( Sum f_i^2 / 3N )
----------------------------------------
   Max    7.030945    constrained

Stress-tensor-Voigt (kbar):       89.95     -221.17     -265.60      173.85       50.88      113.81
(Free)E + p*V (eV/cell)    -2949.9868
Target enthalpy (eV/cell)    -2957.6784

siesta: Stress tensor (static) (eV/Ang**3):
         0.056143    0.108510    0.071037
         0.108510   -0.138044    0.031754
         0.071037    0.031755   -0.165770

siesta: Pressure (static):        132.27231119  kBar

siesta: Stress tensor (total) (eV/Ang**3):
         0.056143    0.108510    0.071037
         0.108510   -0.138044    0.031754
         0.071037    0.031755   -0.165770

siesta: Pressure (total):        132.27231119  kBar

siesta: Temp_ion =      93.882 K
siesta: PDOS info: 
siesta: e1, e2, sigma, nhist:   -30.00 eV   15.00 eV    0.20 eV    500

siesta: Program's energy decomposition (eV):
siesta: Ebs     =      -618.669114
siesta: Eions   =      5228.674091
siesta: Ena     =      1092.574199
siesta: Ekin    =      2282.007481
siesta: Enl     =      -363.881938
siesta: DEna    =       -42.638009
siesta: DUscf   =         7.265826
siesta: DUext   =         0.000000
siesta: Exc     =      -704.331831
siesta: eta*DQ  =         0.000000
siesta: Emadel  =         0.000000
siesta: Emeta   =         0.000000
siesta: Emolmec =         0.000000
siesta: Ekinion =         0.109212
siesta: Eharris =     -2957.569152
siesta: Etot    =     -2957.569152
siesta: FreeEng =     -2957.569152

siesta: Final energy (eV):
siesta:  Band Struct. =    -618.669114
siesta:       Kinetic =    2282.007481
siesta:       Hartree =    1029.326932
siesta:    Ext. field =       0.000000
siesta:   Exch.-corr. =    -704.331831
siesta:  Ion-electron =   -4036.342723
siesta:       Ion-ion =   -1528.338221
siesta:       Ekinion =       0.109212
siesta:         Total =   -2957.569152

siesta: Atomic forces (eV/Ang):
siesta:      1    0.000042    0.000086   -0.000270
siesta:      2    0.000108   -0.000264    0.000027
siesta:      3    0.000561   -0.000487   -0.001173
siesta:      4    0.000176   -0.000384   -0.000015
siesta:      5    3.143197   -7.030452    0.000266
siesta:      6   -0.000093    4.218102   -6.443136
siesta:      7   -3.143783    2.812939    6.444292
siesta:      8   -3.143566    7.030945    0.000022
siesta:      9   -0.000031   -4.217933    6.443583
siesta:     10    3.143385   -2.812547   -6.443590
siesta: ----------------------------------------
siesta:    Tot   -0.000004    0.000004    0.000006

siesta: Stress tensor (static) (eV/Ang**3):
siesta:     0.056143    0.108510    0.071037
siesta:     0.108510   -0.138044    0.031754
siesta:     0.071037    0.031755   -0.165770

siesta: Cell volume =         93.166340 Ang**3

siesta: Pressure (static):
siesta:                Solid            Molecule  Units
siesta:           0.00089915         -0.00142024  Ry/Bohr**3
siesta:           0.08255699         -0.13040148  eV/Ang**3
siesta:         132.27231119       -208.92845882  kBar
(Free)E+ p_basis*V_orbitals  =       -2956.484067
(Free)Eharris+ p_basis*V_orbitals  =       -2956.484067
>> End of run:  10-JUN-2018  21:50:59
Job completed
