Siesta Version  : siesta-4.0--578
Architecture    : x86_64-linux-n-62-25-35
Compiler version: GNU Fortran (GCC) 7.3.0
Compiler flags  : mpif90 -m64 -fPIC -O3 -march=native -ftree-vectorize -fexpensive-optimizationns -funroll-loops -fprefetch-loop-arrays -fno-second-underscore
PP flags        : -I/zdata/groups/common/nicpa/2018-feb/generic/build-tools/1.0/include -I/zdatta/groups/common/nicpa/2018-feb/generic/gcc/7.3.0/include -I/zdata/groups/common/nicpa/2018-feb/generic/gcc/7.3.0/include -I/zdata/groups/common/nicpa/2018-feb/XeonE5-2660v3/zlib/1.2.11/gnu-7.3.0/include -I/zdata/groups/common/nicpa/2018-feb/generic/numactl/2.0.11/include -I/zdata/groups/common/nicpa/2018-feb/XeonE5-2660v3/libxml2/2.9.7/gnu-7.3.0/include -I/zdata/groups/common/nicpa/2018-feb/XeonE5-2660v3/hwloc/1.11.9/gnu-7.3.0/include -I/zdata/groups/common/nicpa/2018-feb/XeonE5-2660v3/openmpi/3.0.0/gnu-7.3.0/include -I/zdata/groups/common/nicpa/2018-feb/XeonE5-2660v3/szip/2.1.1/gnu-7.3.0/include -I/zdata/groups/common/nicpa/2018-feb/XeonE5-2660v3/hdf5-serial/1.8.18/gnu-7.3.0/include -I/zdata/groups/common/nicpa/2018-feb/XeonE5-2660v3/netcdf-serial/4.6.0/gnu-7.3.0/include -I/zdata/groups/common/nicpa/2018-feb/XeonE5-2660v3/scalapack/204/gnu-7.3.0/include -I/zdata/groups/common/nicpa/2018-feb/XeonE5-2660v3/openblas/0.2.20/gnu-7.3.0/include -I/zdata/groups/common/nicpa/2018-feb/XeonE5-2660v3/elpa/2017.05.003/gnu-7.3.0/include -DSIESTA__ELPA -DMPI -D1 -DFC_HAVE_ABORT -DCDF -DSIESTA__MRRR 
PARALLEL version
NetCDF support

* Running on    8 nodes in parallel
>> Start of run:  10-JUN-2018  21:51:40

                           ***********************       
                           *  WELCOME TO SIESTA  *       
                           ***********************       

reinit: Reading from standard input
************************** Dump of input data file ****************************
SystemName          N chain
SystemLabel         n_chain
NumberOfAtoms       1
NumberOfSpecies     1
MeshCutoff  50 Ry
%block ChemicalSpeciesLabel
 1  7  N
%endblock ChemicalSpeciesLabel
PAO.BasisSize SZ
LatticeConstant 1.0 Ang
%block LatticeVectors
8.0 0.0 0.0
0.0 8.0 0.0
0.0 0.0 2.0
%endblock LatticeVectors
%block kgrid_Monkhorst_Pack
1 0 0  0.0
0 1 0  0.0
0 0 50 0.0
%endblock kgrid_Monkhorst_Pack
AtomicCoordinatesFormat  Ang
%block AtomicCoordinatesAndAtomicSpecies
 2.000  2.000  1.000  1
%endblock AtomicCoordinatesAndAtomicSpecies
COOP.Write T
%block Projected-density-of-states
-20.00 4.00 0.500 500 eV
%endblock Projected-density-of-states
************************** End of input data file *****************************

reinit: -----------------------------------------------------------------------
reinit: System Name: N chain
reinit: -----------------------------------------------------------------------
reinit: System Label: n_chain                                                     
reinit: -----------------------------------------------------------------------

initatom: Reading input for the pseudopotentials and atomic orbitals ----------
 Species number:            1  Label: N Atomic number:           7
Ground state valence configuration:   2s02  2p03
Reading pseudopotential information in formatted form from N.psf

Valence configuration for pseudopotential generation:
2s( 2.00) rc: 1.14
2p( 3.00) rc: 1.14
3d( 0.00) rc: 1.14
4f( 0.00) rc: 1.14
For N, standard SIESTA heuristics set lmxkb to 2
 (one more than the basis l, including polarization orbitals).
Use PS.lmax or PS.KBprojectors blocks to override.

<basis_specs>
===============================================================================
N                    Z=   7    Mass=  14.010        Charge= 0.17977+309
Lmxo=1 Lmxkb= 2    BasisType=split      Semic=F
L=0  Nsemic=0  Cnfigmx=2
          n=1  nzeta=1  polorb=0
            splnorm:   0.15000    
               vcte:    0.0000    
               rinn:    0.0000    
               qcoe:    0.0000    
               qyuk:    0.0000    
               qwid:   0.10000E-01
                rcs:    0.0000    
            lambdas:    1.0000    
L=1  Nsemic=0  Cnfigmx=2
          n=1  nzeta=1  polorb=0
            splnorm:   0.15000    
               vcte:    0.0000    
               rinn:    0.0000    
               qcoe:    0.0000    
               qyuk:    0.0000    
               qwid:   0.10000E-01
                rcs:    0.0000    
            lambdas:    1.0000    
-------------------------------------------------------------------------------
L=0  Nkbl=1  erefs: 0.17977+309
L=1  Nkbl=1  erefs: 0.17977+309
L=2  Nkbl=1  erefs: 0.17977+309
===============================================================================
</basis_specs>

atom: Called for N                     (Z =   7)

read_vps: Pseudopotential generation method:
read_vps: ATM 3.2.2 Troullier-Martins                       
Total valence charge:    5.00000

xc_check: Exchange-correlation functional:
xc_check: Ceperley-Alder
V l=0 = -2*Zval/r beyond r=  1.1958
V l=1 = -2*Zval/r beyond r=  1.1958
V l=2 = -2*Zval/r beyond r=  1.1958
All V_l potentials equal beyond r=  1.1233
This should be close to max(r_c) in ps generation
All pots = -2*Zval/r beyond r=  1.1958

VLOCAL1: 99.0% of the norm of Vloc inside     34.401 Ry
VLOCAL1: 99.9% of the norm of Vloc inside     78.401 Ry
atom: Maximum radius for 4*pi*r*r*local-pseudopot. charge    1.35504
atom: Maximum radius for r*vlocal+2*Zval:    1.18092
GHOST: No ghost state for L =  0
GHOST: No ghost state for L =  1
GHOST: No ghost state for L =  2

KBgen: Kleinman-Bylander projectors: 
   l= 0   rc=  1.406829   el= -1.352238   Ekb=  9.654792   kbcos=  0.296969
   l= 1   rc=  1.406829   el= -0.532622   Ekb= -6.526027   kbcos= -0.327655
   l= 2   rc=  1.614250   el=  0.002346   Ekb= -1.736131   kbcos= -0.003799

KBgen: Total number of  Kleinman-Bylander projectors:    9
atom: -------------------------------------------------------------------------

atom: SANKEY-TYPE ORBITALS:

SPLIT: Orbitals with angular momentum L= 0

SPLIT: Basis orbitals for state 2s

SPLIT: PAO cut-off radius determined from an
SPLIT: energy shift=  0.020000 Ry

   izeta = 1
                 lambda =    1.000000
                     rc =    3.683980
                 energy =   -1.333791
                kinetic =    1.257053
    potential(screened) =   -2.590844
       potential(ionic) =   -8.165674

SPLIT: Orbitals with angular momentum L= 1

SPLIT: Basis orbitals for state 2p

SPLIT: PAO cut-off radius determined from an
SPLIT: energy shift=  0.020000 Ry

   izeta = 1
                 lambda =    1.000000
                     rc =    4.280232
                 energy =   -0.512460
                kinetic =    3.775375
    potential(screened) =   -4.287835
       potential(ionic) =   -9.745937
atom: Total number of Sankey-type orbitals:  4

atm_pop: Valence configuration (for local Pseudopot. screening):
 2s( 2.00)                                                            
 2p( 3.00)                                                            
Vna: chval, zval:    5.00000   5.00000

Vna:  Cut-off radius for the neutral-atom potential:   4.280232

atom: _________________________________________________________________________

prinput: Basis input ----------------------------------------------------------

PAO.BasisType split     

%block ChemicalSpeciesLabel
    1    7 N                       # Species index, atomic number, species label
%endblock ChemicalSpeciesLabel

%block PAO.Basis                 # Define Basis set
N                     2                    # Species label, number of l-shells
 n=2   0   1                         # n, l, Nzeta 
   3.684   
   1.000   
 n=2   1   1                         # n, l, Nzeta 
   4.280   
   1.000   
%endblock PAO.Basis

prinput: ----------------------------------------------------------------------

Dumping basis to NetCDF file N.ion.nc
coor:   Atomic-coordinates input format  =     Cartesian coordinates
coor:                                          (in Angstroms)

siesta: Atomic coordinates (Bohr) and species
siesta:      3.77945   3.77945   1.88973  1        1

siesta: System type = chain     

initatomlists: Number of atoms, orbitals, and projectors:      1     4     9

siesta: ******************** Simulation parameters ****************************
siesta:
siesta: The following are some of the parameters of the simulation.
siesta: A complete list of the parameters used, including default values,
siesta: can be found in file out.fdf
siesta:
redata: Non-Collinear-spin run           =     F
redata: SpinPolarized (Up/Down) run      =     F
redata: Number of spin components        =     1
redata: Long output                      =     F
redata: Number of Atomic Species         =        1
redata: Charge density info will appear in .RHO file
redata: Write Mulliken Pop.              =     NO
redata: Matel table size (NRTAB)         =     1024
redata: Mesh Cutoff                      =    50.0000 Ry
redata: Net charge of the system         =     0.0000 |e|
redata: Min. number of SCF Iter          =        0
redata: Max. number of SCF Iter          =       50
redata: Mix DM or H after convergence    =     F
redata: Recompute H after scf cycle      =     F
redata: Mixing is linear
redata: Mix DM in first SCF step ?       =     F
redata: Write Pulay info on disk?        =     F
redata: Discard 1st Pulay DM after  kick =     F
redata: New DM Mixing Weight             =     0.2500
redata: New DM Occupancy tolerance       = 0.000000000001
redata: No kicks to SCF
redata: DM Mixing Weight for Kicks       =     0.5000
redata: DM Tolerance for SCF             =     0.000100
redata: Require (free) Energy convergence in SCF =     F
redata: DM (free)Energy tolerance for SCF =     0.000010 eV
redata: Require Harris convergence for SCF =     F
redata: DM Harris energy tolerance for SCF =     0.000010 eV
redata: Using Saved Data (generic)   =     F
redata: Use continuation files for DM    =     F
redata: Neglect nonoverlap interactions  =     F
redata: Method of Calculation            =     Diagonalization
redata: Divide and Conquer               =     T
redata: Electronic Temperature           =     0.0019  Ry
redata: Fix the spin of the system       =     F
redata: Dynamics option                  =     Single-point calculation
redata: ***********************************************************************
Total number of electrons:     5.000000
Total ionic charge:     5.000000

* ProcessorY, Blocksize:    2   1


* Orbital distribution balance (max,min):     1     0

k-point displ. along   3 input, could be:     0.00    0.50
 Kpoints in:           26 . Kpoints trimmed:           26

siesta: k-grid: Number of k-points =    26
siesta: k-grid: Cutoff (effective) =     4.000 Ang
siesta: k-grid: Supercell and displacements
siesta: k-grid:    1   0   0      0.000
siesta: k-grid:    0   1   0      0.000
siesta: k-grid:    0   0  50      0.000
Naive supercell factors:     2    2    7

superc: Internal auxiliary supercell:     2 x     2 x     7  =      28
superc: Number of atoms, orbitals, and projectors:     28    112    252

                     ====================================
                        Single-point calculation
                     ====================================

superc: Internal auxiliary supercell:     2 x     2 x     7  =      28
superc: Number of atoms, orbitals, and projectors:     28    112    252

outcell: Unit cell vectors (Ang):
        8.000000    0.000000    0.000000
        0.000000    8.000000    0.000000
        0.000000    0.000000    2.000000

outcell: Cell vector modules (Ang)   :    8.000000    8.000000    2.000000
outcell: Cell angles (23,13,12) (deg):     90.0000     90.0000     90.0000
outcell: Cell volume (Ang**3)        :    128.0000
New_DM. Step:     1
Initializing Density Matrix...
New grid distribution:   1
           1       1:   18    1:    9    1:    2
           2       1:   18    1:    9    3:    3
           3       1:   18    1:    9    4:    4
           4       1:   18    1:    9    5:    5
           5       1:   18   10:   18    1:    2
           6       1:   18   10:   18    3:    3
           7       1:   18   10:   18    4:    4
           8       1:   18   10:   18    5:    5

InitMesh: MESH =    36 x    36 x    10 =       12960
InitMesh: (bp) =    18 x    18 x     5 =        1620
InitMesh: Mesh cutoff (required, used) =    50.000    55.966 Ry
ExtMesh (bp) on 0 =    42 x    33 x    26 =       36036
New grid distribution:   2
           1       1:    5    8:   18    1:    5
           2       6:   18    1:    3    1:    5
           3       6:   18    6:    7    1:    5
           4       1:    5    4:    5    1:    5
           5       6:   18    8:   18    1:    5
           6       6:   18    4:    5    1:    5
           7       1:    5    1:    3    1:    5
           8       1:    5    6:    7    1:    5
New grid distribution:   3
           1       1:    5    8:   18    1:    5
           2       6:   18    1:    3    1:    5
           3       6:   18    6:    7    1:    5
           4       1:    5    4:    5    1:    5
           5       6:   18    8:   18    1:    5
           6       6:   18    4:    5    1:    5
           7       1:    5    1:    3    1:    5
           8       1:    5    6:    7    1:    5
Setting up quadratic distribution...
ExtMesh (bp) on 0 =    29 x    35 x    29 =       29435
PhiOnMesh: Number of (b)points on node 0 =                  275
PhiOnMesh: nlist on node 0 =                  309

stepf: Fermi-Dirac step function

siesta: Program's energy decomposition (eV):
siesta: Ebs     =       -51.179387
siesta: Eions   =       541.360355
siesta: Ena     =       160.337858
siesta: Ekin    =       188.302370
siesta: Enl     =        -6.545315
siesta: DEna    =        -0.000002
siesta: DUscf   =         0.000000
siesta: DUext   =         0.000000
siesta: Exc     =       -62.464745
siesta: eta*DQ  =         0.000000
siesta: Emadel  =         0.000000
siesta: Emeta   =         0.000000
siesta: Emolmec =         0.000000
siesta: Ekinion =         0.000000
siesta: Eharris =      -264.523002
siesta: Etot    =      -261.730189
siesta: FreeEng =      -261.731269

   scf: iscf   Eharris(eV)      E_KS(eV)   FreeEng(eV)    dDmax  Ef(eV)
   scf:    1     -264.5230     -261.7302     -261.7313  0.58296 -4.7200
timer: Routine,Calls,Time,% =    IterSCF     1       0.032  20.64
   scf:    2     -264.4546     -264.4545     -264.4556  0.00157 -5.7362
   scf:    3     -264.4546     -264.4545     -264.4556  0.00118 -5.7358
   scf:    4     -264.4546     -264.4545     -264.4556  0.00088 -5.7355
   scf:    5     -264.4546     -264.4545     -264.4556  0.00066 -5.7353
   scf:    6     -264.4546     -264.4545     -264.4557  0.00049 -5.7352
   scf:    7     -264.4546     -264.4546     -264.4557  0.00037 -5.7350
   scf:    8     -264.4546     -264.4546     -264.4557  0.00028 -5.7349
   scf:    9     -264.4546     -264.4546     -264.4557  0.00021 -5.7349
   scf:   10     -264.4546     -264.4546     -264.4557  0.00015 -5.7348
   scf:   11     -264.4546     -264.4546     -264.4557  0.00012 -5.7348
   scf:   12     -264.4546     -264.4546     -264.4557  0.00009 -5.7347

SCF Convergence by dMax criterion
max |DM_out - DM_in|:     0.00008606
SCF cycle converged after   12 iterations

Using DM_out to compute the final energy and forces

siesta: E_KS(eV) =             -264.4546

siesta: E_KS - E_eggbox =      -264.4546

siesta: Atomic forces (eV/Ang):
----------------------------------------
   Tot    0.000000    0.000000    0.000000
----------------------------------------
   Max    0.000000
   Res    0.000000    sqrt( Sum f_i^2 / 3N )
----------------------------------------
   Max    0.000000    constrained

Stress-tensor-Voigt (kbar):        1.19        1.19      107.91       -0.00       -0.00        0.00
(Free)E + p*V (eV/cell)     -267.3930
Target enthalpy (eV/cell)     -264.4557
Writing WFSX for COOP/COHP in n_chain.fullBZ.WFSX
siesta: PDOS info: 
siesta: e1, e2, sigma, nhist:   -20.00 eV    4.00 eV    0.50 eV    500

siesta: Program's energy decomposition (eV):
siesta: Ebs     =       -56.372243
siesta: Eions   =       541.360355
siesta: Ena     =       160.337858
siesta: Ekin    =       175.970413
siesta: Enl     =        -4.580586
siesta: DEna    =         6.224703
siesta: DUscf   =         0.121542
siesta: DUext   =         0.000000
siesta: Exc     =       -61.168142
siesta: eta*DQ  =         0.000000
siesta: Emadel  =         0.000000
siesta: Emeta   =         0.000000
siesta: Emolmec =         0.000000
siesta: Ekinion =         0.000000
siesta: Eharris =      -264.454568
siesta: Etot    =      -264.454568
siesta: FreeEng =      -264.455680

siesta: Final energy (eV):
siesta:  Band Struct. =     -56.372243
siesta:       Kinetic =     175.970413
siesta:       Hartree =     223.008044
siesta:    Ext. field =       0.000000
siesta:   Exch.-corr. =     -61.168142
siesta:  Ion-electron =    -598.327495
siesta:       Ion-ion =      -3.937387
siesta:       Ekinion =       0.000000
siesta:         Total =    -264.454568

siesta: Stress tensor (static) (eV/Ang**3):
siesta:     0.000746   -0.000000    0.000000
siesta:    -0.000000    0.000746   -0.000000
siesta:     0.000000   -0.000000    0.067353

siesta: Cell volume =        128.000000 Ang**3

siesta: Pressure (static):
siesta:                Solid            Molecule  Units
siesta:          -0.00024993         -0.00024993  Ry/Bohr**3
siesta:          -0.02294815         -0.02294815  eV/Ang**3
siesta:         -36.76738190        -36.76738190  kBar
(Free)E+ p_basis*V_orbitals  =        -264.356182
(Free)Eharris+ p_basis*V_orbitals  =        -264.356182

siesta: Electric dipole (a.u.)  =    0.000000   -0.000000    0.000000
siesta: Electric dipole (Debye) =    0.000000   -0.000000    0.000000
>> End of run:  10-JUN-2018  21:51:41
Job completed
