Siesta Version  : siesta-4.1-1033
Architecture    : x86_64-linux-n-62-18-18
Compiler version: GNU Fortran (GCC) 7.3.0
Compiler flags  : mpifort -m64 -fPIC -O3 -march=native -ftree-vectorize -fexpensive-optimizatioons -funroll-loops -fprefetch-loop-arrays -fno-second-underscore  -flto
PP flags        : -I/zdata/groups/common/nicpa/2018-feb/generic/build-tools/1.0/include -I/zdatta/groups/common/nicpa/2018-feb/generic/gcc/7.3.0/include -I/zdata/groups/common/nicpa/2018-feb/generic/gcc/7.3.0/include -I/zdata/groups/common/nicpa/2018-feb/XeonE5-2665/zlib/1.2.11/gnu-7.3.0/include -I/zdata/groups/common/nicpa/2018-feb/generic/numactl/2.0.11/include -I/zdata/groups/common/nicpa/2018-feb/XeonE5-2665/libxml2/2.9.7/gnu-7.3.0/include -I/zdata/groups/common/nicpa/2018-feb/XeonE5-2665/hwloc/1.11.9/gnu-7.3.0/include -I/zdata/groups/common/nicpa/2018-feb/XeonE5-2665/openmpi/3.0.0/gnu-7.3.0/include -I/zdata/groups/common/nicpa/2018-feb/XeonE5-2665/szip/2.1.1/gnu-7.3.0/include -I/zdata/groups/common/nicpa/2018-feb/XeonE5-2665/hdf5/1.8.18/gnu-7.3.0/include -I/zdata/groups/common/nicpa/2018-feb/XeonE5-2665/pnetcdf/1.8.1/gnu-7.3.0/include -I/zdata/groups/common/nicpa/2018-feb/XeonE5-2665/netcdf/4.6.0/gnu-7.3.0/include -I/zdata/groups/common/nicpa/2018-feb/XeonE5-2665/flook/0.7.0/gnu-7.3.0/include -I/zdata/groups/common/nicpa/2018-feb/XeonE5-2665/parmetis/4.0.3/gnu-7.3.0/include -I/zdata/groups/common/nicpa/2018-feb/XeonE5-2665/scalapack/204/gnu-7.3.0/include -I/zdata/groups/common/nicpa/2018-feb/XeonE5-2665/openblas/0.2.20/gnu-7.3.0/include -I/zdata/groups/common/nicpa/2018-feb/XeonE5-2665/scotch/6.0.4/gnu-7.3.0/include -I/zdata/groups/common/nicpa/2018-feb/XeonE5-2665/mumps/5.1.2/gnu-7.3.0/include -I/zdata/groups/common/nicpa/2018-feb/XeonE5-2665/fftw/3.3.7/gnu-7.3.0/include -I/zdata/groups/common/nicpa/2018-feb/XeonE5-2665/elpa/2017.05.003/gnu-7.3.0/include/elpa -DSIESTA__ELPA -DMPI -D1 -DFC_HAVE_ABORT -DCDF -DCDF4 -DSIESTA__FLOOK  -DNCDF -DNCDF_4 -DNCDF_PARALLEL -DSIESTA__METIS -DSIESTA__MUMPS -DTS_NOCHECKS -DSIESTA__MRRR
Libraries       : libncdf.a libfdict.a -lnetcdff -lnetcdf -lpnetcdf -lhdf5_hl -lhdf5 -lz  -lzmuumps -lmumps_common -lesmumps -lscotch -lscotcherr -lpord -lparmetis -lmetis -lelpa -lscalapack -lopenblas  -L/zdata/groups/common/nicpa/2018-feb/XeonE5-2665/flook/0.7.0/gnu-7.3.0/lib -Wl,-rpath=/zdata/groups/common/nicpa/2018-feb/XeonE5-2665/flook/0.7.0/gnu-7.3.0/lib -lflookall -ldl  -flto -fuse-linker-plugin  -lmetis
PARALLEL version
NetCDF support
NetCDF-4 support
NetCDF-4 MPI-IO support
METIS ordering support

* Running on 8 nodes in parallel
>> Start of run:   5-NOV-2018  10:56:52

                           ***********************       
                           *  WELCOME TO SIESTA  *       
                           ***********************       

reinit: Reading from ../nanotube-c-5-0.fdf

reinit: -----------------------------------------------------------------------
reinit: System Name: c50tube
reinit: -----------------------------------------------------------------------
reinit: System Label: nanotube-c-5-0
reinit: -----------------------------------------------------------------------

initatom: Reading input for the pseudopotentials and atomic orbitals ----------
Species number:   1 Atomic number:    6 Label: C_2

Ground state valence configuration:   2s02  2p02
Reading pseudopotential information in formatted form from C_2.psf

Valence configuration for pseudopotential generation:
2s( 2.00) rc: 1.25
2p( 2.00) rc: 1.25
3d( 0.00) rc: 1.25
4f( 0.00) rc: 1.25
For C_2, standard SIESTA heuristics set lmxkb to 3
 (one more than the basis l, including polarization orbitals).
Use PS.lmax or PS.KBprojectors blocks to override.

<basis_specs>
===============================================================================
C_2                  Z=   6    Mass=  12.010        Charge= 0.10000E-01
Lmxo=2 Lmxkb= 3    BasisType=split      Semic=F
L=0  Nsemic=0  Cnfigmx=2
          n=1  nzeta=2  polorb=0
            splnorm:   0.15000    
               vcte:    0.0000    
               rinn:    0.0000    
               qcoe:    0.0000    
               qyuk:    0.0000    
               qwid:   0.10000E-01
                rcs:    6.0990      4.1920    
            lambdas:    1.0000      1.0000    
L=1  Nsemic=0  Cnfigmx=2
          n=1  nzeta=2  polorb=0
            splnorm:   0.15000    
               vcte:    0.0000    
               rinn:    0.0000    
               qcoe:    0.0000    
               qyuk:    0.0000    
               qwid:   0.10000E-01
                rcs:    4.9940      3.1050    
            lambdas:    1.0000      1.0000    
L=2  Nsemic=0  Cnfigmx=3
          n=1  nzeta=1  polorb=0
            splnorm:   0.15000    
               vcte:    0.0000    
               rinn:    0.0000    
               qcoe:    0.0000    
               qyuk:    0.0000    
               qwid:   0.10000E-01
                rcs:    4.1920    
            lambdas:    1.0000    
-------------------------------------------------------------------------------
L=0  Nkbl=1  erefs: 0.17977+309
L=1  Nkbl=1  erefs: 0.17977+309
L=2  Nkbl=1  erefs: 0.17977+309
L=3  Nkbl=1  erefs: 0.17977+309
===============================================================================
</basis_specs>

atom: Called for C_2                   (Z =   6)

read_vps: Pseudopotential generation method:
read_vps: ATM3      Troullier-Martins                       
Total valence charge:    4.00000

xc_check: Exchange-correlation functional:
xc_check: Ceperley-Alder
V l=0 = -2*Zval/r beyond r=  1.3951
V l=1 = -2*Zval/r beyond r=  1.3777
V l=2 = -2*Zval/r beyond r=  1.3777
V l=3 = -2*Zval/r beyond r=  1.3777
All V_l potentials equal beyond r=  1.2311
This should be close to max(r_c) in ps generation
All pots = -2*Zval/r beyond r=  1.3951

VLOCAL1: 99.0% of the norm of Vloc inside     28.641 Ry
VLOCAL1: 99.9% of the norm of Vloc inside     65.273 Ry
atom: Maximum radius for 4*pi*r*r*local-pseudopot. charge    1.48507
atom: Maximum radius for r*vlocal+2*Zval:    1.27815
GHOST: No ghost state for L =  0
GHOST: No ghost state for L =  1
GHOST: No ghost state for L =  2
GHOST: No ghost state for L =  3

KBgen: Kleinman-Bylander projectors: 
   l= 0   rc=  1.600766   el= -1.001946   Ekb=  7.816946   kbcos=  0.279978
   l= 1   rc=  1.620907   el= -0.398597   Ekb= -4.829535   kbcos= -0.287433
   l= 2   rc=  1.836783   el=  0.002326   Ekb= -1.327964   kbcos= -0.005365
   l= 3   rc=  1.979871   el=  0.003420   Ekb= -0.522285   kbcos= -0.000569

KBgen: Total number of  Kleinman-Bylander projectors:   16
atom: -------------------------------------------------------------------------

atom: SANKEY-TYPE ORBITALS:
atom: Selected multiple-zeta basis: split     

atom: basis set generated (by rescaling the valence charge)
atom: for a cation of charge   0.0100

SPLIT: Orbitals with angular momentum L= 0

SPLIT: Basis orbitals for state 2s

   izeta = 1
                 lambda =    1.000000
                     rc =    6.099293
                 energy =   -1.011972
                kinetic =    0.844798
    potential(screened) =   -1.856770
       potential(ionic) =   -5.396745

   izeta = 2
                 rmatch =    4.191849
              splitnorm =    0.061309
                 energy =   -0.961522
                kinetic =    1.115666
    potential(screened) =   -2.077187
       potential(ionic) =   -5.792129

SPLIT: Orbitals with angular momentum L= 1

SPLIT: Basis orbitals for state 2p

   izeta = 1
                 lambda =    1.000000
                     rc =    4.993604
                 energy =   -0.392202
                kinetic =    2.595657
    potential(screened) =   -2.987859
       potential(ionic) =   -6.482023

   izeta = 2
                 rmatch =    3.105291
              splitnorm =    0.227771
                 energy =   -0.119960
                kinetic =    4.461637
    potential(screened) =   -4.581597
       potential(ionic) =   -8.563850

SPLIT: Orbitals with angular momentum L= 2

SPLIT: Basis orbitals for state 3d

   izeta = 1
                 lambda =    1.000000
                     rc =    4.191849
                 energy =    1.177631
                kinetic =    2.007563
    potential(screened) =   -0.829932
       potential(ionic) =   -3.494008
atom: Total number of Sankey-type orbitals: 13

atm_pop: Valence configuration (for local Pseudopot. screening):
 2s( 2.00)                                                            
 2p( 2.00)                                                            
 3d( 0.00)                                                            
Vna: chval, zval:    4.00000   4.00000

Vna:  Cut-off radius for the neutral-atom potential:   6.099293

atom: _________________________________________________________________________

prinput: Basis input ----------------------------------------------------------

PAO.BasisType split     

%block ChemicalSpeciesLabel
    1    6 C_2                     # Species index, atomic number, species label
%endblock ChemicalSpeciesLabel

%block PAO.Basis                 # Define Basis set
C_2                   3   0.010            # Label, l-shells, ionic net charge
 n=2   0   2                         # n, l, Nzeta 
   6.099      4.192   
   1.000      1.000   
 n=2   1   2                         # n, l, Nzeta 
   4.994      3.105   
   1.000      1.000   
 n=3   2   1                         # n, l, Nzeta 
   4.192   
   1.000   
%endblock PAO.Basis

prinput: ----------------------------------------------------------------------

Dumping basis to NetCDF file C_2.ion.nc
coor:   Atomic-coordinates input format  =     Cartesian coordinates
coor:                                          (in Angstroms)

siesta: Atomic coordinates (Bohr) and species
siesta:      3.88935   0.00000  -0.00972  1        1
siesta:      3.14565   2.28802   1.35028  1        2
siesta:      3.14565   2.28802   4.01654  1        3
siesta:      3.88935   0.00000   5.37655  1        4
siesta:      1.20355   3.70229  -0.00945  1        5
siesta:     -1.20355   3.70229   1.35116  1        6
siesta:     -1.20355   3.70229   4.01567  1        7
siesta:      1.20355   3.70229   5.37628  1        8
siesta:     -3.14565   2.28802  -0.00858  1        9
siesta:     -3.88935   0.00000   1.35143  1       10
siesta:     -3.88935   0.00000   4.01540  1       11
siesta:     -3.14565   2.28802   5.37540  1       12
siesta:     -3.14565  -2.28802  -0.00857  1       13
siesta:     -1.20355  -3.70229   1.35116  1       14
siesta:     -1.20355  -3.70229   4.01567  1       15
siesta:     -3.14565  -2.28802   5.37540  1       16
siesta:      1.20355  -3.70229  -0.00945  1       17
siesta:      3.14565  -2.28802   1.35028  1       18
siesta:      3.14565  -2.28802   4.01654  1       19
siesta:      1.20355  -3.70229   5.37628  1       20

siesta: System type = chain     

initatomlists: Number of atoms, orbitals, and projectors:     20   260   320

siesta: ******************** Simulation parameters ****************************
siesta:
siesta: The following are some of the parameters of the simulation.
siesta: A complete list of the parameters used, including default values,
siesta: can be found in file out.fdf
siesta:
redata: Spin configuration                          = none
redata: Number of spin components                   = 1
redata: Time-Reversal Symmetry                      = T
redata: Spin-spiral                                 = F
redata: Long output                                 =   T
redata: Number of Atomic Species                    =        1
redata: Charge density info will appear in .RHO file
redata: Write Mulliken Pop.                         = Atomic and Orbital charges
redata: Matel table size (NRTAB)                    =     1024
redata: Mesh Cutoff                                 =   300.0000 Ry
redata: Net charge of the system                    =     0.0000 |e|
redata: Min. number of SCF Iter                     =        0
redata: Max. number of SCF Iter                     =     1000
redata: SCF convergence failure will abort job
redata: SCF mix quantity                            = Hamiltonian
redata: Mix DM or H after convergence               =   F
redata: Recompute H after scf cycle                 =   F
redata: Mix DM in first SCF step                    =   T
redata: Write Pulay info on disk                    =   F
redata: New DM Mixing Weight                        =     0.1500
redata: New DM Occupancy tolerance                  = 0.000000000001
redata: No kicks to SCF
redata: DM Mixing Weight for Kicks                  =     0.5000
redata: Require Harris convergence for SCF          =   F
redata: Harris energy tolerance for SCF             =     0.000100 eV
redata: Require DM convergence for SCF              =   T
redata: DM tolerance for SCF                        =     0.000500
redata: Require EDM convergence for SCF             =   F
redata: EDM tolerance for SCF                       =     0.001000 eV
redata: Require H convergence for SCF               =   T
redata: Hamiltonian tolerance for SCF               =     0.001000 eV
redata: Require (free) Energy convergence for SCF   =   F
redata: (free) Energy tolerance for SCF             =     0.000100 eV
redata: Using Saved Data (generic)                  =   F
redata: Use continuation files for DM               =   T
redata: Neglect nonoverlap interactions             =   F
redata: Method of Calculation                       = Diagonalization
redata: Electronic Temperature                      =   290.1109 K
redata: Fix the spin of the system                  =   F
redata: Dynamics option                             = Single-point calculation
mix.SCF: Pulay mixing                            = Pulay
mix.SCF:    Variant                              = stable
mix.SCF:    History steps                        = 3
mix.SCF:    Linear mixing weight                 =     0.150000
mix.SCF:    Mixing weight                        =     0.150000
mix.SCF:    SVD condition                        = 0.1000E-07
redata: Save all siesta data in one NC              =   F
redata: ***********************************************************************

%block SCF.Mixers
  Pulay
%endblock SCF.Mixers

%block SCF.Mixer.Pulay
  # Mixing method
  method pulay
  variant stable

  # Mixing options
  weight 0.1500
  weight.linear 0.1500
  history 3
%endblock SCF.Mixer.Pulay

DM_history_depth set to one: no extrapolation allowed by default for geometry relaxation
Size of DM history Fstack: 1
Total number of electrons:    80.000000
Total ionic charge:    80.000000

* ProcessorY, Blocksize:    2  24


* Orbital distribution balance (max,min):    48    24

 Kpoints in:           25 . Kpoints trimmed:           25

siesta: k-point coordinates (Bohr**-1) and weights:
siesta:    1    0.000000    0.000000    0.007805       0.040000
siesta:    2    0.000000    0.000000    0.023415       0.040000
siesta:    3    0.000000    0.000000    0.039025       0.040000
siesta:    4    0.000000    0.000000    0.054635       0.040000
siesta:    5    0.000000    0.000000    0.070245       0.040000
siesta:    6    0.000000    0.000000    0.085855       0.040000
siesta:    7    0.000000    0.000000    0.101465       0.040000
siesta:    8    0.000000    0.000000    0.117075       0.040000
siesta:    9    0.000000    0.000000    0.132684       0.040000
siesta:   10    0.000000    0.000000    0.148294       0.040000
siesta:   11    0.000000    0.000000    0.163904       0.040000
siesta:   12    0.000000    0.000000    0.179514       0.040000
siesta:   13    0.000000    0.000000    0.195124       0.040000
siesta:   14    0.000000    0.000000    0.210734       0.040000
siesta:   15    0.000000    0.000000    0.226344       0.040000
siesta:   16    0.000000    0.000000    0.241954       0.040000
siesta:   17    0.000000    0.000000    0.257564       0.040000
siesta:   18    0.000000    0.000000    0.273174       0.040000
siesta:   19    0.000000    0.000000    0.288784       0.040000
siesta:   20    0.000000    0.000000    0.304394       0.040000
siesta:   21    0.000000    0.000000    0.320004       0.040000
siesta:   22    0.000000    0.000000    0.335614       0.040000
siesta:   23    0.000000    0.000000    0.351224       0.040000
siesta:   24    0.000000    0.000000    0.366834       0.040000
siesta:   25    0.000000    0.000000    0.382444       0.040000

siesta: k-grid: Number of k-points =    25
siesta: k-grid: Cutoff (effective) =    12.500 Ang
siesta: k-grid: Supercell and displacements
siesta: k-grid:    1   0   0      0.000
siesta: k-grid:    0   1   0      0.000
siesta: k-grid:    0   0  50      0.500

diag: Algorithm                                     = D&C
diag: Parallel over k                               =   F
diag: Use parallel 2D distribution                  =   T
diag: Parallel block-size                           = 24
diag: Parallel distribution                         =     2 x     4
diag: Used triangular part                          = Lower
diag: Absolute tolerance                            =  0.100E-15
diag: Orthogonalization factor                      =  0.100E-05
diag: Memory factor                                 =  1.0000

superc: Internal auxiliary supercell:     1 x     1 x     5  =       5
superc: Number of atoms, orbitals, and projectors:    100   1300   1600


ts: **************************************************************
ts: Save H and S matrices                           =    F
ts: Save DM and EDM matrices                        =    F
ts: Fix Hartree potential                           =    F
ts: Only save the overlap matrix S                  =    F
ts: **************************************************************

************************ Begin: TS CHECKS AND WARNINGS ************************
************************ End: TS CHECKS AND WARNINGS **************************


                     ====================================
                        Single-point calculation
                     ====================================

outcoor: Atomic coordinates (Ang):                          
    2.05815253    0.00000005   -0.00514455   1       1  C_2
    1.66460705    1.21076605    0.71453767   1       2  C_2
    1.66460711    1.21076647    2.12546263   1       3  C_2
    2.05815296    0.00000047    2.84514465   1       4  C_2
    0.63688939    1.95916716   -0.00500262   1       5  C_2
   -0.63688894    1.95916590    0.71500218   1       6  C_2
   -0.63688917    1.95916561    2.12499787   1       7  C_2
    0.63688896    1.95916634    2.84500249   1       8  C_2
   -1.66460648    1.21076599   -0.00453819   1       9  C_2
   -2.05815276    0.00000073    0.71514444   1      10  C_2
   -2.05815258    0.00000022    2.12485528   1      11  C_2
   -1.66460743    1.21076602    2.84453725   1      12  C_2
   -1.66460700   -1.21076524   -0.00453762   1      13  C_2
   -0.63688959   -1.95916680    0.71500261   1      14  C_2
   -0.63688943   -1.95916713    2.12499762   1      15  C_2
   -1.66460732   -1.21076587    2.84453747   1      16  C_2
    0.63688916   -1.95916651   -0.00500246   1      17  C_2
    1.66460721   -1.21076640    0.71453747   1      18  C_2
    1.66460716   -1.21076570    2.12546235   1      19  C_2
    0.63688907   -1.95916543    2.84500187   1      20  C_2

superc: Internal auxiliary supercell:     1 x     1 x     5  =       5
superc: Number of atoms, orbitals, and projectors:    100   1300   1600

outcell: Unit cell vectors (Ang):
       25.000000    0.000000    0.000000
      -12.500000   21.650635    0.000000
        0.000000    0.000000    4.260000

outcell: Cell vector modules (Ang)   :   25.000000   25.000000    4.260000
outcell: Cell angles (23,13,12) (deg):     90.0000     90.0000    120.0000
outcell: Cell volume (Ang**3)        :   2305.7926
<dSpData1D:S at geom step 0
  <sparsity:sparsity for geom step 0
    nrows_g=260 nrows=48 sparsity=.3846 nnzs=25996, refcount: 7>
  <dData1D:(new from dSpData1D) n=25996, refcount: 1>
refcount: 1>
new_DM -- step:     1
Initializing Density Matrix...

Attempting to read DM from file... Failed...
DM filled with atomic data:
<dSpData2D:DM initialized from atoms
  <sparsity:sparsity for geom step 0
    nrows_g=260 nrows=48 sparsity=.3846 nnzs=25996, refcount: 8>
  <dData2D:DM n=25996 m=1, refcount: 1>
refcount: 1>
No. of atoms with KB's overlaping orbs in proc 0. Max # of overlaps:      48     183
New grid distribution:   1
           1       1:  120    1:   60    1:    6
           2       1:  120    1:   60    7:   12
           3       1:  120    1:   60   13:   18
           4       1:  120    1:   60   19:   24
           5       1:  120   61:  120    1:    6
           6       1:  120   61:  120    7:   12
           7       1:  120   61:  120   13:   18
           8       1:  120   61:  120   19:   24

InitMesh: MESH =   240 x   240 x    48 =     2764800
InitMesh: (bp) =   120 x   120 x    24 =      345600
InitMesh: Mesh cutoff (required, used) =   300.000   339.612 Ry
ExtMesh (bp) on 0 =   192 x   132 x    82 =     2078208
New grid distribution:   2
           1      13:  120    7:   19    1:   24
           2       1:  108  115:  120    1:   24
           3      13:  120    1:    6    1:   24
           4       1:   12    1:    7    1:   24
           5       1:  108   20:  114    1:   24
           6     109:  120   20:  113    1:   24
           7       1:   12    8:   19    1:   24
           8     109:  120  114:  120    1:   24
New grid distribution:   3
           1      22:  120   11:   29    1:   24
           2       1:   99  111:  120    1:   24
           3      22:  120    1:   10    1:   24
           4       1:   21    1:   14    1:   24
           5       1:   99   30:  110    1:   24
           6     100:  120   30:  106    1:   24
           7       1:   21   15:   29    1:   24
           8     100:  120  107:  120    1:   24
Setting up quadratic distribution...
ExtMesh (bp) on 0 =   180 x    85 x   100 =     1530000
PhiOnMesh: Number of (b)points on node 0 =                33696
PhiOnMesh: nlist on node 0 =               350800

stepf: Fermi-Dirac step function

siesta: Program's energy decomposition (eV):
siesta: Ebs     =      -943.441594
siesta: Eions   =      6322.689628
siesta: Ena     =      2076.476941
siesta: Ekin    =      2335.780882
siesta: Enl     =      -103.016727
siesta: Eso     =         0.000000
siesta: Eldau   =         0.000000
siesta: DEna    =      -141.734120
siesta: DUscf   =         9.966323
siesta: DUext   =         0.000000
siesta: Enegf   =         0.000000
siesta: Exc     =      -947.337467
siesta: eta*DQ  =         0.000000
siesta: Emadel  =         0.000000
siesta: Emeta   =         0.000000
siesta: Emolmec =         0.000000
siesta: Ekinion =         0.000000
siesta: Eharris =     -3060.977000
siesta: Etot    =     -3092.553795
siesta: FreeEng =     -3092.567251

        iscf     Eharris(eV)        E_KS(eV)     FreeEng(eV)     dDmax    Ef(eV) dHmax(eV)
   scf:    1    -3060.977000    -3092.553795    -3092.567251  0.741926 -6.557099  4.242417
timer: Routine,Calls,Time,% = IterSCF        1       3.816  59.36
   scf:    2    -3094.135168    -3093.373091    -3093.386160  0.053404 -6.110614  3.059033
   scf:    3    -3095.080501    -3094.386087    -3094.399470  0.158084 -5.066566  0.252989
   scf:    4    -3094.532345    -3094.480456    -3094.493717  0.013080 -5.063243  0.223583
   scf:    5    -3094.495493    -3094.489483    -3094.502739  0.014111 -4.994727  0.048173
   scf:    6    -3094.490117    -3094.489803    -3094.503048  0.001291 -5.002915  0.038241
   scf:    7    -3094.491507    -3094.490781    -3094.503935  0.004990 -5.038348  0.006822
   scf:    8    -3094.490815    -3094.490803    -3094.503950  0.000362 -5.041067  0.004426
   scf:    9    -3094.490818    -3094.490812    -3094.503956  0.000232 -5.043190  0.002179
   scf:   10    -3094.490808    -3094.490810    -3094.503958  0.000073 -5.043180  0.001001
   scf:   11    -3094.490807    -3094.490809    -3094.503958  0.000031 -5.043220  0.000431

SCF Convergence by DM+H criterion
max |DM_out - DM_in|         :     0.0000305276
max |H_out - H_in|      (eV) :     0.0004314501
SCF cycle converged after 11 iterations

Using DM_out to compute the final energy and forces
No. of atoms with KB's overlaping orbs in proc 0. Max # of overlaps:      48     183

siesta: E_KS(eV) =            -3094.4908

siesta: E_KS - E_eggbox =     -3094.4908

siesta: Atomic forces (eV/Ang):
     1   -0.377673    0.000004    0.034049
     2   -0.299458   -0.251405    0.000815
     3   -0.299454   -0.251419   -0.000828
     4   -0.377680   -0.000003   -0.034050
     5   -0.150665   -0.341945    0.022145
     6    0.150668   -0.341931   -0.022129
     7    0.150665   -0.341929    0.022110
     8   -0.150660   -0.341922   -0.022131
     9    0.299436   -0.251400   -0.000797
    10    0.377679   -0.000024   -0.034049
    11    0.377669   -0.000012    0.034043
    12    0.299468   -0.251396    0.000826
    13    0.299458    0.251396   -0.000815
    14    0.150673    0.341936   -0.022144
    15    0.150660    0.341946    0.022123
    16    0.299463    0.251408    0.000819
    17   -0.150673    0.341947    0.022135
    18   -0.299461    0.251414    0.000821
    19   -0.299459    0.251403   -0.000825
    20   -0.150667    0.341922   -0.022109
----------------------------------------
   Tot   -0.000008   -0.000010    0.000009
----------------------------------------
   Max    0.377680
   Res    0.220571    sqrt( Sum f_i^2 / 3N )
----------------------------------------
   Max    0.377680    constrained

Stress-tensor-Voigt (kbar):        5.47        5.56        5.75       -0.00        0.00        0.00
(Free)E + p*V (eV/cell)    -3102.5508
Target enthalpy (eV/cell)    -3094.5040

mulliken: Atomic and Orbital Populations:

Species: C_2                 
Atom  Qatom  Qorb
               2s      2s      2py     2pz     2px     2py     2pz     2px     
               3dxy    3dyz    3dz2    3dxz    3dx2-y2 
   1  4.002   1.031   0.258   0.422   0.393   0.732   0.396   0.442   0.168
              0.031   0.043   0.029   0.034   0.022
   2  3.999   1.032   0.258   0.528   0.392   0.624   0.317   0.443   0.247
              0.022   0.040   0.029   0.037   0.030
   3  3.999   1.032   0.258   0.528   0.392   0.624   0.317   0.443   0.247
              0.022   0.040   0.029   0.037   0.030
   4  4.002   1.031   0.258   0.422   0.393   0.732   0.396   0.442   0.168
              0.031   0.043   0.029   0.034   0.022
   5  4.000   1.032   0.258   0.702   0.392   0.451   0.190   0.443   0.374
              0.028   0.035   0.030   0.042   0.025
   6  4.000   1.032   0.258   0.702   0.392   0.451   0.190   0.443   0.374
              0.028   0.035   0.030   0.042   0.025
   7  4.000   1.032   0.258   0.702   0.392   0.451   0.190   0.443   0.374
              0.028   0.035   0.030   0.042   0.025
   8  4.000   1.032   0.258   0.702   0.392   0.451   0.190   0.443   0.374
              0.028   0.035   0.030   0.042   0.025
   9  3.999   1.032   0.258   0.528   0.392   0.624   0.317   0.443   0.247
              0.022   0.040   0.029   0.037   0.030
  10  4.002   1.031   0.258   0.422   0.393   0.732   0.396   0.442   0.168
              0.031   0.043   0.029   0.034   0.022
  11  4.002   1.031   0.258   0.422   0.393   0.732   0.396   0.442   0.168
              0.031   0.043   0.029   0.034   0.022
  12  3.999   1.032   0.258   0.528   0.392   0.624   0.317   0.443   0.247
              0.022   0.040   0.029   0.037   0.030
  13  3.999   1.032   0.258   0.528   0.392   0.624   0.317   0.443   0.247
              0.022   0.040   0.029   0.037   0.030
  14  4.000   1.032   0.258   0.702   0.392   0.451   0.190   0.443   0.374
              0.028   0.035   0.030   0.042   0.025
  15  4.000   1.032   0.258   0.702   0.392   0.451   0.190   0.443   0.374
              0.028   0.035   0.030   0.042   0.025
  16  3.999   1.032   0.258   0.528   0.392   0.624   0.317   0.443   0.247
              0.022   0.040   0.029   0.037   0.030
  17  4.000   1.032   0.258   0.702   0.392   0.451   0.190   0.443   0.374
              0.028   0.035   0.030   0.042   0.025
  18  3.999   1.032   0.258   0.528   0.392   0.624   0.317   0.443   0.247
              0.022   0.040   0.029   0.037   0.030
  19  3.999   1.032   0.258   0.528   0.392   0.624   0.317   0.443   0.247
              0.022   0.040   0.029   0.037   0.030
  20  4.000   1.032   0.258   0.702   0.392   0.451   0.190   0.443   0.374
              0.028   0.035   0.030   0.042   0.025

mulliken: Qtot =       80.000

siesta: Eigenvalues (eV):
  ik is    eps
   1  1 -24.19 -23.19 -23.19 -20.80 -20.79 -18.92 -18.00 -18.00 -17.99 -17.80
        -17.79 -17.34 -17.33 -15.75 -15.74 -14.49 -14.48 -13.40 -13.40 -12.78
        -12.76 -12.67 -12.15 -12.14 -11.53 -11.53 -11.32  -9.47  -9.47  -8.68
         -8.68  -7.90  -7.89  -7.71  -7.42  -6.73  -5.84  -5.47  -5.47  -5.00
         -4.99  -4.48  -4.48  -2.72  -2.70   0.09   0.70   0.71   1.72   1.73
          2.21   2.39   2.60   3.11   3.11   4.82   4.82   5.54   5.56   5.70
          6.31   6.31   6.43   6.44   6.90   6.90   7.07   7.07   7.76   7.78
          8.39   8.39   8.50   8.55   8.57   9.32   9.76   9.78  10.72  10.72
         11.39  11.41  11.55  11.62  11.62  12.11  12.13  12.36  12.37  12.43
         13.16  13.44  13.46  13.84  13.84  13.85  13.87  13.93  14.41  14.42
         14.67  14.68  15.22  15.22  15.31  15.59  16.32  16.33  16.35  16.50
         16.50  16.68  16.68  17.32  17.53  17.53  17.73  17.74  17.78  18.07
         18.07  19.59  20.72  20.73  22.78  22.78  23.23  23.52  23.55  23.58
         23.88  25.22  25.22  26.27  26.28  26.55  26.55  28.18  28.20  28.21
         28.21  29.15  29.16  29.91  29.91  30.87  30.87  30.87  30.89  31.05
         31.85  32.01  32.03  33.93  33.94  34.52  34.52  34.93  34.94  35.27
         36.26  36.26  36.37  36.38  36.57  36.58  37.00  37.93  38.59  38.62
         39.35  40.65  40.96  40.96  41.04  41.04  41.09  41.11  41.29  42.31
         42.34  43.27  43.28  44.89  44.90  45.32  45.36  46.05  46.06  46.37
         48.34  48.38  50.46  50.50  51.91  51.92  52.47  52.49  52.54  52.54
         54.16  54.20  56.68  56.68  57.96  57.97  59.45  60.33  60.60  61.12
         65.01  65.04  69.99  70.00  71.68  73.56  74.10  76.24  76.27  81.20
         81.30  82.18  85.38  85.49  87.72  87.76  92.11  96.09  96.12 103.38
        107.50 115.80 115.82 117.07 117.08 120.46 120.55 120.83 120.84 123.55
        123.57 125.36 125.38 126.49 128.43 128.48 138.37 138.59 149.46 150.40
        150.43 154.99 159.99 160.13 164.52 164.80 167.90 167.90 183.85 183.85
   2  1 -24.19 -23.19 -23.18 -20.80 -20.78 -19.01 -18.10 -18.10 -17.90 -17.80
        -17.79 -17.23 -17.22 -15.80 -15.79 -14.43 -14.43 -13.39 -13.39 -12.85
        -12.83 -12.67 -12.08 -12.07 -11.53 -11.53 -11.32  -9.49  -9.49  -8.68
         -8.68  -7.90  -7.89  -7.73  -7.43  -6.80  -5.77  -5.54  -5.54  -5.01
         -5.00  -4.42  -4.41  -2.71  -2.70   0.07   0.69   0.70   1.71   1.72
          2.24   2.40   2.59   3.11   3.11   4.83   4.83   5.49   5.52   5.71
          6.31   6.31   6.46   6.46   6.90   6.90   7.08   7.08   7.74   7.76
          8.39   8.40   8.40   8.60   8.62   9.42   9.74   9.76  10.69  10.69
         11.39  11.40  11.56  11.59  11.59  12.10  12.12  12.27  12.27  12.41
         13.15  13.48  13.50  13.86  13.87  13.91  13.91  13.92  14.38  14.38
         14.71  14.72  15.24  15.25  15.29  15.61  16.28  16.33  16.34  16.46
         16.46  16.75  16.75  17.36  17.52  17.52  17.65  17.66  17.79  18.11
         18.11  19.53  20.71  20.72  22.81  22.81  23.31  23.52  23.54  23.61
         23.85  25.22  25.22  26.26  26.27  26.53  26.53  28.21  28.21  28.21
         28.23  29.08  29.08  29.87  29.87  30.87  30.87  30.88  30.90  30.99
         31.67  32.03  32.05  33.93  33.93  34.33  34.33  34.95  34.97  35.26
         35.95  35.95  36.53  36.54  36.86  36.87  37.24  37.84  38.47  38.49
         39.39  40.66  40.91  40.91  41.01  41.04  41.20  41.20  41.32  42.25
         42.28  43.27  43.28  44.75  44.76  45.38  45.43  46.15  46.16  46.35
         48.22  48.26  50.40  50.43  52.05  52.06  52.08  52.08  52.52  52.54
         54.69  54.73  56.42  56.42  58.06  58.07  58.83  60.46  61.12  61.13
         65.18  65.20  69.98  69.99  71.45  73.50  74.15  76.41  76.45  81.15
         81.25  82.01  85.22  85.33  87.74  87.78  91.97  96.19  96.22 103.37
        107.34 114.33 114.33 115.53 115.55 120.14 120.23 123.21 123.23 123.24
        123.25 125.27 125.29 126.23 128.49 128.53 138.15 138.37 148.88 150.38
        150.41 152.28 159.61 159.76 164.28 164.56 167.30 167.31 183.21 183.21
   3  1 -24.18 -23.18 -23.17 -20.79 -20.78 -19.15 -18.26 -18.25 -17.80 -17.79
        -17.74 -17.06 -17.06 -15.88 -15.87 -14.33 -14.33 -13.38 -13.38 -12.96
        -12.95 -12.66 -11.97 -11.97 -11.53 -11.53 -11.31  -9.53  -9.53  -8.66
         -8.66  -7.89  -7.88  -7.76  -7.46  -6.92  -5.65  -5.65  -5.64  -5.02
         -5.01  -4.31  -4.31  -2.70  -2.69   0.05   0.67   0.68   1.69   1.69
          2.28   2.43   2.59   3.10   3.10   4.86   4.86   5.42   5.44   5.74
          6.31   6.31   6.51   6.51   6.89   6.90   7.09   7.09   7.69   7.72
          8.23   8.41   8.41   8.69   8.71   9.57   9.70   9.71  10.63  10.63
         11.37  11.38  11.52  11.52  11.57  12.08  12.09  12.10  12.11  12.36
         13.13  13.54  13.56  13.87  13.89  13.89  14.02  14.03  14.31  14.32
         14.78  14.79  15.26  15.30  15.30  15.64  16.22  16.32  16.34  16.44
         16.44  16.85  16.86  17.45  17.52  17.52  17.54  17.54  17.82  18.16
         18.16  19.42  20.70  20.71  22.86  22.87  23.46  23.51  23.54  23.67
         23.80  25.22  25.22  26.25  26.26  26.50  26.50  28.20  28.21  28.27
         28.29  28.94  28.94  29.78  29.79  30.86  30.86  30.88  30.89  30.91
         31.35  32.07  32.09  33.92  33.92  34.03  34.03  35.00  35.02  35.24
         35.64  35.64  36.73  36.74  37.15  37.15  37.67  37.69  38.30  38.32
         39.48  40.67  40.81  40.81  40.87  40.90  41.40  41.47  41.47  42.13
         42.16  43.26  43.27  44.54  44.55  45.51  45.55  46.28  46.29  46.30
         48.01  48.04  50.30  50.33  51.48  51.49  52.36  52.36  52.62  52.63
         55.39  55.42  55.99  55.99  58.18  58.21  58.28  60.17  61.15  62.05
         65.48  65.50  69.98  69.99  71.01  73.39  74.23  76.76  76.80  81.06
         81.15  81.67  84.92  85.02  87.78  87.82  91.70  96.40  96.43 103.34
        107.04 111.43 111.44 115.01 115.03 119.53 119.62 122.38 122.41 124.63
        124.67 125.25 125.26 125.71 129.43 129.44 137.71 137.93 147.29 147.76
        150.35 150.37 158.89 159.04 163.82 164.10 166.12 166.13 181.96 181.97
   4  1 -24.16 -23.16 -23.16 -20.77 -20.76 -19.32 -18.43 -18.43 -17.80 -17.79
        -17.55 -16.88 -16.87 -15.99 -15.97 -14.21 -14.20 -13.36 -13.35 -13.09
        -13.08 -12.65 -11.85 -11.85 -11.53 -11.53 -11.29  -9.59  -9.59  -8.64
         -8.64  -7.87  -7.86  -7.81  -7.50  -7.06  -5.78  -5.78  -5.52  -5.05
         -5.04  -4.18  -4.18  -2.69  -2.68   0.01   0.64   0.65   1.65   1.65
          2.35   2.48   2.58   3.09   3.09   4.89   4.90   5.30   5.33   5.78
          6.31   6.32   6.58   6.58   6.89   6.90   7.11   7.11   7.63   7.65
          8.03   8.42   8.42   8.81   8.84   9.64   9.66   9.74  10.55  10.55
         11.35  11.36  11.42  11.43  11.60  11.87  11.88  12.06  12.09  12.28
         13.10  13.64  13.65  13.85  13.89  13.91  14.16  14.16  14.22  14.22
         14.88  14.89  15.21  15.37  15.37  15.68  16.13  16.32  16.34  16.44
         16.45  16.97  16.98  17.39  17.40  17.52  17.52  17.55  17.86  18.20
         18.20  19.26  20.68  20.69  22.94  22.95  23.50  23.53  23.67  23.72
         23.75  25.22  25.22  26.23  26.24  26.44  26.44  28.19  28.19  28.35
         28.37  28.74  28.75  29.66  29.67  30.70  30.83  30.84  30.91  30.93
         30.96  32.14  32.16  33.69  33.70  33.90  33.91  35.07  35.09  35.21
         35.32  35.33  36.87  36.88  37.41  37.42  37.49  38.17  38.19  38.24
         39.58  40.66  40.67  40.68  40.69  40.70  41.50  41.79  41.80  41.96
         41.99  43.24  43.25  44.30  44.31  45.66  45.69  46.22  46.35  46.36
         47.74  47.77  50.20  50.23  50.92  50.92  52.74  52.74  52.75  52.75
         55.46  55.46  56.15  56.19  57.73  58.35  58.36  59.76  61.18  63.10
         65.83  65.86  70.02  70.03  70.36  73.26  74.33  77.29  77.33  80.93
         81.02  81.18  84.48  84.59  87.83  87.87  91.31  96.72  96.75 103.30
        106.57 108.59 108.59 114.30 114.32 118.66 118.75 121.03 121.07 124.29
        124.36 124.94 125.29 125.30 131.79 131.82 137.07 137.29 140.71 146.14
        150.29 150.30 157.87 158.03 163.16 163.43 164.40 164.42 180.16 180.17
   5  1 -24.14 -23.15 -23.14 -20.76 -20.74 -19.50 -18.61 -18.61 -17.80 -17.79
        -17.34 -16.68 -16.68 -16.10 -16.09 -14.06 -14.05 -13.33 -13.33 -13.23
        -13.22 -12.63 -11.73 -11.72 -11.53 -11.53 -11.27  -9.66  -9.65  -8.63
         -8.63  -7.88  -7.86  -7.85  -7.55  -7.22  -5.93  -5.93  -5.37  -5.08
         -5.07  -4.03  -4.03  -2.68  -2.66  -0.03   0.59   0.60   1.60   1.60
          2.45   2.55   2.58   3.08   3.09   4.94   4.94   5.17   5.19   5.83
          6.32   6.32   6.67   6.67   6.90   6.90   7.13   7.13   7.54   7.56
          7.83   8.43   8.43   8.96   8.99   9.58   9.59   9.91  10.44  10.44
         11.30  11.30  11.32  11.33  11.62  11.63  11.63  12.03  12.06  12.19
         13.04  13.75  13.76  13.81  13.91  13.93  14.10  14.10  14.30  14.30
         15.01  15.02  15.15  15.45  15.45  15.73  16.04  16.33  16.35  16.47
         16.48  17.10  17.11  17.23  17.24  17.52  17.52  17.68  17.91  18.24
         18.24  19.08  20.66  20.67  23.04  23.05  23.49  23.51  23.62  23.86
         23.92  25.21  25.21  26.21  26.21  26.38  26.38  28.17  28.17  28.46
         28.48  28.50  28.51  29.51  29.52  30.39  30.61  30.79  30.79  30.92
         30.94  32.23  32.25  33.36  33.36  33.88  33.88  35.02  35.02  35.15
         35.16  35.18  36.83  36.84  37.25  37.67  37.68  38.20  38.21  38.88
         39.68  40.45  40.47  40.49  40.49  40.72  41.63  41.75  41.77  42.15
         42.15  43.19  43.20  44.06  44.07  45.78  45.81  46.13  46.31  46.33
         47.45  47.48  50.15  50.18  50.43  50.43  52.89  52.90  53.20  53.21
         54.87  54.88  56.95  56.99  57.26  58.51  58.52  59.25  61.21  64.26
         66.17  66.20  69.52  70.16  70.17  73.12  74.45  78.01  78.04  80.54
         80.78  80.88  83.93  84.04  87.87  87.91  90.81  97.17  97.20 103.25
        105.85 105.85 105.94 113.43 113.45 117.58 117.66 119.24 119.28 123.08
        123.15 123.93 125.34 125.35 133.32 134.75 134.79 136.24 136.45 144.10
        150.20 150.20 156.63 156.81 162.17 162.21 162.37 162.62 177.89 177.90
   6  1 -24.12 -23.12 -23.12 -20.73 -20.72 -19.69 -18.80 -18.79 -17.81 -17.80
        -17.13 -16.48 -16.48 -16.22 -16.21 -13.90 -13.89 -13.38 -13.37 -13.29
        -13.29 -12.61 -11.60 -11.59 -11.53 -11.53 -11.25  -9.73  -9.73  -8.61
         -8.61  -7.96  -7.83  -7.82  -7.61  -7.39  -6.09  -6.09  -5.21  -5.11
         -5.10  -3.88  -3.88  -2.65  -2.64  -0.09   0.54   0.55   1.54   1.55
          2.56   2.57   2.62   3.08   3.08   5.00   5.00   5.02   5.04   5.89
          6.33   6.33   6.77   6.77   6.91   6.91   7.13   7.13   7.44   7.46
          7.62   8.45   8.45   9.13   9.15   9.53   9.53  10.07  10.31  10.31
         11.16  11.16  11.28  11.29  11.36  11.36  11.67  12.00  12.02  12.07
         12.95  13.78  13.88  13.89  13.93  13.95  13.96  13.96  14.44  14.44
         15.07  15.15  15.16  15.53  15.53  15.79  15.94  16.34  16.36  16.53
         16.54  17.06  17.07  17.24  17.25  17.54  17.54  17.82  17.98  18.27
         18.28  18.87  20.63  20.64  23.15  23.15  23.48  23.50  23.51  23.99
         24.22  25.21  25.21  26.17  26.17  26.30  26.30  28.14  28.14  28.23
         28.23  28.59  28.61  29.34  29.35  29.94  30.36  30.72  30.73  30.93
         30.94  32.34  32.36  33.04  33.05  33.85  33.86  34.72  34.73  35.13
         35.23  35.25  36.63  36.64  36.98  37.92  37.92  38.35  38.36  39.57
         39.79  40.19  40.20  40.29  40.30  40.75  41.49  41.52  41.77  42.51
         42.51  43.11  43.12  43.83  43.84  45.83  45.85  46.02  46.13  46.15
         47.18  47.20  50.03  50.03  50.20  50.22  53.07  53.08  53.70  53.71
         54.27  54.27  56.82  57.80  57.84  58.63  58.68  58.69  61.24  65.54
         66.43  66.45  68.52  70.45  70.46  72.95  74.57  78.90  78.94  79.77
         80.63  80.72  83.29  83.40  87.89  87.92  90.22  97.76  97.79 103.20
        103.24 103.24 105.14 112.45 112.46 116.33 116.41 117.08 117.12 121.44
        121.51 122.70 125.33 125.33 125.81 135.22 135.44 137.86 137.91 141.74
        150.02 150.04 155.27 155.48 159.56 159.59 161.43 161.68 175.24 175.25
   7  1 -24.09 -23.10 -23.09 -20.71 -20.70 -19.87 -18.98 -18.97 -17.81 -17.81
        -16.91 -16.34 -16.33 -16.28 -16.27 -13.72 -13.72 -13.53 -13.52 -13.25
        -13.25 -12.58 -11.54 -11.53 -11.47 -11.47 -11.22  -9.81  -9.81  -8.61
         -8.61  -8.05  -7.81  -7.80  -7.69  -7.56  -6.26  -6.26  -5.16  -5.15
         -5.06  -3.72  -3.72  -2.63  -2.61  -0.16   0.48   0.49   1.47   1.48
          2.57   2.69   2.72   3.07   3.07   4.85   4.87   5.07   5.08   5.97
          6.34   6.35   6.89   6.89   6.93   6.93   7.09   7.10   7.38   7.39
          7.41   8.47   8.48   9.30   9.33   9.48   9.48  10.16  10.16  10.22
         11.01  11.01  11.08  11.08  11.24  11.25  11.71  11.93  11.96  11.99
         12.83  13.76  13.80  13.80  13.94  13.96  14.02  14.03  14.58  14.58
         14.98  15.29  15.30  15.60  15.60  15.85  15.86  16.38  16.39  16.61
         16.62  16.89  16.89  17.38  17.39  17.57  17.57  17.96  18.07  18.30
         18.31  18.65  20.60  20.60  23.26  23.26  23.38  23.47  23.49  24.15
         24.54  25.20  25.20  26.13  26.13  26.22  26.22  27.92  27.93  28.09
         28.10  28.74  28.76  29.13  29.14  29.45  30.12  30.64  30.65  30.93
         30.94  32.46  32.48  32.76  32.78  33.83  33.84  34.45  34.45  35.08
         35.32  35.33  36.36  36.37  36.69  38.15  38.15  38.54  38.55  39.89
         39.91  39.93  40.08  40.08  40.27  40.80  41.21  41.23  41.93  42.86
         42.87  42.98  42.99  43.60  43.61  45.75  45.77  45.82  45.84  45.89
         46.95  46.98  49.71  49.72  50.39  50.41  53.28  53.29  53.66  53.67
         54.24  54.25  56.40  57.95  58.69  58.74  58.86  58.87  61.26  66.57
         66.59  66.91  67.42  70.91  70.92  72.77  74.70  78.90  79.96  80.00
         80.47  80.57  82.56  82.67  87.87  87.90  89.56  98.48  98.52 100.79
        100.79 103.15 104.15 111.35 111.36 114.66 114.69 114.99 115.07 118.67
        119.54 119.61 121.28 125.22 125.22 134.03 134.25 139.15 140.98 141.04
        149.70 149.75 153.93 154.17 156.58 156.62 160.43 160.68 172.32 172.33
   8  1 -24.06 -23.06 -23.06 -20.67 -20.66 -20.06 -19.16 -19.15 -17.83 -17.82
        -16.68 -16.45 -16.44 -16.07 -16.07 -13.68 -13.67 -13.55 -13.54 -13.20
        -13.20 -12.56 -11.55 -11.54 -11.35 -11.34 -11.18  -9.89  -9.88  -8.61
         -8.61  -8.16  -7.77  -7.77  -7.76  -7.73  -6.43  -6.43  -5.21  -5.20
         -4.90  -3.56  -3.56  -2.60  -2.59  -0.24   0.41   0.42   1.39   1.40
          2.57   2.82   2.85   3.08   3.08   4.68   4.70   5.16   5.16   6.06
          6.36   6.36   6.95   6.95   6.97   6.98   7.01   7.01   7.20   7.38
          7.39   8.50   8.50   9.44   9.44   9.48   9.50   9.99   9.99  10.36
         10.80  10.81  10.84  10.84  11.20  11.21  11.76  11.78  11.92  11.95
         12.67  13.62  13.62  13.75  13.94  13.96  14.16  14.17  14.71  14.71
         14.88  15.42  15.43  15.64  15.64  15.75  15.92  16.45  16.46  16.72
         16.73  16.73  16.73  17.53  17.54  17.63  17.63  18.12  18.17  18.33
         18.34  18.42  20.56  20.56  23.24  23.37  23.37  23.46  23.48  24.34
         24.89  25.19  25.19  26.07  26.07  26.13  26.13  27.60  27.60  28.03
         28.04  28.89  28.91  28.91  28.92  28.96  29.88  30.56  30.56  30.92
         30.93  32.53  32.55  32.59  32.61  33.81  33.81  34.20  34.20  35.01
         35.39  35.40  36.06  36.07  36.37  38.35  38.36  38.71  38.72  39.63
         39.64  39.85  39.86  39.98  40.85  40.90  40.93  40.95  42.08  42.81
         42.82  43.21  43.21  43.37  43.38  45.41  45.43  45.54  45.55  45.76
         46.79  46.82  49.44  49.44  50.72  50.73  53.08  53.08  53.55  53.55
         54.79  54.81  55.99  57.20  59.07  59.08  59.64  59.69  61.21  66.31
         66.64  66.66  68.38  71.50  71.51  72.57  74.84  77.95  80.32  80.42
         81.19  81.23  81.74  81.86  87.80  87.82  88.86  98.51  98.53  99.36
         99.39 102.99 103.11 110.08 110.10 112.13 112.14 112.23 113.61 113.67
        117.48 117.55 119.68 124.97 124.97 132.70 132.91 136.42 144.04 144.11
        149.09 149.15 152.83 153.09 153.33 153.38 159.43 159.66 169.22 169.23
   9  1 -24.02 -23.03 -23.02 -20.64 -20.63 -20.24 -19.34 -19.33 -17.85 -17.85
        -16.54 -16.54 -16.44 -15.87 -15.86 -13.83 -13.82 -13.37 -13.36 -13.15
        -13.14 -12.52 -11.56 -11.56 -11.24 -11.23 -11.14  -9.96  -9.96  -8.63
         -8.63  -8.27  -7.91  -7.86  -7.74  -7.73  -6.60  -6.59  -5.27  -5.26
         -4.74  -3.40  -3.40  -2.56  -2.55  -0.33   0.33   0.34   1.31   1.31
          2.57   2.94   3.02   3.09   3.09   4.51   4.53   5.25   5.25   6.15
          6.38   6.39   6.80   6.80   6.98   6.98   6.99   7.14   7.15   7.43
          7.43   8.53   8.53   9.41   9.41   9.65   9.67   9.81   9.81  10.47
         10.53  10.53  10.66  10.67  11.15  11.17  11.61  11.82  11.88  11.91
         12.49  13.44  13.45  13.76  13.93  13.94  14.30  14.31  14.77  14.84
         14.84  15.52  15.54  15.65  15.65  15.67  15.99  16.56  16.57  16.57
         16.58  16.85  16.85  17.69  17.70  17.72  17.72  18.19  18.28  18.30
         18.36  18.36  20.51  20.52  23.10  23.45  23.46  23.46  23.47  24.54
         25.17  25.17  25.26  25.99  25.99  26.03  26.03  27.26  27.27  27.97
         27.97  28.47  28.66  28.67  29.05  29.07  29.64  30.48  30.48  30.90
         30.91  32.36  32.37  32.71  32.73  33.79  33.79  33.97  33.97  34.95
         35.46  35.47  35.76  35.77  36.04  38.52  38.53  38.85  38.86  39.35
         39.36  39.62  39.63  40.08  40.60  40.62  40.91  41.57  42.25  42.60
         42.60  43.13  43.14  43.52  43.53  44.98  44.99  45.21  45.21  45.61
         46.71  46.74  49.17  49.17  51.13  51.14  52.52  52.52  53.89  53.89
         55.36  55.37  55.57  56.40  59.31  59.32  60.65  60.69  61.02  65.35
         66.67  66.69  69.91  72.18  72.20  72.36  75.00  76.95  80.18  80.28
         80.84  80.96  82.55  82.59  87.65  87.68  88.12  96.45  96.46 100.38
        100.42 101.64 103.09 106.58 108.32 108.35 109.88 109.90 112.23 112.29
        115.33 115.39 117.92 124.57 124.57 131.23 131.44 133.63 146.97 147.05
        148.07 148.12 149.90 149.96 152.17 152.42 158.48 158.70 166.05 166.06
  10  1 -23.98 -22.99 -22.98 -20.60 -20.59 -20.42 -19.51 -19.51 -17.89 -17.88
        -16.62 -16.62 -16.21 -15.66 -15.66 -13.98 -13.97 -13.19 -13.18 -13.08
        -13.08 -12.49 -11.58 -11.58 -11.12 -11.12 -11.10 -10.03 -10.03  -8.65
         -8.65  -8.40  -8.08  -7.96  -7.70  -7.69  -6.77  -6.76  -5.33  -5.32
         -4.59  -3.24  -3.23  -2.53  -2.52  -0.42   0.24   0.25   1.21   1.22
          2.58   3.07   3.11   3.12   3.21   4.34   4.36   5.35   5.35   6.26
          6.41   6.41   6.60   6.60   6.79   7.01   7.02   7.28   7.28   7.49
          7.49   8.57   8.57   9.39   9.39   9.61   9.61   9.81   9.83  10.26
         10.26  10.49  10.49  10.56  11.11  11.12  11.43  11.84  11.87  11.88
         12.28  13.26  13.26  13.78  13.89  13.90  14.44  14.44  14.66  14.96
         14.97  15.59  15.60  15.62  15.63  15.63  16.05  16.44  16.45  16.72
         16.73  16.99  17.00  17.83  17.83  17.85  17.86  17.95  18.38  18.39
         18.43  18.45  20.47  20.47  22.96  23.45  23.47  23.53  23.53  24.77
         25.14  25.14  25.64  25.89  25.89  25.91  25.92  26.92  26.93  27.91
         27.91  27.98  28.40  28.41  29.21  29.23  29.41  30.39  30.40  30.88
         30.88  32.24  32.25  32.83  32.84  33.77  33.77  33.77  33.78  34.87
         35.48  35.48  35.51  35.52  35.70  38.64  38.64  38.95  38.96  39.08
         39.09  39.39  39.39  40.16  40.32  40.35  40.98  42.05  42.35  42.36
         42.46  42.83  42.85  43.81  43.82  44.58  44.60  44.80  44.80  45.46
         46.72  46.74  48.88  48.89  51.59  51.60  52.00  52.01  54.33  54.34
         55.14  55.57  55.92  55.94  59.59  59.60  60.56  61.70  61.75  64.74
         66.71  66.73  71.47  72.13  72.92  72.93  75.17  75.96  79.84  79.95
         80.04  80.14  84.01  84.05  87.36  87.43  87.45  94.59  94.60 100.13
        101.54 101.58 101.82 103.09 105.76 105.80 108.28 108.30 110.91 110.97
        113.16 113.21 116.04 124.02 124.02 129.64 129.85 130.85 146.35 146.42
        146.75 146.75 149.68 149.77 151.89 152.10 157.68 157.88 162.89 162.91
  11  1 -23.94 -22.94 -22.94 -20.60 -20.55 -20.54 -19.68 -19.68 -17.93 -17.93
        -16.69 -16.68 -15.97 -15.46 -15.46 -14.13 -14.12 -13.01 -13.01 -13.00
        -13.00 -12.45 -11.61 -11.61 -11.05 -11.02 -11.02 -10.09 -10.09  -8.69
         -8.69  -8.54  -8.25  -8.07  -7.65  -7.64  -6.93  -6.93  -5.40  -5.39
         -4.44  -3.08  -3.07  -2.48  -2.47  -0.53   0.15   0.16   1.11   1.11
          2.59   3.14   3.15   3.22   3.41   4.18   4.20   5.46   5.47   6.38
          6.38   6.38   6.43   6.44   6.60   7.05   7.05   7.41   7.41   7.56
          7.57   8.60   8.61   9.38   9.38   9.39   9.39   9.95   9.97  10.01
         10.02  10.31  10.31  10.63  11.07  11.08  11.23  11.80  11.84  11.94
         12.04  13.08  13.09  13.81  13.82  13.83  14.54  14.57  14.57  15.08
         15.08  15.53  15.58  15.58  15.66  15.67  16.11  16.34  16.35  16.93
         16.93  17.16  17.16  17.72  17.96  17.97  18.02  18.03  18.41  18.42
         18.60  18.62  20.42  20.42  22.83  23.45  23.47  23.58  23.59  25.02
         25.10  25.11  25.76  25.76  25.78  25.78  26.04  26.59  26.60  27.50
         27.87  27.87  28.11  28.12  29.20  29.37  29.38  30.32  30.32  30.84
         30.84  32.17  32.18  32.93  32.95  33.60  33.60  33.77  33.78  34.79
         35.21  35.21  35.35  35.55  35.55  38.65  38.66  38.83  38.83  39.00
         39.01  39.14  39.15  40.12  40.13  40.24  41.06  42.10  42.11  42.26
         42.46  42.48  42.81  44.05  44.06  44.29  44.30  44.33  44.34  45.31
         46.81  46.83  48.56  48.56  51.54  51.54  52.04  52.05  54.68  54.71
         54.91  54.92  56.48  56.50  59.80  59.91  59.92  62.81  62.86  64.59
         66.79  66.81  71.89  72.91  73.68  73.69  75.10  75.36  78.73  78.84
         79.90  79.99  85.52  85.57  86.60  87.11  87.13  92.94  92.96  97.87
         98.46 102.81 102.85 102.87 102.95 103.16 106.89 106.90 109.69 109.74
        111.03 111.07 114.05 123.32 123.33 127.94 128.16 128.17 142.79 142.87
        145.26 145.30 151.80 151.92 151.98 152.03 157.24 157.40 159.82 159.84
  12  1 -23.89 -22.89 -22.89 -20.78 -20.51 -20.49 -19.85 -19.85 -18.00 -18.00
        -16.73 -16.72 -15.73 -15.26 -15.26 -14.28 -14.27 -12.93 -12.92 -12.82
        -12.81 -12.41 -11.65 -11.65 -10.99 -10.93 -10.92 -10.15 -10.15  -8.73
         -8.73  -8.69  -8.42  -8.18  -7.61  -7.60  -7.10  -7.10  -5.47  -5.47
         -4.28  -2.92  -2.91  -2.44  -2.43  -0.64   0.06   0.06   1.00   1.00
          2.61   3.19   3.20   3.36   3.63   4.02   4.04   5.58   5.59   6.15
          6.15   6.42   6.47   6.47   6.51   7.09   7.10   7.54   7.54   7.65
          7.65   8.64   8.64   9.15   9.15   9.38   9.39   9.79   9.79  10.07
         10.09  10.13  10.14  10.67  11.02  11.04  11.05  11.77  11.79  11.80
         12.01  12.92  12.92  13.73  13.73  13.84  14.42  14.67  14.67  15.18
         15.18  15.47  15.52  15.52  15.72  15.73  16.16  16.26  16.27  17.16
         17.16  17.33  17.34  17.49  18.12  18.12  18.20  18.21  18.45  18.45
         18.78  18.79  20.37  20.37  22.71  23.46  23.47  23.61  23.61  25.06
         25.06  25.29  25.58  25.58  25.61  25.61  26.29  26.29  26.46  27.03
         27.81  27.82  27.86  27.87  29.00  29.51  29.53  30.25  30.25  30.80
         30.80  32.15  32.16  33.02  33.04  33.46  33.47  33.77  33.78  34.69
         34.95  34.96  34.99  35.56  35.57  38.53  38.54  38.59  38.60  38.90
         38.90  39.00  39.01  40.01  40.02  40.33  41.16  41.85  41.86  42.02
         42.04  42.29  43.17  43.85  43.85  44.12  44.13  44.23  44.24  45.16
         46.97  47.00  48.21  48.21  51.13  51.14  52.46  52.47  53.83  54.18
         55.61  55.62  57.03  57.05  58.91  60.28  60.29  63.97  64.02  64.83
         66.93  66.95  71.63  73.32  74.44  74.45  75.28  75.56  77.51  77.62
         79.73  79.82  85.84  86.68  86.70  87.05  87.10  91.48  91.51  94.65
         96.66 100.01 100.06 103.19 104.16 104.20 105.49 105.49 108.60 108.64
        109.01 109.04 111.98 122.50 122.51 125.60 126.17 126.38 139.30 139.38
        143.81 143.87 151.82 151.97 153.19 153.36 156.89 156.92 157.65 157.74
  13  1 -23.83 -22.84 -22.83 -20.95 -20.45 -20.44 -20.02 -20.02 -18.08 -18.07
        -16.75 -16.75 -15.49 -15.07 -15.06 -14.43 -14.42 -12.84 -12.83 -12.64
        -12.63 -12.37 -11.70 -11.70 -10.93 -10.84 -10.84 -10.19 -10.19  -8.85
         -8.79  -8.79  -8.59  -8.30  -7.56  -7.55  -7.27  -7.26  -5.55  -5.55
         -4.14  -2.76  -2.76  -2.38  -2.38  -0.75  -0.05  -0.04   0.88   0.89
          2.64   3.26   3.26   3.51   3.86   3.88   3.90   5.71   5.71   5.92
          5.92   6.25   6.50   6.51   6.64   7.14   7.14   7.66   7.66   7.74
          7.74   8.66   8.66   8.90   8.90   9.38   9.39   9.59   9.59   9.97
          9.97  10.16  10.19  10.69  10.80  11.01  11.02  11.52  11.73  11.76
         12.07  12.78  12.78  13.60  13.61  13.89  14.30  14.75  14.75  15.22
         15.23  15.44  15.47  15.47  15.79  15.80  16.20  16.22  16.22  17.27
         17.41  17.41  17.52  17.52  18.28  18.28  18.38  18.39  18.48  18.49
         18.97  18.98  20.32  20.32  22.60  23.47  23.48  23.62  23.62  25.00
         25.00  25.33  25.34  25.41  25.41  25.58  26.03  26.04  26.57  26.88
         27.50  27.51  27.90  27.90  28.81  29.64  29.65  30.19  30.19  30.76
         30.76  32.17  32.18  33.09  33.11  33.35  33.36  33.79  33.80  34.59
         34.63  34.73  34.74  35.56  35.57  38.29  38.31  38.38  38.39  38.63
         38.64  38.98  38.99  39.99  40.00  40.41  41.27  41.53  41.55  41.62
         41.63  42.20  43.37  43.37  43.42  44.07  44.07  44.35  44.36  45.02
         47.21  47.24  47.82  47.82  50.79  50.80  52.86  52.87  52.96  53.65
         56.42  56.44  57.58  57.59  58.08  60.70  60.71  65.15  65.20  65.35
         67.15  67.17  71.37  72.60  75.19  75.19  75.79  76.19  76.30  76.60
         79.52  79.61  85.08  86.13  86.15  88.54  88.58  90.17  90.20  92.05
         94.75  97.14  97.19 103.29 104.04 104.04 105.54 105.57 107.16 107.18
        107.65 107.69 109.85 121.58 121.58 123.20 124.32 124.53 135.95 136.05
        142.48 142.57 151.89 152.03 153.36 153.55 154.15 154.18 159.00 159.06
  14  1 -23.77 -22.78 -22.77 -21.11 -20.40 -20.38 -20.18 -20.18 -18.17 -18.16
        -16.75 -16.75 -15.25 -14.87 -14.87 -14.57 -14.56 -12.74 -12.74 -12.46
        -12.45 -12.33 -11.76 -11.76 -10.87 -10.77 -10.76 -10.22 -10.22  -9.01
         -8.85  -8.85  -8.75  -8.42  -7.50  -7.49  -7.43  -7.42  -5.63  -5.63
         -3.99  -2.60  -2.60  -2.33  -2.32  -0.87  -0.15  -0.14   0.76   0.77
          2.67   3.34   3.34   3.66   3.75   3.77   4.11   5.68   5.68   5.84
          5.85   6.10   6.54   6.55   6.79   7.19   7.20   7.76   7.77   7.84
          7.84   8.55   8.55   8.76   8.76   9.38   9.39   9.42   9.42   9.82
          9.82  10.23  10.25  10.58  10.68  10.99  11.00  11.24  11.68  11.71
         12.15  12.68  12.68  13.46  13.46  13.94  14.18  14.78  14.79  15.17
         15.17  15.41  15.51  15.51  15.90  15.91  16.19  16.20  16.23  17.05
         17.68  17.68  17.71  17.71  18.45  18.45  18.52  18.53  18.57  18.58
         19.15  19.19  20.28  20.28  22.50  23.48  23.49  23.60  23.61  24.93
         24.94  25.03  25.04  25.17  25.18  25.82  25.83  25.89  26.12  27.18
         27.19  27.31  27.98  27.99  28.65  29.75  29.76  30.14  30.14  30.71
         30.71  32.22  32.23  33.15  33.16  33.27  33.27  33.82  33.83  34.28
         34.48  34.53  34.53  35.54  35.55  37.98  37.99  38.19  38.20  38.35
         38.36  38.92  38.93  40.00  40.01  40.50  41.04  41.06  41.40  41.42
         41.43  41.98  42.91  42.91  43.57  44.11  44.12  44.40  44.41  44.89
         47.40  47.41  47.53  47.55  50.52  50.53  52.11  53.06  53.27  53.28
         57.31  57.33  57.43  58.11  58.12  61.18  61.20  66.07  66.36  66.42
         67.44  67.45  71.09  71.76  74.81  74.91  75.92  75.93  76.05  77.99
         79.27  79.35  84.32  85.47  85.49  88.95  88.98  89.92  89.92  90.01
         92.77  94.36  94.41 102.51 102.53 103.46 105.52 105.53 106.85 106.88
        106.88 106.91 107.67 120.58 120.59 121.01 122.45 122.65 132.85 132.95
        141.34 141.45 151.61 151.64 152.00 152.11 153.07 153.26 160.60 160.64
  15  1 -23.71 -22.71 -22.71 -21.28 -20.34 -20.34 -20.33 -20.32 -18.27 -18.26
        -16.73 -16.73 -15.01 -14.71 -14.70 -14.68 -14.68 -12.63 -12.63 -12.29
        -12.28 -12.28 -11.84 -11.84 -10.80 -10.70 -10.70 -10.25 -10.25  -9.17
         -8.92  -8.92  -8.91  -8.54  -7.59  -7.58  -7.44  -7.43  -5.71  -5.71
         -3.84  -2.45  -2.44  -2.27  -2.26  -0.99  -0.26  -0.25   0.63   0.64
          2.71   3.44   3.44   3.64   3.65   3.80   4.37   5.45   5.45   5.97
          5.98   5.99   6.59   6.59   6.93   7.25   7.25   7.85   7.86   7.95
          7.95   8.29   8.29   8.72   8.73   9.31   9.31   9.36   9.36   9.70
          9.71  10.26  10.27  10.34  10.64  10.94  10.98  10.99  11.60  11.63
         12.22  12.63  12.63  13.30  13.31  14.00  14.05  14.78  14.79  15.04
         15.04  15.41  15.59  15.59  16.04  16.05  16.18  16.20  16.25  16.83
         17.90  17.90  17.95  17.95  18.57  18.57  18.62  18.62  18.77  18.78
         19.34  19.41  20.24  20.24  22.42  23.50  23.50  23.57  23.57  24.70
         24.70  24.85  24.86  24.91  24.92  25.64  25.64  25.69  26.22  26.85
         26.86  27.75  28.11  28.11  28.50  29.83  29.85  30.10  30.11  30.67
         30.67  32.30  32.31  33.18  33.19  33.21  33.21  33.86  33.87  33.93
         34.34  34.35  34.38  35.50  35.51  37.63  37.65  38.03  38.04  38.05
         38.05  38.85  38.86  40.00  40.01  40.57  40.59  40.59  41.25  41.26
         41.54  41.62  42.49  42.49  43.63  44.23  44.24  44.39  44.40  44.77
         46.98  46.98  47.91  47.94  50.32  50.32  51.28  52.43  53.69  53.70
         57.04  58.25  58.27  58.62  58.64  61.73  61.74  66.98  67.58  67.64
         67.81  67.82  70.80  70.98  73.39  73.49  76.33  76.64  76.64  78.94
         79.03  79.28  83.53  84.69  84.71  87.76  87.80  88.30  90.78  91.13
         91.19  91.69  91.73 100.94 100.95 103.66 104.14 104.14 105.48 106.18
        106.21 108.05 108.09 119.03 119.56 119.56 120.62 120.81 130.09 130.19
        140.45 140.59 149.27 149.30 152.11 152.21 152.70 152.88 162.02 162.05
  16  1 -23.64 -22.64 -22.64 -21.44 -20.49 -20.49 -20.27 -20.26 -18.37 -18.37
        -16.71 -16.70 -14.85 -14.84 -14.77 -14.50 -14.50 -12.51 -12.51 -12.26
        -12.11 -12.10 -11.92 -11.92 -10.73 -10.65 -10.65 -10.27 -10.27  -9.33
         -9.06  -8.99  -8.99  -8.66  -7.74  -7.74  -7.38  -7.37  -5.80  -5.80
         -3.70  -2.29  -2.29  -2.20  -2.20  -1.12  -0.37  -0.36   0.50   0.51
          2.76   3.54   3.55   3.55   3.56   3.92   4.63   5.22   5.22   5.88
          6.13   6.13   6.64   6.65   7.08   7.31   7.31   7.92   7.93   8.01
          8.01   8.06   8.06   8.66   8.67   9.27   9.27   9.28   9.29   9.65
          9.66  10.10  10.26  10.27  10.58  10.64  10.98  10.99  11.50  11.52
         12.29  12.63  12.64  13.14  13.14  13.94  14.06  14.75  14.76  14.89
         14.89  15.41  15.67  15.68  16.19  16.20  16.21  16.22  16.26  16.62
         18.08  18.08  18.23  18.23  18.62  18.62  18.78  18.78  18.98  18.98
         19.53  19.64  20.22  20.22  22.35  23.51  23.52  23.53  23.53  24.36
         24.36  24.64  24.65  24.76  24.77  25.27  25.47  25.47  26.51  26.52
         26.56  28.19  28.26  28.27  28.37  29.90  29.91  30.08  30.09  30.63
         30.63  32.39  32.41  33.16  33.17  33.20  33.21  33.60  33.90  33.92
         34.19  34.21  34.24  35.45  35.46  37.26  37.28  37.71  37.72  37.90
         37.90  38.78  38.79  39.95  39.97  40.16  40.17  40.68  41.10  41.13
         41.13  41.71  42.13  42.13  43.62  44.32  44.32  44.42  44.43  44.66
         46.54  46.55  48.37  48.39  50.16  50.16  50.46  51.75  54.13  54.14
         56.92  59.13  59.15  59.20  59.23  62.33  62.34  68.04  68.25  68.27
         68.79  68.85  70.29  70.51  71.98  72.07  76.64  77.34  77.34  78.55
         78.63  80.39  82.65  83.82  83.83  86.57  86.61  86.99  88.86  89.10
         89.15  92.18  92.23  99.35  99.36 103.02 103.04 103.28 103.91 105.64
        105.66 108.90 108.94 117.28 118.54 118.54 118.93 119.11 127.76 127.87
        139.87 140.02 147.11 147.14 152.23 152.31 152.36 152.54 163.10 163.11
  17  1 -23.56 -22.57 -22.57 -21.59 -20.65 -20.64 -20.20 -20.19 -18.49 -18.48
        -16.67 -16.66 -14.99 -14.98 -14.53 -14.32 -14.32 -12.38 -12.38 -12.23
        -12.02 -12.01 -11.94 -11.94 -10.65 -10.61 -10.61 -10.30 -10.29  -9.49
         -9.21  -9.06  -9.05  -8.79  -7.89  -7.89  -7.32  -7.31  -5.89  -5.89
         -3.56  -2.14  -2.13  -2.13  -2.13  -1.25  -0.48  -0.47   0.37   0.37
          2.81   3.46   3.47   3.68   3.68   4.02   4.91   5.00   5.00   5.82
          6.27   6.28   6.70   6.70   7.23   7.37   7.38   7.72   7.72   7.97
          7.98   8.18   8.18   8.56   8.56   9.16   9.17   9.29   9.29   9.65
          9.66   9.86  10.23  10.24  10.33  10.49  10.98  10.99  11.37  11.39
         12.36  12.68  12.69  12.98  12.99  13.82  14.14  14.69  14.70  14.72
         14.72  15.43  15.76  15.77  16.20  16.21  16.26  16.40  16.41  16.42
         18.26  18.26  18.50  18.51  18.67  18.67  18.93  18.93  19.19  19.19
         19.73  19.88  20.21  20.21  22.29  23.46  23.47  23.53  23.54  24.02
         24.02  24.37  24.38  24.66  24.66  24.86  25.30  25.30  26.16  26.17
         26.91  28.27  28.44  28.44  28.64  29.95  29.96  30.07  30.08  30.60
         30.60  32.50  32.51  33.14  33.14  33.21  33.21  33.30  33.95  33.97
         34.07  34.09  34.11  35.38  35.39  36.90  36.92  37.35  37.35  37.80
         37.80  38.70  38.71  39.79  39.81  39.85  39.87  40.49  40.79  41.03
         41.03  41.84  41.85  41.90  43.56  44.20  44.21  44.57  44.67  44.68
         46.12  46.12  48.89  48.91  49.68  50.04  50.04  51.04  54.60  54.61
         57.07  59.62  59.64  60.15  60.17  62.99  63.00  68.78  68.79  69.24
         69.70  69.97  70.02  70.23  70.63  70.71  76.98  78.02  78.02  78.07
         78.15  81.29  81.60  82.86  82.88  85.36  85.40  85.95  86.68  86.73
         87.13  92.91  92.97  97.81  97.82 101.08 102.19 102.21 104.21 105.19
        105.21 109.21 109.26 115.75 117.51 117.55 117.55 117.67 125.98 126.09
        139.62 139.79 145.11 145.14 152.08 152.25 152.35 152.42 163.76 163.76
  18  1 -23.48 -22.49 -22.49 -21.74 -20.79 -20.79 -20.12 -20.11 -18.60 -18.59
        -16.62 -16.61 -15.12 -15.11 -14.29 -14.15 -14.15 -12.25 -12.25 -12.20
        -12.12 -12.11 -11.78 -11.77 -10.59 -10.58 -10.57 -10.33 -10.32  -9.64
         -9.36  -9.12  -9.11  -8.91  -8.04  -8.04  -7.25  -7.24  -5.98  -5.98
         -3.42  -2.06  -2.06  -1.99  -1.98  -1.38  -0.59  -0.58   0.23   0.24
          2.88   3.40   3.41   3.82   3.82   4.08   4.78   4.78   5.20   5.82
          6.42   6.43   6.76   6.76   7.37   7.44   7.44   7.44   7.44   8.00
          8.01   8.31   8.31   8.43   8.43   9.03   9.04   9.35   9.35   9.63
          9.68   9.70  10.01  10.18  10.19  10.38  10.98  10.99  11.22  11.24
         12.43  12.77  12.78  12.85  12.85  13.71  14.21  14.54  14.54  14.61
         14.63  15.47  15.84  15.85  16.22  16.23  16.23  16.25  16.62  16.62
         18.41  18.42  18.72  18.73  18.78  18.78  19.05  19.06  19.40  19.41
         19.93  20.13  20.24  20.24  22.23  23.37  23.37  23.55  23.55  23.70
         23.71  24.12  24.12  24.47  24.54  24.55  25.13  25.13  25.82  25.83
         27.26  28.19  28.63  28.63  29.08  29.97  29.98  30.08  30.08  30.57
         30.57  32.61  32.62  33.04  33.12  33.13  33.20  33.20  33.94  34.00
         34.01  34.01  34.01  35.31  35.31  36.55  36.57  36.95  36.95  37.72
         37.72  38.62  38.63  39.49  39.51  39.69  39.70  39.79  40.90  40.96
         40.96  41.63  41.64  42.12  43.45  44.06  44.07  44.50  44.98  44.99
         45.70  45.71  48.92  49.47  49.50  49.93  49.94  50.30  55.10  55.10
         57.47  60.09  60.11  61.04  61.06  63.70  63.72  69.21  69.37  69.37
         69.39  69.47  69.93  70.57  71.08  71.14  77.35  77.51  77.59  78.68
         78.68  80.27  81.86  81.87  81.96  84.14  84.17  84.40  84.45  85.15
         85.72  93.16  93.21  96.56  96.58  98.89 101.61 101.63 104.56 104.81
        104.81 108.83 108.90 114.43 116.40 116.53 116.60 116.60 124.91 125.02
        139.74 139.92 143.23 143.26 151.87 152.02 152.47 152.52 163.94 163.96
  19  1 -23.40 -22.41 -22.41 -21.89 -20.94 -20.93 -20.04 -20.03 -18.72 -18.71
        -16.56 -16.55 -15.25 -15.24 -14.05 -13.99 -13.98 -12.23 -12.22 -12.19
        -12.11 -12.10 -11.62 -11.62 -10.57 -10.57 -10.48 -10.37 -10.36  -9.78
         -9.49  -9.16  -9.16  -9.04  -8.19  -8.18  -7.18  -7.17  -6.07  -6.07
         -3.28  -1.98  -1.98  -1.83  -1.83  -1.51  -0.70  -0.69   0.09   0.10
          2.95   3.36   3.37   3.98   3.98   4.09   4.58   4.58   5.49   5.88
          6.56   6.56   6.83   6.83   7.16   7.16   7.50   7.51   7.52   8.01
          8.01   8.29   8.29   8.44   8.44   8.90   8.90   9.41   9.44   9.44
          9.69   9.73   9.74  10.11  10.12  10.26  10.97  10.98  11.07  11.09
         12.51  12.74  12.74  12.88  12.89  13.60  14.30  14.35  14.35  14.53
         14.54  15.51  15.92  15.93  16.04  16.23  16.24  16.25  16.84  16.85
         18.54  18.55  18.78  18.78  19.04  19.04  19.14  19.15  19.62  19.62
         20.14  20.31  20.31  20.38  22.17  23.24  23.24  23.41  23.42  23.56
         23.57  23.92  23.92  24.09  24.42  24.42  24.96  24.97  25.49  25.49
         27.59  28.13  28.82  28.83  29.52  29.98  29.99  30.09  30.10  30.54
         30.55  32.73  32.74  32.83  33.12  33.12  33.19  33.19  33.76  33.97
         33.98  34.04  34.06  35.23  35.23  36.21  36.23  36.54  36.54  37.68
         37.68  38.55  38.56  39.03  39.25  39.26  39.47  39.49  40.92  40.93
         41.03  41.48  41.49  42.37  43.32  43.92  43.92  44.46  45.27  45.28
         45.36  45.38  48.21  49.53  49.82  49.83  50.13  50.16  55.59  55.60
         58.10  60.52  60.55  61.79  61.82  64.47  64.49  68.35  68.42  68.83
         69.65  70.02  70.03  71.98  72.09  72.16  76.87  76.94  77.76  78.63
         79.34  79.34  80.85  80.87  82.27  82.32  82.39  82.92  82.95  84.52
         84.68  92.55  92.58  96.03  96.08  96.74 101.25 101.28 104.41 104.45
        104.99 107.87 107.96 113.31 115.44 115.55 115.71 115.71 124.60 124.70
        140.23 140.43 141.44 141.48 151.71 151.85 152.59 152.63 163.66 163.70
  20  1 -23.31 -22.32 -22.32 -22.03 -21.08 -21.07 -19.96 -19.95 -18.83 -18.82
        -16.49 -16.48 -15.38 -15.37 -13.83 -13.82 -13.82 -12.34 -12.34 -12.20
        -11.96 -11.95 -11.47 -11.47 -10.57 -10.57 -10.43 -10.42 -10.39  -9.90
         -9.62  -9.19  -9.19  -9.16  -8.32  -8.32  -7.11  -7.10  -6.17  -6.16
         -3.14  -1.90  -1.90  -1.68  -1.68  -1.65  -0.81  -0.80  -0.05  -0.05
          3.02   3.33   3.35   4.06   4.16   4.16   4.38   4.39   5.79   6.00
          6.64   6.65   6.90   6.90   6.94   6.94   7.59   7.60   7.61   7.99
          8.00   8.15   8.15   8.57   8.57   8.76   8.77   9.22   9.36   9.54
          9.55   9.79   9.80  10.03  10.03  10.13  10.92  10.94  10.94  10.94
         12.58  12.67  12.67  13.00  13.01  13.50  14.16  14.16  14.39  14.43
         14.44  15.56  15.86  15.99  16.00  16.20  16.25  16.26  17.08  17.08
         18.64  18.65  18.83  18.84  19.20  19.21  19.29  19.29  19.82  19.83
         20.35  20.42  20.42  20.63  22.11  23.04  23.04  23.17  23.17  23.58
         23.58  23.72  23.78  23.78  24.27  24.28  24.80  24.81  25.17  25.18
         27.89  28.10  29.01  29.01  29.96  29.98  29.99  30.12  30.13  30.52
         30.52  32.71  32.84  32.85  33.12  33.12  33.17  33.17  33.57  33.97
         33.98  34.07  34.09  35.14  35.15  35.91  35.92  36.12  36.13  37.66
         37.67  38.24  38.50  38.51  39.05  39.06  39.24  39.25  40.91  40.91
         41.17  41.38  41.39  42.66  43.16  43.78  43.78  44.44  44.94  44.94
         45.73  45.74  47.54  48.77  49.69  49.69  50.84  50.87  56.06  56.06
         58.92  60.92  60.95  62.28  62.32  65.30  65.33  67.68  67.74  68.54
         69.38  70.73  70.74  72.95  72.99  73.51  76.15  76.21  76.77  78.20
         79.89  79.90  80.00  80.00  80.32  80.36  81.74  81.77  82.58  83.95
         84.04  91.26  91.28  94.61  96.13  96.20 101.08 101.11 104.06 104.10
        105.44 106.59 106.71 112.35 114.48 114.58 114.87 114.88 124.96 125.05
        139.73 139.76 141.12 141.30 151.58 151.71 152.72 152.73 162.92 162.98
  21  1 -23.22 -22.23 -22.23 -22.17 -21.21 -21.21 -19.88 -19.87 -18.95 -18.94
        -16.41 -16.41 -15.50 -15.49 -13.67 -13.67 -13.60 -12.46 -12.45 -12.23
        -11.80 -11.80 -11.33 -11.33 -10.59 -10.59 -10.51 -10.50 -10.29 -10.00
         -9.74  -9.29  -9.19  -9.19  -8.45  -8.45  -7.03  -7.02  -6.26  -6.25
         -3.01  -1.82  -1.82  -1.78  -1.53  -1.53  -0.92  -0.91  -0.20  -0.19
          3.11   3.33   3.34   4.00   4.20   4.20   4.35   4.35   6.10   6.15
          6.50   6.50   6.94   6.95   6.98   6.98   7.67   7.67   7.68   7.95
          7.96   8.01   8.02   8.61   8.62   8.72   8.73   9.03   9.07   9.66
          9.67   9.85   9.87   9.93   9.93   9.98  10.78  10.80  10.88  10.88
         12.65  12.66  12.66  13.14  13.15  13.40  13.97  13.97  14.32  14.33
         14.48  15.62  15.69  16.05  16.06  16.16  16.26  16.27  17.32  17.32
         18.69  18.70  18.89  18.90  19.22  19.23  19.53  19.53  20.01  20.02
         20.57  20.57  20.58  20.87  22.03  22.79  22.80  22.98  22.99  23.38
         23.59  23.59  23.70  23.70  24.11  24.12  24.65  24.66  24.89  24.89
         28.10  28.14  29.19  29.19  29.96  29.97  30.16  30.16  30.39  30.50
         30.50  32.70  32.96  32.97  33.13  33.13  33.15  33.15  33.36  34.00
         34.01  34.09  34.10  35.06  35.07  35.63  35.64  35.72  35.72  37.46
         37.68  37.68  38.46  38.47  38.89  38.90  38.99  39.01  40.91  40.91
         41.30  41.31  41.32  42.98  42.99  43.67  43.67  44.46  44.60  44.61
         46.15  46.17  46.94  48.02  49.51  49.52  51.60  51.63  56.44  56.44
         59.92  61.26  61.29  62.38  62.43  66.19  66.22  67.56  67.59  68.34
         69.12  71.48  71.49  73.59  73.63  74.80  75.09  75.35  75.40  78.51
         78.58  78.69  79.03  79.04  80.63  80.64  80.67  80.68  82.58  83.43
         83.70  89.77  89.79  92.53  96.48  96.56 101.05 101.09 103.70 103.74
        105.22 105.34 105.94 111.52 113.57 113.65 114.09 114.11 125.77 125.84
        138.09 138.12 142.32 142.51 151.47 151.58 152.85 152.85 161.77 161.85
  22  1 -23.12 -22.31 -22.14 -22.13 -21.34 -21.34 -19.79 -19.78 -19.06 -19.05
        -16.33 -16.32 -15.62 -15.61 -13.52 -13.52 -13.38 -12.58 -12.58 -12.29
        -11.64 -11.64 -11.20 -11.20 -10.62 -10.62 -10.61 -10.60 -10.20 -10.08
         -9.85  -9.41  -9.17  -9.17  -8.58  -8.58  -6.96  -6.95  -6.35  -6.34
         -2.87  -1.92  -1.73  -1.73  -1.38  -1.37  -1.03  -1.02  -0.34  -0.34
          3.20   3.35   3.36   3.91   4.03   4.04   4.55   4.55   6.25   6.25
          6.34   6.41   7.06   7.06   7.06   7.07   7.66   7.76   7.76   7.89
          7.89   7.89   7.90   8.50   8.50   8.70   8.86   8.86   8.99   9.79
          9.80   9.81   9.82   9.82   9.92   9.94  10.64  10.66  10.79  10.79
         12.70  12.70  12.73  13.27  13.28  13.30  13.77  13.77  14.20  14.21
         14.59  15.52  15.68  16.10  16.11  16.12  16.26  16.28  17.56  17.57
         18.70  18.71  18.94  18.95  19.22  19.23  19.75  19.75  20.16  20.17
         20.76  20.76  20.78  21.12  21.94  22.53  22.53  22.87  22.87  23.05
         23.60  23.60  23.66  23.66  23.91  23.92  24.52  24.53  24.66  24.66
         28.12  28.30  29.36  29.36  29.94  29.94  30.20  30.21  30.48  30.48
         30.80  32.82  33.09  33.10  33.12  33.13  33.13  33.14  33.14  34.06
         34.07  34.08  34.09  35.00  35.00  35.34  35.34  35.39  35.41  36.68
         37.73  37.73  38.43  38.44  38.76  38.76  38.77  38.77  40.92  40.93
         41.23  41.24  41.48  42.80  43.35  43.59  43.59  44.31  44.31  44.51
         46.40  46.60  46.61  47.29  49.29  49.30  52.41  52.44  56.66  56.67
         61.08  61.53  61.55  62.17  62.22  67.14  67.17  67.95  67.97  68.22
         68.88  72.25  72.26  72.80  73.89  73.92  74.47  74.51  76.72  77.02
         77.07  78.32  78.33  79.16  79.65  79.66  81.34  81.34  82.41  83.05
         83.47  88.30  88.31  90.50  96.95  97.04 101.14 101.18 103.33 103.37
        103.85 103.98 106.47 110.77 112.79 112.86 113.39 113.41 126.83 126.89
        136.50 136.53 143.82 144.01 151.34 151.43 153.00 153.01 160.30 160.39
  23  1 -23.02 -22.44 -22.04 -22.03 -21.47 -21.46 -19.69 -19.68 -19.17 -19.16
        -16.25 -16.24 -15.74 -15.73 -13.38 -13.37 -13.17 -12.70 -12.70 -12.37
        -11.48 -11.48 -11.08 -11.08 -10.73 -10.72 -10.66 -10.66 -10.12 -10.09
         -9.94  -9.53  -9.13  -9.13  -8.70  -8.70  -6.88  -6.87  -6.44  -6.44
         -2.73  -2.05  -1.64  -1.64  -1.23  -1.22  -1.14  -1.13  -0.49  -0.48
          3.29   3.39   3.40   3.81   3.88   3.89   4.77   4.77   5.99   5.99
          6.55   6.73   7.15   7.15   7.18   7.19   7.56   7.77   7.77   7.82
          7.83   7.85   7.86   8.37   8.38   8.38   9.00   9.00   9.00   9.66
          9.69   9.70   9.93   9.93  10.00  10.02  10.51  10.53  10.67  10.67
         12.78  12.78  12.80  13.21  13.41  13.42  13.58  13.58  14.08  14.09
         14.70  15.37  15.75  16.06  16.15  16.16  16.26  16.28  17.80  17.80
         18.65  18.66  18.99  19.00  19.20  19.21  19.94  19.95  20.27  20.27
         20.97  20.97  20.99  21.37  21.83  22.25  22.25  22.73  22.84  22.84
         23.60  23.60  23.63  23.63  23.68  23.70  24.42  24.43  24.49  24.49
         28.17  28.39  29.50  29.50  29.90  29.91  30.25  30.25  30.45  30.45
         31.20  32.86  33.08  33.13  33.13  33.14  33.14  33.25  33.26  34.03
         34.05  34.14  34.15  34.95  34.95  35.00  35.00  35.20  35.21  35.93
         37.80  37.80  38.43  38.44  38.54  38.55  38.66  38.67  40.95  40.96
         41.18  41.18  41.65  42.61  43.54  43.55  43.77  44.06  44.06  44.61
         45.94  46.59  47.05  47.06  49.02  49.03  53.25  53.28  56.63  56.64
         61.70  61.73  61.90  61.95  62.40  68.09  68.18  68.22  68.67  68.68
         68.70  70.84  73.01  73.02  73.51  73.55  73.64  73.66  75.96  76.00
         77.80  77.82  78.37  78.81  78.81  79.67  82.05  82.05  82.10  82.74
         83.37  86.93  86.94  88.54  97.54  97.65 101.33 101.36 102.53 102.67
        102.96 103.00 107.03 110.09 112.21 112.27 112.77 112.80 128.03 128.09
        134.96 135.00 145.53 145.70 151.15 151.21 153.22 153.23 158.60 158.70
  24  1 -22.91 -22.56 -21.93 -21.93 -21.59 -21.59 -19.60 -19.58 -19.28 -19.27
        -16.15 -16.15 -15.85 -15.84 -13.24 -13.23 -12.97 -12.83 -12.83 -12.49
        -11.32 -11.32 -10.97 -10.97 -10.86 -10.86 -10.72 -10.72 -10.14 -10.02
         -9.99  -9.65  -9.07  -9.07  -8.81  -8.80  -6.79  -6.78  -6.53  -6.53
         -2.60  -2.19  -1.54  -1.54  -1.24  -1.24  -1.08  -1.08  -0.64  -0.63
          3.39   3.45   3.46   3.71   3.75   3.75   4.99   4.99   5.73   5.73
          6.77   7.05   7.23   7.24   7.29   7.30   7.41   7.67   7.67   7.74
          7.75   7.95   7.95   8.04   8.26   8.27   9.08   9.14   9.14   9.50
          9.56   9.57  10.08  10.08  10.09  10.11  10.39  10.41  10.53  10.53
         12.88  12.90  12.90  13.12  13.39  13.39  13.55  13.56  13.95  13.97
         14.82  15.22  15.82  16.01  16.19  16.20  16.26  16.27  18.02  18.03
         18.56  18.56  19.04  19.05  19.17  19.18  20.11  20.11  20.31  20.32
         21.19  21.20  21.20  21.62  21.71  21.98  21.98  22.43  22.89  22.89
         23.44  23.45  23.61  23.61  23.62  23.62  24.35  24.35  24.38  24.38
         28.23  28.41  29.62  29.62  29.85  29.86  30.30  30.30  30.42  30.42
         31.58  32.58  33.13  33.13  33.14  33.14  33.42  33.43  33.47  33.94
         33.96  34.24  34.25  34.71  34.72  34.92  34.92  35.06  35.07  35.22
         37.90  37.90  38.35  38.35  38.44  38.45  38.57  38.59  40.99  40.99
         41.12  41.13  41.83  42.41  43.55  43.55  43.86  43.86  44.23  44.75
         45.54  45.93  47.50  47.51  48.70  48.71  54.11  54.14  56.29  56.31
         61.75  61.78  61.80  61.81  63.85  68.16  68.49  68.94  69.24  69.26
         69.57  69.58  72.54  72.56  72.73  72.75  73.74  73.75  75.38  75.41
         77.52  77.53  78.15  78.15  79.96  80.20  81.70  82.46  82.82  82.82
         83.45  85.70  85.71  86.69  98.27  98.39 101.28 101.42 101.59 101.63
        102.59 102.62 107.61 109.44 111.87 111.92 112.28 112.30 129.32 129.37
        133.48 133.52 147.29 147.44 150.80 150.83 153.58 153.58 156.86 156.94
  25  1 -22.80 -22.68 -21.82 -21.82 -21.71 -21.70 -19.49 -19.48 -19.39 -19.38
        -16.06 -16.05 -15.95 -15.95 -13.10 -13.10 -12.96 -12.96 -12.79 -12.63
        -11.16 -11.16 -11.01 -11.00 -10.88 -10.88 -10.79 -10.79 -10.13 -10.09
         -9.88  -9.76  -9.00  -8.99  -8.91  -8.90  -6.71  -6.70  -6.62  -6.61
         -2.46  -2.32  -1.45  -1.44  -1.35  -1.34  -0.93  -0.93  -0.78  -0.78
          3.50   3.53   3.54   3.60   3.63   3.64   5.23   5.23   5.47   5.47
          6.99   7.21   7.31   7.31   7.34   7.34   7.38   7.62   7.62   7.66
          7.66   7.71   8.05   8.05   8.15   8.16   9.20   9.28   9.29   9.34
          9.42   9.43  10.18  10.20  10.23  10.23  10.28  10.30  10.38  10.38
         12.95  13.04  13.05  13.05  13.21  13.21  13.69  13.70  13.82  13.83
         14.94  15.08  15.88  15.95  16.22  16.23  16.24  16.25  18.23  18.24
         18.41  18.42  19.09  19.10  19.13  19.14  20.23  20.23  20.30  20.30
         21.38  21.45  21.45  21.55  21.71  21.71  21.88  22.15  23.02  23.03
         23.22  23.22  23.61  23.61  23.61  23.61  24.31  24.32  24.32  24.33
         28.30  28.37  29.71  29.72  29.79  29.80  30.34  30.34  30.38  30.39
         31.93  32.27  33.13  33.13  33.13  33.14  33.61  33.62  33.80  33.81
         33.97  34.35  34.36  34.50  34.50  34.56  34.92  34.93  34.97  34.98
         38.02  38.02  38.17  38.18  38.47  38.48  38.51  38.52  41.03  41.03
         41.08  41.08  42.02  42.22  43.60  43.60  43.70  43.71  44.75  44.95
         45.21  45.31  47.93  47.94  48.33  48.34  54.94  54.97  55.69  55.72
         61.74  61.78  61.78  61.81  65.43  67.13  68.23  68.34  70.37  70.40
         70.54  70.55  71.51  71.54  71.59  71.60  74.39  74.40  74.93  74.95
         77.48  77.50  77.70  77.71  80.72  81.23  81.30  82.08  83.66  83.66
         83.91  84.62  84.63  85.05  99.14  99.27 100.16 100.29 101.89 101.92
        102.23 102.26 108.20 108.81 111.79 111.83 111.94 111.97 130.66 130.71
        132.05 132.09 148.91 149.01 150.12 150.15 154.22 154.23 155.31 155.37
siesta: Fermi energy =      -5.043220 eV

siesta: Program's energy decomposition (eV):
siesta: Ebs     =     -1077.728531
siesta: Eions   =      6322.689628
siesta: Ena     =      2076.476941
siesta: Ekin    =      2259.657964
siesta: Enl     =       -87.250934
siesta: Eso     =         0.000000
siesta: Eldau   =         0.000000
siesta: DEna    =       -90.346439
siesta: DUscf   =         5.662744
siesta: DUext   =         0.000000
siesta: Enegf   =         0.000000
siesta: Exc     =      -936.001456
siesta: eta*DQ  =         0.000000
siesta: Emadel  =         0.000000
siesta: Emeta   =         0.000000
siesta: Emolmec =         0.000000
siesta: Ekinion =         0.000000
siesta: Eharris =     -3094.490807
siesta: Etot    =     -3094.490809
siesta: FreeEng =     -3094.503958

siesta: Final energy (eV):
siesta:  Band Struct. =   -1077.728531
siesta:       Kinetic =    2259.657964
siesta:       Hartree =   21527.363261
siesta:       Eldau   =       0.000000
siesta:       Eso     =       0.000000
siesta:    Ext. field =       0.000000
siesta:       Enegf   =       0.000000
siesta:   Exch.-corr. =    -936.001456
siesta:  Ion-electron =  -45168.417097
siesta:       Ion-ion =   19222.906519
siesta:       Ekinion =       0.000000
siesta:         Total =   -3094.490809
siesta:         Fermi =      -5.043220

siesta: Atomic forces (eV/Ang):
siesta:      1   -0.377673    0.000004    0.034049
siesta:      2   -0.299458   -0.251405    0.000815
siesta:      3   -0.299454   -0.251419   -0.000828
siesta:      4   -0.377680   -0.000003   -0.034050
siesta:      5   -0.150665   -0.341945    0.022145
siesta:      6    0.150668   -0.341931   -0.022129
siesta:      7    0.150665   -0.341929    0.022110
siesta:      8   -0.150660   -0.341922   -0.022131
siesta:      9    0.299436   -0.251400   -0.000797
siesta:     10    0.377679   -0.000024   -0.034049
siesta:     11    0.377669   -0.000012    0.034043
siesta:     12    0.299468   -0.251396    0.000826
siesta:     13    0.299458    0.251396   -0.000815
siesta:     14    0.150673    0.341936   -0.022144
siesta:     15    0.150660    0.341946    0.022123
siesta:     16    0.299463    0.251408    0.000819
siesta:     17   -0.150673    0.341947    0.022135
siesta:     18   -0.299461    0.251414    0.000821
siesta:     19   -0.299459    0.251403   -0.000825
siesta:     20   -0.150667    0.341922   -0.022109
siesta: ----------------------------------------
siesta:    Tot   -0.000008   -0.000010    0.000009

siesta: Stress tensor (static) (eV/Ang**3):
siesta:     0.003415   -0.000000    0.000000
siesta:    -0.000000    0.003469    0.000000
siesta:     0.000000    0.000000    0.003586

siesta: Cell volume =       2305.792638 Ang**3

siesta: Pressure (static):
siesta:                Solid            Molecule  Units
siesta:          -0.00003801         -0.00001318  Ry/Bohr**3
siesta:          -0.00348985         -0.00121014  eV/Ang**3
siesta:          -5.59141759         -1.93887850  kBar
(Free)E+ p_basis*V_orbitals  =       -3086.311190
(Free)Eharris+ p_basis*V_orbitals  =       -3086.311188

siesta: Electric dipole (a.u.)  =   -0.000000    0.000001    0.000000
siesta: Electric dipole (Debye) =   -0.000001    0.000002    0.000000
>> End of run:   5-NOV-2018  10:57:31
Job completed
