Siesta Version  : siesta-4.0--578
Architecture    : x86_64-linux-n-62-25-35
Compiler version: GNU Fortran (GCC) 7.3.0
Compiler flags  : mpif90 -m64 -fPIC -O3 -march=native -ftree-vectorize -fexpensive-optimizationns -funroll-loops -fprefetch-loop-arrays -fno-second-underscore
PP flags        : -I/zdata/groups/common/nicpa/2018-feb/generic/build-tools/1.0/include -I/zdatta/groups/common/nicpa/2018-feb/generic/gcc/7.3.0/include -I/zdata/groups/common/nicpa/2018-feb/generic/gcc/7.3.0/include -I/zdata/groups/common/nicpa/2018-feb/XeonE5-2660v3/zlib/1.2.11/gnu-7.3.0/include -I/zdata/groups/common/nicpa/2018-feb/generic/numactl/2.0.11/include -I/zdata/groups/common/nicpa/2018-feb/XeonE5-2660v3/libxml2/2.9.7/gnu-7.3.0/include -I/zdata/groups/common/nicpa/2018-feb/XeonE5-2660v3/hwloc/1.11.9/gnu-7.3.0/include -I/zdata/groups/common/nicpa/2018-feb/XeonE5-2660v3/openmpi/3.0.0/gnu-7.3.0/include -I/zdata/groups/common/nicpa/2018-feb/XeonE5-2660v3/szip/2.1.1/gnu-7.3.0/include -I/zdata/groups/common/nicpa/2018-feb/XeonE5-2660v3/hdf5-serial/1.8.18/gnu-7.3.0/include -I/zdata/groups/common/nicpa/2018-feb/XeonE5-2660v3/netcdf-serial/4.6.0/gnu-7.3.0/include -I/zdata/groups/common/nicpa/2018-feb/XeonE5-2660v3/scalapack/204/gnu-7.3.0/include -I/zdata/groups/common/nicpa/2018-feb/XeonE5-2660v3/openblas/0.2.20/gnu-7.3.0/include -I/zdata/groups/common/nicpa/2018-feb/XeonE5-2660v3/elpa/2017.05.003/gnu-7.3.0/include -DSIESTA__ELPA -DMPI -D1 -DFC_HAVE_ABORT -DCDF -DSIESTA__MRRR 
PARALLEL version
NetCDF support

* Running on    8 nodes in parallel
>> Start of run:  10-JUN-2018  21:49:09

                           ***********************       
                           *  WELCOME TO SIESTA  *       
                           ***********************       

reinit: Reading from standard input
************************** Dump of input data file ****************************
SystemName          Water molecule -- md Nose
SystemLabel         h2o
NumberOfAtoms       3
NumberOfSpecies     2
MeshCutoff  100 Ry
%block ChemicalSpeciesLabel
 1  8  O      # Species index, atomic number, species label
 2  1  H
%endblock ChemicalSpeciesLabel
LatticeConstant 8.0 Ang
%block LatticeVectors
1.0 0.0 0.0
0.0 1.0 0.0
0.0 0.0 0.8
%endblock LatticeVectors
AtomicCoordinatesFormat  Ang
%block AtomicCoordinatesAndAtomicSpecies
 0.000  0.000  0.000  1
 0.757  0.586  0.000  2
-0.757  0.586  0.000  2
%endblock AtomicCoordinatesAndAtomicSpecies
Solution.Method       diagon
MeshCutoff             100 Ry
WriteCoorStep      .true.
WriteForces        .true.
WriteMDHistory     .true.
MD.UseSaveXV    T
MD.TypeOfRun         nose
MD.TargetTemperature 600 K
MD.LengthTimeStep  0.2 fs
MD.Initial.Time.Step      1
MD.Final.Time.Step        100
************************** End of input data file *****************************

reinit: -----------------------------------------------------------------------
reinit: System Name: Water molecule -- md Nose
reinit: -----------------------------------------------------------------------
reinit: System Label: h2o                                                         
reinit: -----------------------------------------------------------------------

initatom: Reading input for the pseudopotentials and atomic orbitals ----------
 Species number:            1  Label: O Atomic number:           8
 Species number:            2  Label: H Atomic number:           1
Ground state valence configuration:   2s02  2p04
Reading pseudopotential information in formatted form from O.psf

Valence configuration for pseudopotential generation:
2s( 2.00) rc: 1.14
2p( 4.00) rc: 1.14
3d( 0.00) rc: 1.14
4f( 0.00) rc: 1.14
Ground state valence configuration:   1s01
Reading pseudopotential information in formatted form from H.psf

Valence configuration for pseudopotential generation:
1s( 1.00) rc: 1.25
2p( 0.00) rc: 1.25
3d( 0.00) rc: 1.25
4f( 0.00) rc: 1.25
For O, standard SIESTA heuristics set lmxkb to 3
 (one more than the basis l, including polarization orbitals).
Use PS.lmax or PS.KBprojectors blocks to override.
For H, standard SIESTA heuristics set lmxkb to 2
 (one more than the basis l, including polarization orbitals).
Use PS.lmax or PS.KBprojectors blocks to override.

<basis_specs>
===============================================================================
O                    Z=   8    Mass=  16.000        Charge= 0.17977+309
Lmxo=1 Lmxkb= 3    BasisType=split      Semic=F
L=0  Nsemic=0  Cnfigmx=2
          n=1  nzeta=2  polorb=0
            splnorm:   0.15000    
               vcte:    0.0000    
               rinn:    0.0000    
               qcoe:    0.0000    
               qyuk:    0.0000    
               qwid:   0.10000E-01
                rcs:    0.0000      0.0000    
            lambdas:    1.0000      1.0000    
L=1  Nsemic=0  Cnfigmx=2
          n=1  nzeta=2  polorb=1
            splnorm:   0.15000    
               vcte:    0.0000    
               rinn:    0.0000    
               qcoe:    0.0000    
               qyuk:    0.0000    
               qwid:   0.10000E-01
                rcs:    0.0000      0.0000    
            lambdas:    1.0000      1.0000    
-------------------------------------------------------------------------------
L=0  Nkbl=1  erefs: 0.17977+309
L=1  Nkbl=1  erefs: 0.17977+309
L=2  Nkbl=1  erefs: 0.17977+309
L=3  Nkbl=1  erefs: 0.17977+309
===============================================================================
</basis_specs>

atom: Called for O                     (Z =   8)

read_vps: Pseudopotential generation method:
read_vps: ATM3      Troullier-Martins                       
Total valence charge:    6.00000

xc_check: Exchange-correlation functional:
xc_check: Ceperley-Alder
V l=0 = -2*Zval/r beyond r=  1.1278
V l=1 = -2*Zval/r beyond r=  1.1278
V l=2 = -2*Zval/r beyond r=  1.1278
V l=3 = -2*Zval/r beyond r=  1.1138
All V_l potentials equal beyond r=  1.1278
This should be close to max(r_c) in ps generation
All pots = -2*Zval/r beyond r=  1.1278

VLOCAL1: 99.0% of the norm of Vloc inside     34.126 Ry
VLOCAL1: 99.9% of the norm of Vloc inside     77.774 Ry
atom: Maximum radius for 4*pi*r*r*local-pseudopot. charge    1.37759
atom: Maximum radius for r*vlocal+2*Zval:    1.18566
GHOST: No ghost state for L =  0
GHOST: No ghost state for L =  1
GHOST: No ghost state for L =  2
GHOST: No ghost state for L =  3

KBgen: Kleinman-Bylander projectors: 
   l= 0   rc=  1.294105   el= -1.742414   Ekb=  9.135903   kbcos=  0.326910
   l= 1   rc=  1.294105   el= -0.676589   Ekb= -8.124878   kbcos= -0.395047
   l= 2   rc=  1.448233   el=  0.002386   Ekb= -2.039267   kbcos= -0.003484
   l= 3   rc=  1.561052   el=  0.003508   Ekb= -0.799141   kbcos= -0.000344

KBgen: Total number of  Kleinman-Bylander projectors:   16
atom: -------------------------------------------------------------------------

atom: SANKEY-TYPE ORBITALS:
atom: Selected multiple-zeta basis: split     

SPLIT: Orbitals with angular momentum L= 0

SPLIT: Basis orbitals for state 2s

SPLIT: PAO cut-off radius determined from an
SPLIT: energy shift=  0.020000 Ry

   izeta = 1
                 lambda =    1.000000
                     rc =    3.305093
                 energy =   -1.723766
                kinetic =    1.614911
    potential(screened) =   -3.338677
       potential(ionic) =  -11.304675

   izeta = 2
                 rmatch =    2.510382
              splitnorm =    0.150000
                 energy =   -1.471299
                kinetic =    2.446434
    potential(screened) =   -3.917732
       potential(ionic) =  -12.476133

SPLIT: Orbitals with angular momentum L= 1

SPLIT: Basis orbitals for state 2p

SPLIT: PAO cut-off radius determined from an
SPLIT: energy shift=  0.020000 Ry

   izeta = 1
                 lambda =    1.000000
                     rc =    3.937239
                 energy =   -0.658841
                kinetic =    5.005986
    potential(screened) =   -5.664827
       potential(ionic) =  -13.452360

   izeta = 2
                 rmatch =    2.541963
              splitnorm =    0.150000
                 energy =   -0.367441
                kinetic =    7.530509
    potential(screened) =   -7.897949
       potential(ionic) =  -16.611953

POLgen: Perturbative polarization orbital with L=  2

POLgen: Polarization orbital for state 2p

   izeta = 1
                     rc =    3.937239
                 energy =    2.398520
                kinetic =    4.716729
    potential(screened) =   -2.318209
       potential(ionic) =   -8.603170
atom: Total number of Sankey-type orbitals: 13

atm_pop: Valence configuration (for local Pseudopot. screening):
 2s( 2.00)                                                            
 2p( 4.00)                                                            
Vna: chval, zval:    6.00000   6.00000

Vna:  Cut-off radius for the neutral-atom potential:   3.937239

atom: _________________________________________________________________________

<basis_specs>
===============================================================================
H                    Z=   1    Mass=  1.0100        Charge= 0.17977+309
Lmxo=0 Lmxkb= 2    BasisType=split      Semic=F
L=0  Nsemic=0  Cnfigmx=1
          n=1  nzeta=2  polorb=1
            splnorm:   0.15000    
               vcte:    0.0000    
               rinn:    0.0000    
               qcoe:    0.0000    
               qyuk:    0.0000    
               qwid:   0.10000E-01
                rcs:    0.0000      0.0000    
            lambdas:    1.0000      1.0000    
-------------------------------------------------------------------------------
L=0  Nkbl=1  erefs: 0.17977+309
L=1  Nkbl=1  erefs: 0.17977+309
L=2  Nkbl=1  erefs: 0.17977+309
===============================================================================
</basis_specs>

atom: Called for H                     (Z =   1)

read_vps: Pseudopotential generation method:
read_vps: ATM3      Troullier-Martins                       
Total valence charge:    1.00000

xc_check: Exchange-correlation functional:
xc_check: Ceperley-Alder
V l=0 = -2*Zval/r beyond r=  1.2343
V l=1 = -2*Zval/r beyond r=  1.2189
V l=2 = -2*Zval/r beyond r=  1.2189
All V_l potentials equal beyond r=  1.2343
This should be close to max(r_c) in ps generation
All pots = -2*Zval/r beyond r=  1.2343

VLOCAL1: 99.0% of the norm of Vloc inside     28.493 Ry
VLOCAL1: 99.9% of the norm of Vloc inside     64.935 Ry
atom: Maximum radius for 4*pi*r*r*local-pseudopot. charge    1.45251
atom: Maximum radius for r*vlocal+2*Zval:    1.21892
GHOST: No ghost state for L =  0
GHOST: No ghost state for L =  1
GHOST: No ghost state for L =  2

KBgen: Kleinman-Bylander projectors: 
   l= 0   rc=  1.364359   el= -0.467325   Ekb= -2.005361   kbcos= -0.336422
   l= 1   rc=  1.434438   el=  0.001430   Ekb= -0.501708   kbcos= -0.021697
   l= 2   rc=  1.470814   el=  0.002365   Ekb= -0.190555   kbcos= -0.002281

KBgen: Total number of  Kleinman-Bylander projectors:    9
atom: -------------------------------------------------------------------------

atom: SANKEY-TYPE ORBITALS:
atom: Selected multiple-zeta basis: split     

SPLIT: Orbitals with angular momentum L= 0

SPLIT: Basis orbitals for state 1s

SPLIT: PAO cut-off radius determined from an
SPLIT: energy shift=  0.020000 Ry

   izeta = 1
                 lambda =    1.000000
                     rc =    4.828263
                 energy =   -0.449375
                kinetic =    0.929372
    potential(screened) =   -1.378747
       potential(ionic) =   -1.915047

   izeta = 2
                 rmatch =    3.854947
              splitnorm =    0.150000
                 energy =   -0.336153
                kinetic =    1.505294
    potential(screened) =   -1.841447
       potential(ionic) =   -2.413582

POLgen: Perturbative polarization orbital with L=  1

POLgen: Polarization orbital for state 1s

   izeta = 1
                     rc =    4.828263
                 energy =    0.706972
                kinetic =    1.396397
    potential(screened) =   -0.689424
       potential(ionic) =   -1.169792
atom: Total number of Sankey-type orbitals:  5

atm_pop: Valence configuration (for local Pseudopot. screening):
 1s( 1.00)                                                            
Vna: chval, zval:    1.00000   1.00000

Vna:  Cut-off radius for the neutral-atom potential:   4.828263

atom: _________________________________________________________________________

prinput: Basis input ----------------------------------------------------------

PAO.BasisType split     

%block ChemicalSpeciesLabel
    1    8 O                       # Species index, atomic number, species label
    2    1 H                       # Species index, atomic number, species label
%endblock ChemicalSpeciesLabel

%block PAO.Basis                 # Define Basis set
O                     2                    # Species label, number of l-shells
 n=2   0   2                         # n, l, Nzeta 
   3.305      2.510   
   1.000      1.000   
 n=2   1   2 P   1                   # n, l, Nzeta, Polarization, NzetaPol
   3.937      2.542   
   1.000      1.000   
H                     1                    # Species label, number of l-shells
 n=1   0   2 P   1                   # n, l, Nzeta, Polarization, NzetaPol
   4.828      3.855   
   1.000      1.000   
%endblock PAO.Basis

prinput: ----------------------------------------------------------------------

Dumping basis to NetCDF file O.ion.nc
Dumping basis to NetCDF file H.ion.nc
coor:   Atomic-coordinates input format  =     Cartesian coordinates
coor:                                          (in Angstroms)

ioxv: Reading coordinates and velocities from file
! Info in XV file prevails over previous structure input
WARNING: h2o.NOSE_RESTART not found--reading only XV file and moving back 1 time step using Euler

siesta: Atomic coordinates (Bohr) and species
siesta:     -0.01184   0.00932  -0.03376  1        1
siesta:      0.20616   1.85475  -0.12155  2        2
siesta:     -0.78300  -0.66648  -1.59700  2        3

siesta: System type = molecule  

initatomlists: Number of atoms, orbitals, and projectors:      3    23    34

siesta: ******************** Simulation parameters ****************************
siesta:
siesta: The following are some of the parameters of the simulation.
siesta: A complete list of the parameters used, including default values,
siesta: can be found in file out.fdf
siesta:
redata: Non-Collinear-spin run           =     F
redata: SpinPolarized (Up/Down) run      =     F
redata: Number of spin components        =     1
redata: Long output                      =     F
redata: Number of Atomic Species         =        2
redata: Charge density info will appear in .RHO file
redata: Write Mulliken Pop.              =     NO
redata: Matel table size (NRTAB)         =     1024
redata: Mesh Cutoff                      =   100.0000 Ry
redata: Net charge of the system         =     0.0000 |e|
redata: Min. number of SCF Iter          =        0
redata: Max. number of SCF Iter          =       50
redata: Mix DM or H after convergence    =     F
redata: Recompute H after scf cycle      =     F
redata: Mixing is linear
redata: Mix DM in first SCF step ?       =     F
redata: Write Pulay info on disk?        =     F
redata: Discard 1st Pulay DM after  kick =     F
redata: New DM Mixing Weight             =     0.2500
redata: New DM Occupancy tolerance       = 0.000000000001
redata: No kicks to SCF
redata: DM Mixing Weight for Kicks       =     0.5000
redata: DM Tolerance for SCF             =     0.000100
redata: Require (free) Energy convergence in SCF =     F
redata: DM (free)Energy tolerance for SCF =     0.000010 eV
redata: Require Harris convergence for SCF =     F
redata: DM Harris energy tolerance for SCF =     0.000010 eV
redata: Using Saved Data (generic)   =     F
redata: Use continuation files for DM    =     F
redata: Neglect nonoverlap interactions  =     F
redata: Method of Calculation            =     Diagonalization
redata: Divide and Conquer               =     T
redata: Electronic Temperature           =     0.0019  Ry
redata: Fix the spin of the system       =     F
redata: Dynamics option                  =     Nose thermostat MD run
redata: Initial MD time step             =        1
redata:   Final MD time step             =      100
redata: Length of MD time step           =     0.2000  fs
redata: Initial Temperature of MD run    =     0.0000  K
redata: Perform a MD quench              =     F
redata: Nose mass                        =   100.0000  Ry/fs**2
redata: Target Temperature               =   600.0000  Kelvin
redata: ***********************************************************************
Total number of electrons:     8.000000
Total ionic charge:     8.000000

* ProcessorY, Blocksize:    2   3


* Orbital distribution balance (max,min):     3     2

 Kpoints in:            1 . Kpoints trimmed:            1

siesta: k-grid: Number of k-points =     1
siesta: k-grid: Cutoff (effective) =     3.200 Ang
siesta: k-grid: Supercell and displacements
siesta: k-grid:    1   0   0      0.000
siesta: k-grid:    0   1   0      0.000
siesta: k-grid:    0   0   1      0.000

                     ====================================
                        Begin MD step =      1
                     ====================================

outcoor: Atomic coordinates (Ang):                          
   -0.00626438    0.00493193   -0.01786527   1       1  O
    0.10909769    0.98148974   -0.06431961   2       2  H
   -0.41434794   -0.35268523   -0.84509426   2       3  H

outcell: Unit cell vectors (Ang):
        8.000000    0.000000    0.000000
        0.000000    8.000000    0.000000
        0.000000    0.000000    6.400000

outcell: Cell vector modules (Ang)   :    8.000000    8.000000    6.400000
outcell: Cell angles (23,13,12) (deg):     90.0000     90.0000     90.0000
outcell: Cell volume (Ang**3)        :    409.6000
New_DM. Step:     1
Initializing Density Matrix...
New grid distribution:   1
           1       1:   25    1:   13    1:    5
           2       1:   25    1:   13    6:   10
           3       1:   25    1:   13   11:   15
           4       1:   25    1:   13   16:   20
           5       1:   25   14:   25    1:    5
           6       1:   25   14:   25    6:   10
           7       1:   25   14:   25   11:   15
           8       1:   25   14:   25   16:   20

InitMesh: MESH =    50 x    50 x    40 =      100000
InitMesh: (bp) =    25 x    25 x    20 =       12500
InitMesh: Mesh cutoff (required, used) =   100.000   107.960 Ry
ExtMesh (bp) on 0 =    57 x    45 x    37 =       94905
New grid distribution:   2
           1       9:   25    1:    5    1:   13
           2       1:    8    1:    5    1:   14
           3       9:   25    1:    5   14:   20
           4       8:   25    6:   25   14:   20
           5       8:   25    6:   25    1:   13
           6       1:    7    6:   25    1:   14
           7       1:    8    1:    5   15:   20
           8       1:    7    6:   25   15:   20
New grid distribution:   3
           1       9:   25    1:    8    1:   12
           2       1:    8    1:    8    1:   11
           3       9:   25    1:    8   13:   20
           4       1:   18    9:   25   15:   20
           5       1:   18    9:   25    1:   14
           6      19:   25    9:   25    1:   13
           7       1:    8    1:    8   12:   20
           8      19:   25    9:   25   14:   20
Setting up quadratic distribution...
ExtMesh (bp) on 0 =    49 x    37 x    45 =       81585
PhiOnMesh: Number of (b)points on node 0 =                 1105
PhiOnMesh: nlist on node 0 =                 3829

stepf: Fermi-Dirac step function

siesta: Program's energy decomposition (eV):
siesta: Ebs     =      -121.145855
siesta: Eions   =       815.854478
siesta: Ena     =       174.984619
siesta: Ekin    =       341.667406
siesta: Enl     =       -52.534009
siesta: DEna    =        -0.000003
siesta: DUscf   =         0.000000
siesta: DUext   =         0.000000
siesta: Exc     =      -109.478640
siesta: eta*DQ  =         0.000000
siesta: Emadel  =         0.000000
siesta: Emeta   =         0.000000
siesta: Emolmec =         0.000000
siesta: Ekinion =         0.000000
siesta: Eharris =      -466.501494
siesta: Etot    =      -461.215105
siesta: FreeEng =      -461.215105

   scf: iscf   Eharris(eV)      E_KS(eV)   FreeEng(eV)    dDmax  Ef(eV)
   scf:    1     -466.5015     -461.2151     -461.2151  1.44780 -4.0668
timer: Routine,Calls,Time,% =    IterSCF     1       0.019   1.53
   scf:    2     -467.2100     -465.0235     -465.0235  0.19793  0.4383
   scf:    3     -465.9016     -465.3098     -465.3098  0.04837 -1.2938
   scf:    4     -465.8096     -465.4399     -465.4399  0.01341 -1.7357
   scf:    5     -465.8018     -465.5308     -465.5308  0.00513 -1.8512
   scf:    6     -465.8009     -465.5984     -465.5984  0.00470 -1.8788
   scf:    7     -465.8008     -465.6490     -465.6490  0.00395 -1.8833
   scf:    8     -465.8007     -465.6869     -465.6869  0.00303 -1.8824
   scf:    9     -465.8007     -465.7154     -465.7154  0.00227 -1.8807
   scf:   10     -465.8007     -465.7367     -465.7367  0.00168 -1.8793
   scf:   11     -465.8007     -465.7527     -465.7527  0.00125 -1.8784
   scf:   12     -465.8007     -465.7647     -465.7647  0.00093 -1.8777
   scf:   13     -465.8007     -465.7737     -465.7737  0.00069 -1.8773
   scf:   14     -465.8007     -465.7805     -465.7805  0.00052 -1.8770
   scf:   15     -465.8007     -465.7855     -465.7855  0.00039 -1.8768
   scf:   16     -465.8007     -465.7893     -465.7893  0.00029 -1.8767
   scf:   17     -465.8007     -465.7922     -465.7922  0.00022 -1.8766
   scf:   18     -465.8007     -465.7943     -465.7943  0.00016 -1.8766
   scf:   19     -465.8007     -465.7959     -465.7959  0.00012 -1.8765
   scf:   20     -465.8007     -465.7971     -465.7971  0.00009 -1.8765

SCF Convergence by dMax criterion
max |DM_out - DM_in|:     0.00009180
SCF cycle converged after   20 iterations

Using DM_out to compute the final energy and forces

siesta: E_KS(eV) =             -465.8007

siesta: E_KS - E_eggbox =      -465.8007

siesta: Atomic forces (eV/Ang):
     1   -0.005498   -0.002801   -0.103741
     2   -0.260800   -0.788417   -0.354751
     3    0.412750    0.760060    0.682204
----------------------------------------
   Tot    0.146453   -0.031158    0.223711
----------------------------------------
   Max    0.788417
   Res    0.476063    sqrt( Sum f_i^2 / 3N )
----------------------------------------
   Max    0.788417    constrained

Stress-tensor-Voigt (kbar):       -0.30        3.78        1.68        1.85        2.20        1.30
(Free)E + p*V (eV/cell)     -466.2401
Target enthalpy (eV/cell)     -465.8007

siesta: Stress tensor (static) (eV/Ang**3):
         0.000170    0.000971    0.000773
         0.000971    0.002479    0.001442
         0.000773    0.001442    0.001245

siesta: Pressure (static):         -2.07937996  kBar

siesta: Stress tensor (total) (eV/Ang**3):
        -0.000185    0.001157    0.000809
         0.001157    0.002357    0.001370
         0.000809    0.001370    0.001047

siesta: Pressure (total):         -1.71878275  kBar

siesta: Temp_ion =     538.796 K

                     ====================================
                        Begin MD step =      2
                     ====================================

outcoor: Atomic coordinates (Ang):                          
   -0.00646198    0.00472157   -0.01783950   1       1  O
    0.10341495    0.98340694   -0.06740676   2       2  H
   -0.40944592   -0.35629853   -0.84963794   2       3  H

outcell: Unit cell vectors (Ang):
        8.000000    0.000000    0.000000
        0.000000    8.000000    0.000000
        0.000000    0.000000    6.400000

outcell: Cell vector modules (Ang)   :    8.000000    8.000000    6.400000
outcell: Cell angles (23,13,12) (deg):     90.0000     90.0000     90.0000
outcell: Cell volume (Ang**3)        :    409.6000
New_DM. Step:     2
Re-using DM from previous geometry...
Re-using DM without extrapolation for lack of history
New grid distribution:   1
           1       1:   25    1:   13    1:    5
           2       1:   25    1:   13    6:   10
           3       1:   25    1:   13   11:   15
           4       1:   25    1:   13   16:   20
           5       1:   25   14:   25    1:    5
           6       1:   25   14:   25    6:   10
           7       1:   25   14:   25   11:   15
           8       1:   25   14:   25   16:   20

InitMesh: MESH =    50 x    50 x    40 =      100000
InitMesh: (bp) =    25 x    25 x    20 =       12500
InitMesh: Mesh cutoff (required, used) =   100.000   107.960 Ry
ExtMesh (bp) on 0 =    57 x    45 x    37 =       94905
New grid distribution:   2
           1       9:   25    1:    5    1:   13
           2       1:    8    1:    5    1:   14
           3       9:   25    1:    5   14:   20
           4       8:   25    6:   25   14:   20
           5       8:   25    6:   25    1:   13
           6       1:    7    6:   25    1:   14
           7       1:    8    1:    5   15:   20
           8       1:    7    6:   25   15:   20
New grid distribution:   3
           1       9:   25    1:    8    1:   12
           2       1:    8    1:    8    1:   11
           3       9:   25    1:    8   13:   20
           4       1:   18    9:   25   15:   20
           5       1:   18    9:   25    1:   14
           6      19:   25    9:   25    1:   13
           7       1:    8    1:    8   12:   20
           8      19:   25    9:   25   14:   20
Setting up quadratic distribution...
ExtMesh (bp) on 0 =    49 x    37 x    45 =       81585
PhiOnMesh: Number of (b)points on node 0 =                 1105
PhiOnMesh: nlist on node 0 =                 3835

   scf: iscf   Eharris(eV)      E_KS(eV)   FreeEng(eV)    dDmax  Ef(eV)
   scf:    1     -465.7977     -465.7746     -465.7746  0.01059 -1.8706
   scf:    2     -465.7977     -465.7976     -465.7976  0.00230 -1.9001
   scf:    3     -465.7977     -465.7976     -465.7976  0.00097 -1.8874
   scf:    4     -465.7977     -465.7976     -465.7976  0.00049 -1.8838
   scf:    5     -465.7977     -465.7976     -465.7976  0.00030 -1.8827
   scf:    6     -465.7977     -465.7976     -465.7976  0.00019 -1.8824
   scf:    7     -465.7977     -465.7976     -465.7976  0.00013 -1.8823
   scf:    8     -465.7977     -465.7976     -465.7976  0.00009 -1.8822

SCF Convergence by dMax criterion
max |DM_out - DM_in|:     0.00009436
SCF cycle converged after    8 iterations

Using DM_out to compute the final energy and forces

siesta: E_KS(eV) =             -465.7977

siesta: Atomic forces (eV/Ang):
     1   -0.043374    0.023508   -0.220151
     2   -0.259531   -0.855234   -0.345592
     3    0.454820    0.802141    0.788866
----------------------------------------
   Tot    0.151915   -0.029585    0.223123
----------------------------------------
   Max    0.855234
   Res    0.520866    sqrt( Sum f_i^2 / 3N )
----------------------------------------
   Max    0.855234    constrained

Stress-tensor-Voigt (kbar):       -0.25        4.10        2.03        1.92        2.32        1.44
(Free)E + p*V (eV/cell)     -466.2992
Target enthalpy (eV/cell)     -465.7977

siesta: Stress tensor (static) (eV/Ang**3):
         0.000199    0.001010    0.000860
         0.001011    0.002684    0.001521
         0.000860    0.001520    0.001465

siesta: Pressure (static):         -2.32233898  kBar

siesta: Stress tensor (total) (eV/Ang**3):
        -0.000156    0.001196    0.000895
         0.001197    0.002562    0.001449
         0.000896    0.001449    0.001268

siesta: Pressure (total):         -1.96174161  kBar

siesta: Temp_ion =     527.044 K

                     ====================================
                        Begin MD step =      3
                     ====================================

outcoor: Atomic coordinates (Ang):                          
   -0.00666062    0.00451177   -0.01781900   1       1  O
    0.09763374    0.98499969   -0.07062502   2       2  H
   -0.40437135   -0.35960753   -0.85388235   2       3  H

outcell: Unit cell vectors (Ang):
        8.000000    0.000000    0.000000
        0.000000    8.000000    0.000000
        0.000000    0.000000    6.400000

outcell: Cell vector modules (Ang)   :    8.000000    8.000000    6.400000
outcell: Cell angles (23,13,12) (deg):     90.0000     90.0000     90.0000
outcell: Cell volume (Ang**3)        :    409.6000
New_DM. Step:     3
Re-using DM from previous geometry...
Extrapolating Density Matrix...
New grid distribution:   1
           1       1:   25    1:   13    1:    5
           2       1:   25    1:   13    6:   10
           3       1:   25    1:   13   11:   15
           4       1:   25    1:   13   16:   20
           5       1:   25   14:   25    1:    5
           6       1:   25   14:   25    6:   10
           7       1:   25   14:   25   11:   15
           8       1:   25   14:   25   16:   20

InitMesh: MESH =    50 x    50 x    40 =      100000
InitMesh: (bp) =    25 x    25 x    20 =       12500
InitMesh: Mesh cutoff (required, used) =   100.000   107.960 Ry
ExtMesh (bp) on 0 =    57 x    45 x    37 =       94905
New grid distribution:   2
           1       9:   25    1:    5    1:   13
           2       1:    8    1:    5    1:   14
           3       9:   25    1:    5   14:   20
           4       8:   25    6:   25   14:   20
           5       8:   25    6:   25    1:   13
           6       1:    7    6:   25    1:   14
           7       1:    8    1:    5   15:   20
           8       1:    7    6:   25   15:   20
New grid distribution:   3
           1       9:   25    1:    8    1:   12
           2       1:    8    1:    8    1:   11
           3       9:   25    1:    8   13:   20
           4       1:   18    9:   25   15:   20
           5       1:   18    9:   25    1:   14
           6      19:   25    9:   25    1:   13
           7       1:    8    1:    8   12:   20
           8      19:   25    9:   25   14:   20
Setting up quadratic distribution...
ExtMesh (bp) on 0 =    49 x    37 x    45 =       81585
PhiOnMesh: Number of (b)points on node 0 =                 1105
PhiOnMesh: nlist on node 0 =                 3835

   scf: iscf   Eharris(eV)      E_KS(eV)   FreeEng(eV)    dDmax  Ef(eV)
   scf:    1     -465.7950     -465.7987     -465.7987  0.00060 -1.8894
   scf:    2     -465.7950     -465.7950     -465.7950  0.00020 -1.8867
   scf:    3     -465.7950     -465.7950     -465.7950  0.00008 -1.8879

SCF Convergence by dMax criterion
max |DM_out - DM_in|:     0.00007598
SCF cycle converged after    3 iterations

Using DM_out to compute the final energy and forces

siesta: E_KS(eV) =             -465.7950

siesta: Atomic forces (eV/Ang):
     1   -0.076170    0.044683   -0.324492
     2   -0.255505   -0.909261   -0.334667
     3    0.488369    0.835886    0.881213
----------------------------------------
   Tot    0.156694   -0.028692    0.222054
----------------------------------------
   Max    0.909261
   Res    0.560841    sqrt( Sum f_i^2 / 3N )
----------------------------------------
   Max    0.909261    constrained

Stress-tensor-Voigt (kbar):       -0.25        4.40        2.36        1.93        2.44        1.53
(Free)E + p*V (eV/cell)     -466.3503
Target enthalpy (eV/cell)     -465.7950

siesta: Stress tensor (static) (eV/Ang**3):
         0.000219    0.001034    0.000931
         0.001034    0.002849    0.001583
         0.000931    0.001583    0.001660

siesta: Pressure (static):         -2.52511372  kBar

siesta: Stress tensor (total) (eV/Ang**3):
        -0.000154    0.001204    0.000956
         0.001204    0.002748    0.001521
         0.000956    0.001521    0.001473

siesta: Pressure (total):         -2.17238167  kBar

siesta: Temp_ion =     516.725 K

                     ====================================
                        Begin MD step =      4
                     ====================================

outcoor: Atomic coordinates (Ang):                          
   -0.00686109    0.00430304   -0.01780627   1       1  O
    0.09175558    0.98624750   -0.07397025   2       2  H
   -0.39911149   -0.36259943   -0.85779248   2       3  H

outcell: Unit cell vectors (Ang):
        8.000000    0.000000    0.000000
        0.000000    8.000000    0.000000
        0.000000    0.000000    6.400000

outcell: Cell vector modules (Ang)   :    8.000000    8.000000    6.400000
outcell: Cell angles (23,13,12) (deg):     90.0000     90.0000     90.0000
outcell: Cell volume (Ang**3)        :    409.6000
New_DM. Step:     4
Re-using DM from previous geometry...
Extrapolating Density Matrix...
New grid distribution:   1
           1       1:   25    1:   13    1:    5
           2       1:   25    1:   13    6:   10
           3       1:   25    1:   13   11:   15
           4       1:   25    1:   13   16:   20
           5       1:   25   14:   25    1:    5
           6       1:   25   14:   25    6:   10
           7       1:   25   14:   25   11:   15
           8       1:   25   14:   25   16:   20

InitMesh: MESH =    50 x    50 x    40 =      100000
InitMesh: (bp) =    25 x    25 x    20 =       12500
InitMesh: Mesh cutoff (required, used) =   100.000   107.960 Ry
ExtMesh (bp) on 0 =    57 x    45 x    37 =       94905
New grid distribution:   2
           1       9:   25    1:    5    1:   14
           2       1:    8    1:    5    1:   14
           3       9:   25    1:    5   15:   20
           4       8:   25    6:   25   14:   20
           5       8:   25    6:   25    1:   13
           6       1:    7    6:   25    1:   14
           7       1:    8    1:    5   15:   20
           8       1:    7    6:   25   15:   20
New grid distribution:   3
           1       9:   25    1:    8    1:   12
           2       1:    8    1:    8    1:   11
           3       9:   25    1:    8   13:   20
           4       1:   18    9:   25   15:   20
           5       1:   18    9:   25    1:   14
           6      19:   25    9:   25    1:   13
           7       1:    8    1:    8   12:   20
           8      19:   25    9:   25   14:   20
Setting up quadratic distribution...
ExtMesh (bp) on 0 =    49 x    37 x    46 =       83398
PhiOnMesh: Number of (b)points on node 0 =                 1190
PhiOnMesh: nlist on node 0 =                 4101

   scf: iscf   Eharris(eV)      E_KS(eV)   FreeEng(eV)    dDmax  Ef(eV)
   scf:    1     -465.7929     -465.7969     -465.7969  0.00086 -1.8979
   scf:    2     -465.7929     -465.7929     -465.7929  0.00054 -1.8894
   scf:    3     -465.7929     -465.7929     -465.7929  0.00018 -1.8934
   scf:    4     -465.7929     -465.7929     -465.7929  0.00007 -1.8945

SCF Convergence by dMax criterion
max |DM_out - DM_in|:     0.00006652
SCF cycle converged after    4 iterations

Using DM_out to compute the final energy and forces

siesta: E_KS(eV) =             -465.7929

siesta: Atomic forces (eV/Ang):
     1   -0.102238    0.060362   -0.414076
     2   -0.248484   -0.948764   -0.322212
     3    0.512344    0.860353    0.957338
----------------------------------------
   Tot    0.161622   -0.028049    0.221049
----------------------------------------
   Max    0.957338
   Res    0.593527    sqrt( Sum f_i^2 / 3N )
----------------------------------------
   Max    0.957338    constrained

Stress-tensor-Voigt (kbar):       -0.26        4.63        2.64        1.91        2.52        1.60
(Free)E + p*V (eV/cell)     -466.3900
Target enthalpy (eV/cell)     -465.7929

siesta: Stress tensor (static) (eV/Ang**3):
         0.000228    0.001042    0.000984
         0.001042    0.002970    0.001626
         0.000984    0.001626    0.001822

siesta: Pressure (static):         -2.68148166  kBar

siesta: Stress tensor (total) (eV/Ang**3):
        -0.000164    0.001195    0.000997
         0.001195    0.002890    0.001575
         0.000996    0.001574    0.001647

siesta: Pressure (total):         -2.33565599  kBar

siesta: Temp_ion =     508.743 K

                     ====================================
                        Begin MD step =      5
                     ====================================

outcoor: Atomic coordinates (Ang):                          
   -0.00706401    0.00409575   -0.01780346   1       1  O
    0.08578314    0.98713539   -0.07743774   2       2  H
   -0.39365724   -0.36526495   -0.86133943   2       3  H

outcell: Unit cell vectors (Ang):
        8.000000    0.000000    0.000000
        0.000000    8.000000    0.000000
        0.000000    0.000000    6.400000

outcell: Cell vector modules (Ang)   :    8.000000    8.000000    6.400000
outcell: Cell angles (23,13,12) (deg):     90.0000     90.0000     90.0000
outcell: Cell volume (Ang**3)        :    409.6000
New_DM. Step:     5
Re-using DM from previous geometry...
Extrapolating Density Matrix...
New grid distribution:   1
           1       1:   25    1:   13    1:    5
           2       1:   25    1:   13    6:   10
           3       1:   25    1:   13   11:   15
           4       1:   25    1:   13   16:   20
           5       1:   25   14:   25    1:    5
           6       1:   25   14:   25    6:   10
           7       1:   25   14:   25   11:   15
           8       1:   25   14:   25   16:   20

InitMesh: MESH =    50 x    50 x    40 =      100000
InitMesh: (bp) =    25 x    25 x    20 =       12500
InitMesh: Mesh cutoff (required, used) =   100.000   107.960 Ry
ExtMesh (bp) on 0 =    57 x    45 x    37 =       94905
New grid distribution:   2
           1       9:   25    1:    6    1:   14
           2       1:    8    1:    6    1:   14
           3       9:   25    1:    6   15:   20
           4       8:   25    7:   25   14:   20
           5       8:   25    7:   25    1:   13
           6       1:    7    7:   25    1:   14
           7       1:    8    1:    6   15:   20
           8       1:    7    7:   25   15:   20
New grid distribution:   3
           1       9:   25    1:    8    1:   12
           2       1:    8    1:    8    1:   11
           3       9:   25    1:    8   13:   20
           4       1:   18    9:   25   15:   20
           5       1:   18    9:   25    1:   14
           6      19:   25    9:   25    1:   13
           7       1:    8    1:    8   12:   20
           8      19:   25    9:   25   14:   20
Setting up quadratic distribution...
ExtMesh (bp) on 0 =    49 x    38 x    46 =       85652
PhiOnMesh: Number of (b)points on node 0 =                 1428
PhiOnMesh: nlist on node 0 =                 4543

   scf: iscf   Eharris(eV)      E_KS(eV)   FreeEng(eV)    dDmax  Ef(eV)
   scf:    1     -465.7917     -465.7958     -465.7958  0.00078 -1.9037
   scf:    2     -465.7917     -465.7916     -465.7916  0.00037 -1.8981
   scf:    3     -465.7916     -465.7916     -465.7916  0.00013 -1.9007
   scf:    4     -465.7916     -465.7916     -465.7916  0.00005 -1.9014

SCF Convergence by dMax criterion
max |DM_out - DM_in|:     0.00005307
SCF cycle converged after    4 iterations

Using DM_out to compute the final energy and forces

siesta: E_KS(eV) =             -465.7916

siesta: Atomic forces (eV/Ang):
     1   -0.121931    0.071600   -0.489244
     2   -0.238980   -0.974040   -0.308265
     3    0.527441    0.875814    1.017606
----------------------------------------
   Tot    0.166530   -0.026626    0.220098
----------------------------------------
   Max    1.017606
   Res    0.618332    sqrt( Sum f_i^2 / 3N )
----------------------------------------
   Max    1.017606    constrained

Stress-tensor-Voigt (kbar):       -0.29        4.79        2.87        1.88        2.58        1.63
(Free)E + p*V (eV/cell)     -466.4195
Target enthalpy (eV/cell)     -465.7916

siesta: Stress tensor (static) (eV/Ang**3):
         0.000229    0.001038    0.001020
         0.001038    0.003052    0.001654
         0.001020    0.001654    0.001956

siesta: Pressure (static):         -2.79638610  kBar

siesta: Stress tensor (total) (eV/Ang**3):
        -0.000183    0.001171    0.001019
         0.001171    0.002989    0.001610
         0.001019    0.001610    0.001793

siesta: Pressure (total):         -2.45590254  kBar

siesta: Temp_ion =     503.841 K

                     ====================================
                        Begin MD step =      6
                     ====================================

outcoor: Atomic coordinates (Ang):                          
   -0.00726984    0.00389018   -0.01781236   1       1  O
    0.07971999    0.98765376   -0.08102218   2       2  H
   -0.38800287   -0.36759823   -0.86450036   2       3  H

outcell: Unit cell vectors (Ang):
        8.000000    0.000000    0.000000
        0.000000    8.000000    0.000000
        0.000000    0.000000    6.400000

outcell: Cell vector modules (Ang)   :    8.000000    8.000000    6.400000
outcell: Cell angles (23,13,12) (deg):     90.0000     90.0000     90.0000
outcell: Cell volume (Ang**3)        :    409.6000
New_DM. Step:     6
Re-using DM from previous geometry...
Extrapolating Density Matrix...
New grid distribution:   1
           1       1:   25    1:   13    1:    5
           2       1:   25    1:   13    6:   10
           3       1:   25    1:   13   11:   15
           4       1:   25    1:   13   16:   20
           5       1:   25   14:   25    1:    5
           6       1:   25   14:   25    6:   10
           7       1:   25   14:   25   11:   15
           8       1:   25   14:   25   16:   20

InitMesh: MESH =    50 x    50 x    40 =      100000
InitMesh: (bp) =    25 x    25 x    20 =       12500
InitMesh: Mesh cutoff (required, used) =   100.000   107.960 Ry
ExtMesh (bp) on 0 =    57 x    45 x    37 =       94905
New grid distribution:   2
           1       9:   25    1:    6    1:   14
           2       1:    8    1:    6    1:   14
           3       9:   25    1:    6   15:   20
           4       8:   25    7:   25   14:   20
           5       8:   25    7:   25    1:   13
           6       1:    7    7:   25    1:   14
           7       1:    8    1:    6   15:   20
           8       1:    7    7:   25   15:   20
New grid distribution:   3
           1       9:   25    1:    8    1:   12
           2       1:    8    1:    8    1:   11
           3       9:   25    1:    8   13:   20
           4       1:   18    9:   25   15:   20
           5       1:   18    9:   25    1:   14
           6      19:   25    9:   25    1:   13
           7       1:    8    1:    8   12:   20
           8      19:   25    9:   25   14:   20
Setting up quadratic distribution...
ExtMesh (bp) on 0 =    49 x    38 x    46 =       85652
PhiOnMesh: Number of (b)points on node 0 =                 1428
PhiOnMesh: nlist on node 0 =                 4531

   scf: iscf   Eharris(eV)      E_KS(eV)   FreeEng(eV)    dDmax  Ef(eV)
   scf:    1     -465.7913     -465.7956     -465.7956  0.00076 -1.9102
   scf:    2     -465.7913     -465.7913     -465.7913  0.00030 -1.9059
   scf:    3     -465.7913     -465.7913     -465.7913  0.00011 -1.9079
   scf:    4     -465.7913     -465.7913     -465.7913  0.00005 -1.9084

SCF Convergence by dMax criterion
max |DM_out - DM_in|:     0.00004714
SCF cycle converged after    4 iterations

Using DM_out to compute the final energy and forces

siesta: E_KS(eV) =             -465.7913

siesta: Atomic forces (eV/Ang):
     1   -0.135313    0.078577   -0.549241
     2   -0.227228   -0.985408   -0.292926
     3    0.533734    0.881410    1.061156
----------------------------------------
   Tot    0.171193   -0.025421    0.218989
----------------------------------------
   Max    1.061156
   Res    0.634422    sqrt( Sum f_i^2 / 3N )
----------------------------------------
   Max    1.061156    constrained

Stress-tensor-Voigt (kbar):       -0.34        4.88        3.05        1.81        2.60        1.64
(Free)E + p*V (eV/cell)     -466.4376
Target enthalpy (eV/cell)     -465.7913

siesta: Stress tensor (static) (eV/Ang**3):
         0.000220    0.001019    0.001038
         0.001019    0.003090    0.001662
         0.001038    0.001662    0.002054

siesta: Pressure (static):         -2.86505631  kBar

siesta: Stress tensor (total) (eV/Ang**3):
        -0.000212    0.001131    0.001022
         0.001131    0.003043    0.001624
         0.001022    0.001624    0.001903

siesta: Pressure (total):         -2.52785312  kBar

siesta: Temp_ion =     502.567 K

                     ====================================
                        Begin MD step =      7
                     ====================================

outcoor: Atomic coordinates (Ang):                          
   -0.00747892    0.00368649   -0.01783442   1       1  O
    0.07357061    0.98779830   -0.08471778   2       2  H
   -0.38214598   -0.36959715   -0.86725874   2       3  H

outcell: Unit cell vectors (Ang):
        8.000000    0.000000    0.000000
        0.000000    8.000000    0.000000
        0.000000    0.000000    6.400000

outcell: Cell vector modules (Ang)   :    8.000000    8.000000    6.400000
outcell: Cell angles (23,13,12) (deg):     90.0000     90.0000     90.0000
outcell: Cell volume (Ang**3)        :    409.6000
New_DM. Step:     7
Re-using DM from previous geometry...
Extrapolating Density Matrix...
New grid distribution:   1
           1       1:   25    1:   13    1:    5
           2       1:   25    1:   13    6:   10
           3       1:   25    1:   13   11:   15
           4       1:   25    1:   13   16:   20
           5       1:   25   14:   25    1:    5
           6       1:   25   14:   25    6:   10
           7       1:   25   14:   25   11:   15
           8       1:   25   14:   25   16:   20

InitMesh: MESH =    50 x    50 x    40 =      100000
InitMesh: (bp) =    25 x    25 x    20 =       12500
InitMesh: Mesh cutoff (required, used) =   100.000   107.960 Ry
ExtMesh (bp) on 0 =    57 x    45 x    37 =       94905
New grid distribution:   2
           1       9:   25    1:    6    1:   14
           2       1:    8    1:    6    1:   14
           3       9:   25    1:    6   15:   20
           4       8:   25    7:   25   14:   20
           5       8:   25    7:   25    1:   13
           6       1:    7    7:   25    1:   14
           7       1:    8    1:    6   15:   20
           8       1:    7    7:   25   15:   20
New grid distribution:   3
           1       9:   25    1:    8    1:   12
           2       1:    8    1:    8    1:   11
           3       9:   25    1:    8   13:   20
           4       1:   18    9:   25   15:   20
           5       1:   18    9:   25    1:   14
           6      19:   25    9:   25    1:   13
           7       1:    8    1:    8   12:   20
           8      19:   25    9:   25   14:   20
Setting up quadratic distribution...
ExtMesh (bp) on 0 =    49 x    38 x    46 =       85652
PhiOnMesh: Number of (b)points on node 0 =                 1428
PhiOnMesh: nlist on node 0 =                 4537

   scf: iscf   Eharris(eV)      E_KS(eV)   FreeEng(eV)    dDmax  Ef(eV)
   scf:    1     -465.7920     -465.7963     -465.7963  0.00077 -1.9174
   scf:    2     -465.7920     -465.7920     -465.7920  0.00032 -1.9129
   scf:    3     -465.7920     -465.7920     -465.7920  0.00011 -1.9150
   scf:    4     -465.7920     -465.7920     -465.7920  0.00005 -1.9155

SCF Convergence by dMax criterion
max |DM_out - DM_in|:     0.00004785
SCF cycle converged after    4 iterations

Using DM_out to compute the final energy and forces

siesta: E_KS(eV) =             -465.7920

siesta: Atomic forces (eV/Ang):
     1   -0.142254    0.081416   -0.593584
     2   -0.213236   -0.982174   -0.276008
     3    0.531729    0.877208    1.087998
----------------------------------------
   Tot    0.176238   -0.023550    0.218406
----------------------------------------
   Max    1.087998
   Res    0.641309    sqrt( Sum f_i^2 / 3N )
----------------------------------------
   Max    1.087998    constrained

Stress-tensor-Voigt (kbar):       -0.40        4.88        3.17        1.72        2.59        1.61
(Free)E + p*V (eV/cell)     -466.4436
Target enthalpy (eV/cell)     -465.7920

siesta: Stress tensor (static) (eV/Ang**3):
         0.000204    0.000987    0.001039
         0.000987    0.003082    0.001649
         0.001039    0.001649    0.002116

siesta: Pressure (static):         -2.88500296  kBar

siesta: Stress tensor (total) (eV/Ang**3):
        -0.000251    0.001075    0.001005
         0.001075    0.003047    0.001616
         0.001005    0.001615    0.001976

siesta: Pressure (total):         -2.54865273  kBar

siesta: Temp_ion =     505.238 K

                     ====================================
                        Begin MD step =      8
                     ====================================

outcoor: Atomic coordinates (Ang):                          
   -0.00769141    0.00348475   -0.01787069   1       1  O
    0.06734028    0.98757024   -0.08851812   2       2  H
   -0.37608732   -0.37126330   -0.86960439   2       3  H

outcell: Unit cell vectors (Ang):
        8.000000    0.000000    0.000000
        0.000000    8.000000    0.000000
        0.000000    0.000000    6.400000

outcell: Cell vector modules (Ang)   :    8.000000    8.000000    6.400000
outcell: Cell angles (23,13,12) (deg):     90.0000     90.0000     90.0000
outcell: Cell volume (Ang**3)        :    409.6000
New_DM. Step:     8
Re-using DM from previous geometry...
Extrapolating Density Matrix...
New grid distribution:   1
           1       1:   25    1:   13    1:    5
           2       1:   25    1:   13    6:   10
           3       1:   25    1:   13   11:   15
           4       1:   25    1:   13   16:   20
           5       1:   25   14:   25    1:    5
           6       1:   25   14:   25    6:   10
           7       1:   25   14:   25   11:   15
           8       1:   25   14:   25   16:   20

InitMesh: MESH =    50 x    50 x    40 =      100000
InitMesh: (bp) =    25 x    25 x    20 =       12500
InitMesh: Mesh cutoff (required, used) =   100.000   107.960 Ry
ExtMesh (bp) on 0 =    57 x    45 x    37 =       94905
New grid distribution:   2
           1       9:   25    1:    6    1:   14
           2       1:    8    1:    6    1:   14
           3       9:   25    1:    6   15:   20
           4       8:   25    7:   25   14:   20
           5       8:   25    7:   25    1:   13
           6       1:    7    7:   25    1:   14
           7       1:    8    1:    6   15:   20
           8       1:    7    7:   25   15:   20
New grid distribution:   3
           1       9:   25    1:    8    1:   12
           2       1:    8    1:    8    1:   12
           3       9:   25    1:    8   13:   20
           4       1:   18    9:   25   15:   20
           5       1:   18    9:   25    1:   14
           6      19:   25    9:   25    1:   13
           7       1:    8    1:    8   13:   20
           8      19:   25    9:   25   14:   20
Setting up quadratic distribution...
ExtMesh (bp) on 0 =    49 x    38 x    46 =       85652
PhiOnMesh: Number of (b)points on node 0 =                 1428
PhiOnMesh: nlist on node 0 =                 4544

   scf: iscf   Eharris(eV)      E_KS(eV)   FreeEng(eV)    dDmax  Ef(eV)
   scf:    1     -465.7937     -465.7981     -465.7981  0.00079 -1.9250
   scf:    2     -465.7937     -465.7937     -465.7937  0.00035 -1.9198
   scf:    3     -465.7937     -465.7937     -465.7937  0.00012 -1.9222
   scf:    4     -465.7937     -465.7937     -465.7937  0.00005 -1.9229

SCF Convergence by dMax criterion
max |DM_out - DM_in|:     0.00004988
SCF cycle converged after    4 iterations

Using DM_out to compute the final energy and forces

siesta: E_KS(eV) =             -465.7937

siesta: Atomic forces (eV/Ang):
     1   -0.142886    0.080593   -0.622020
     2   -0.197746   -0.965344   -0.258217
     3    0.521775    0.863142    1.097986
----------------------------------------
   Tot    0.181143   -0.021609    0.217748
----------------------------------------
   Max    1.097986
   Res    0.638951    sqrt( Sum f_i^2 / 3N )
----------------------------------------
   Max    1.097986    constrained

Stress-tensor-Voigt (kbar):       -0.47        4.82        3.23        1.62        2.54        1.56
(Free)E + p*V (eV/cell)     -466.4390
Target enthalpy (eV/cell)     -465.7937

siesta: Stress tensor (static) (eV/Ang**3):
         0.000181    0.000945    0.001024
         0.000945    0.003034    0.001619
         0.001024    0.001618    0.002145

siesta: Pressure (static):         -2.86222666  kBar

siesta: Stress tensor (total) (eV/Ang**3):
        -0.000296    0.001008    0.000972
         0.001008    0.003008    0.001587
         0.000972    0.001587    0.002013

siesta: Pressure (total):         -2.52408886  kBar

siesta: Temp_ion =     511.933 K

                     ====================================
                        Begin MD step =      9
                     ====================================

outcoor: Atomic coordinates (Ang):                          
   -0.00790732    0.00328494   -0.01792186   1       1  O
    0.06103487    0.98697595   -0.09241646   2       2  H
   -0.36983065   -0.37260201   -0.87153352   2       3  H

outcell: Unit cell vectors (Ang):
        8.000000    0.000000    0.000000
        0.000000    8.000000    0.000000
        0.000000    0.000000    6.400000

outcell: Cell vector modules (Ang)   :    8.000000    8.000000    6.400000
outcell: Cell angles (23,13,12) (deg):     90.0000     90.0000     90.0000
outcell: Cell volume (Ang**3)        :    409.6000
New_DM. Step:     9
Re-using DM from previous geometry...
Extrapolating Density Matrix...
New grid distribution:   1
           1       1:   25    1:   13    1:    5
           2       1:   25    1:   13    6:   10
           3       1:   25    1:   13   11:   15
           4       1:   25    1:   13   16:   20
           5       1:   25   14:   25    1:    5
           6       1:   25   14:   25    6:   10
           7       1:   25   14:   25   11:   15
           8       1:   25   14:   25   16:   20

InitMesh: MESH =    50 x    50 x    40 =      100000
InitMesh: (bp) =    25 x    25 x    20 =       12500
InitMesh: Mesh cutoff (required, used) =   100.000   107.960 Ry
ExtMesh (bp) on 0 =    57 x    45 x    37 =       94905
New grid distribution:   2
           1       9:   25    1:    6    1:   14
           2       1:    8    1:    6    1:   14
           3       9:   25    1:    6   15:   20
           4       8:   25    7:   25   14:   20
           5       8:   25    7:   25    1:   13
           6       1:    7    7:   25    1:   14
           7       1:    8    1:    6   15:   20
           8       1:    7    7:   25   15:   20
New grid distribution:   3
           1       9:   25    1:    8    1:   12
           2       1:    8    1:    8    1:   12
           3       9:   25    1:    8   13:   20
           4       1:   18    9:   25   15:   20
           5       1:   18    9:   25    1:   14
           6      19:   25    9:   25    1:   13
           7       1:    8    1:    8   13:   20
           8      19:   25    9:   25   14:   20
Setting up quadratic distribution...
ExtMesh (bp) on 0 =    49 x    38 x    46 =       85652
PhiOnMesh: Number of (b)points on node 0 =                 1428
PhiOnMesh: nlist on node 0 =                 4538

   scf: iscf   Eharris(eV)      E_KS(eV)   FreeEng(eV)    dDmax  Ef(eV)
   scf:    1     -465.7965     -465.8008     -465.8008  0.00079 -1.9326
   scf:    2     -465.7965     -465.7965     -465.7965  0.00036 -1.9273
   scf:    3     -465.7965     -465.7965     -465.7965  0.00012 -1.9298
   scf:    4     -465.7965     -465.7965     -465.7965  0.00005 -1.9304

SCF Convergence by dMax criterion
max |DM_out - DM_in|:     0.00005024
SCF cycle converged after    4 iterations

Using DM_out to compute the final energy and forces

siesta: E_KS(eV) =             -465.7965

siesta: Atomic forces (eV/Ang):
     1   -0.137728    0.075055   -0.634147
     2   -0.180776   -0.934521   -0.239374
     3    0.504310    0.839051    1.090823
----------------------------------------
   Tot    0.185806   -0.020415    0.217302
----------------------------------------
   Max    1.090823
   Res    0.627011    sqrt( Sum f_i^2 / 3N )
----------------------------------------
   Max    1.090823    constrained

Stress-tensor-Voigt (kbar):       -0.56        4.68        3.22        1.49        2.46        1.48
(Free)E + p*V (eV/cell)     -466.4225
Target enthalpy (eV/cell)     -465.7965

siesta: Stress tensor (static) (eV/Ang**3):
         0.000151    0.000890    0.000993
         0.000890    0.002939    0.001568
         0.000993    0.001568    0.002137

siesta: Pressure (static):         -2.79127122  kBar

siesta: Stress tensor (total) (eV/Ang**3):
        -0.000347    0.000928    0.000922
         0.000928    0.002919    0.001537
         0.000922    0.001536    0.002012

siesta: Pressure (total):         -2.44865244  kBar

siesta: Temp_ion =     522.493 K

                     ====================================
                        Begin MD step =     10
                     ====================================

outcoor: Atomic coordinates (Ang):                          
   -0.00812653    0.00308692   -0.01798821   1       1  O
    0.05466080    0.98602712   -0.09640565   2       2  H
   -0.36338260   -0.37362242   -0.87304884   2       3  H

outcell: Unit cell vectors (Ang):
        8.000000    0.000000    0.000000
        0.000000    8.000000    0.000000
        0.000000    0.000000    6.400000

outcell: Cell vector modules (Ang)   :    8.000000    8.000000    6.400000
outcell: Cell angles (23,13,12) (deg):     90.0000     90.0000     90.0000
outcell: Cell volume (Ang**3)        :    409.6000
New_DM. Step:    10
Re-using DM from previous geometry...
Extrapolating Density Matrix...
New grid distribution:   1
           1       1:   25    1:   13    1:    5
           2       1:   25    1:   13    6:   10
           3       1:   25    1:   13   11:   15
           4       1:   25    1:   13   16:   20
           5       1:   25   14:   25    1:    5
           6       1:   25   14:   25    6:   10
           7       1:   25   14:   25   11:   15
           8       1:   25   14:   25   16:   20

InitMesh: MESH =    50 x    50 x    40 =      100000
InitMesh: (bp) =    25 x    25 x    20 =       12500
InitMesh: Mesh cutoff (required, used) =   100.000   107.960 Ry
ExtMesh (bp) on 0 =    57 x    45 x    37 =       94905
New grid distribution:   2
           1       9:   25    1:    6    1:   14
           2       1:    8    1:    6    1:   14
           3       9:   25    1:    6   15:   20
           4       8:   25    7:   25   14:   20
           5       8:   25    7:   25    1:   13
           6       1:    7    7:   25    1:   14
           7       1:    8    1:    6   15:   20
           8       1:    7    7:   25   15:   20
New grid distribution:   3
           1       9:   25    1:    8    1:   12
           2       1:    8    1:    8    1:   12
           3       9:   25    1:    8   13:   20
           4       1:   18    9:   25   15:   20
           5       1:   18    9:   25    1:   14
           6      19:   25    9:   25    1:   13
           7       1:    8    1:    8   13:   20
           8      19:   25    9:   25   14:   20
Setting up quadratic distribution...
ExtMesh (bp) on 0 =    49 x    38 x    46 =       85652
PhiOnMesh: Number of (b)points on node 0 =                 1428
PhiOnMesh: nlist on node 0 =                 4531

   scf: iscf   Eharris(eV)      E_KS(eV)   FreeEng(eV)    dDmax  Ef(eV)
   scf:    1     -465.8001     -465.8043     -465.8043  0.00078 -1.9405
   scf:    2     -465.8001     -465.8001     -465.8001  0.00035 -1.9353
   scf:    3     -465.8001     -465.8001     -465.8001  0.00012 -1.9377
   scf:    4     -465.8001     -465.8001     -465.8001  0.00005 -1.9384

SCF Convergence by dMax criterion
max |DM_out - DM_in|:     0.00004879
SCF cycle converged after    4 iterations

Using DM_out to compute the final energy and forces

siesta: E_KS(eV) =             -465.8001

siesta: Atomic forces (eV/Ang):
     1   -0.126595    0.066398   -0.629850
     2   -0.162540   -0.889436   -0.219441
     3    0.479904    0.805037    1.066580
----------------------------------------
   Tot    0.190769   -0.018001    0.217288
----------------------------------------
   Max    1.066580
   Res    0.605420    sqrt( Sum f_i^2 / 3N )
----------------------------------------
   Max    1.066580    constrained

Stress-tensor-Voigt (kbar):       -0.65        4.46        3.16        1.34        2.35        1.37
(Free)E + p*V (eV/cell)     -466.3943
Target enthalpy (eV/cell)     -465.8001

siesta: Stress tensor (static) (eV/Ang**3):
         0.000116    0.000826    0.000947
         0.000826    0.002800    0.001498
         0.000947    0.001498    0.002091

siesta: Pressure (static):         -2.67413037  kBar

siesta: Stress tensor (total) (eV/Ang**3):
        -0.000403    0.000838    0.000856
         0.000838    0.002783    0.001465
         0.000856    0.001465    0.001973

siesta: Pressure (total):         -2.32444447  kBar

siesta: Temp_ion =     536.509 K

                     ====================================
                        Begin MD step =     11
                     ====================================

outcoor: Atomic coordinates (Ang):                          
   -0.00834877    0.00289048   -0.01806965   1       1  O
    0.04822500    0.98474086   -0.10047814   2       2  H
   -0.35675240   -0.37433745   -0.87415956   2       3  H

outcell: Unit cell vectors (Ang):
        8.000000    0.000000    0.000000
        0.000000    8.000000    0.000000
        0.000000    0.000000    6.400000

outcell: Cell vector modules (Ang)   :    8.000000    8.000000    6.400000
outcell: Cell angles (23,13,12) (deg):     90.0000     90.0000     90.0000
outcell: Cell volume (Ang**3)        :    409.6000
New_DM. Step:    11
Re-using DM from previous geometry...
Extrapolating Density Matrix...
New grid distribution:   1
           1       1:   25    1:   13    1:    5
           2       1:   25    1:   13    6:   10
           3       1:   25    1:   13   11:   15
           4       1:   25    1:   13   16:   20
           5       1:   25   14:   25    1:    5
           6       1:   25   14:   25    6:   10
           7       1:   25   14:   25   11:   15
           8       1:   25   14:   25   16:   20

InitMesh: MESH =    50 x    50 x    40 =      100000
InitMesh: (bp) =    25 x    25 x    20 =       12500
InitMesh: Mesh cutoff (required, used) =   100.000   107.960 Ry
ExtMesh (bp) on 0 =    57 x    45 x    37 =       94905
New grid distribution:   2
           1       9:   25    1:    6    1:   14
           2       1:    8    1:    6    1:   14
           3       9:   25    1:    6   15:   20
           4       8:   25    7:   25   14:   20
           5       8:   25    7:   25    1:   13
           6       1:    7    7:   25    1:   14
           7       1:    8    1:    6   15:   20
           8       1:    7    7:   25   15:   20
New grid distribution:   3
           1       9:   25    1:    8    1:   12
           2       1:    8    1:    8    1:   12
           3       9:   25    1:    8   13:   20
           4       1:   18    9:   25   15:   20
           5       1:   18    9:   25    1:   14
           6      19:   25    9:   25    1:   13
           7       1:    8    1:    8   13:   20
           8      19:   25    9:   25   14:   20
Setting up quadratic distribution...
ExtMesh (bp) on 0 =    49 x    38 x    46 =       85652
PhiOnMesh: Number of (b)points on node 0 =                 1428
PhiOnMesh: nlist on node 0 =                 4539

   scf: iscf   Eharris(eV)      E_KS(eV)   FreeEng(eV)    dDmax  Ef(eV)
   scf:    1     -465.8045     -465.8085     -465.8085  0.00075 -1.9488
   scf:    2     -465.8045     -465.8044     -465.8044  0.00033 -1.9440
   scf:    3     -465.8045     -465.8045     -465.8045  0.00011 -1.9462
   scf:    4     -465.8045     -465.8045     -465.8045  0.00005 -1.9468

SCF Convergence by dMax criterion
max |DM_out - DM_in|:     0.00004637
SCF cycle converged after    4 iterations

Using DM_out to compute the final energy and forces

siesta: E_KS(eV) =             -465.8045

siesta: Atomic forces (eV/Ang):
     1   -0.109560    0.054938   -0.609009
     2   -0.143775   -0.831929   -0.199022
     3    0.449075    0.761104    1.025330
----------------------------------------
   Tot    0.195741   -0.015887    0.217300
----------------------------------------
   Max    1.025330
   Res    0.574509    sqrt( Sum f_i^2 / 3N )
----------------------------------------
   Max    1.025330    constrained

Stress-tensor-Voigt (kbar):       -0.74        4.17        3.04        1.19        2.20        1.24
(Free)E + p*V (eV/cell)     -466.3556
Target enthalpy (eV/cell)     -465.8045

siesta: Stress tensor (static) (eV/Ang**3):
         0.000077    0.000754    0.000888
         0.000754    0.002622    0.001411
         0.000888    0.001411    0.002010

siesta: Pressure (static):         -2.51504911  kBar

siesta: Stress tensor (total) (eV/Ang**3):
        -0.000463    0.000740    0.000776
         0.000740    0.002605    0.001374
         0.000776    0.001373    0.001895

siesta: Pressure (total):         -2.15598228  kBar

siesta: Temp_ion =     553.363 K

                     ====================================
                        Begin MD step =     12
                     ====================================

outcoor: Atomic coordinates (Ang):                          
   -0.00857365    0.00269537   -0.01816568   1       1  O
    0.04173457    0.98313897   -0.10462618   2       2  H
   -0.34995176   -0.37476374   -0.87488131   2       3  H

outcell: Unit cell vectors (Ang):
        8.000000    0.000000    0.000000
        0.000000    8.000000    0.000000
        0.000000    0.000000    6.400000

outcell: Cell vector modules (Ang)   :    8.000000    8.000000    6.400000
outcell: Cell angles (23,13,12) (deg):     90.0000     90.0000     90.0000
outcell: Cell volume (Ang**3)        :    409.6000
New_DM. Step:    12
Re-using DM from previous geometry...
Extrapolating Density Matrix...
New grid distribution:   1
           1       1:   25    1:   13    1:    5
           2       1:   25    1:   13    6:   10
           3       1:   25    1:   13   11:   15
           4       1:   25    1:   13   16:   20
           5       1:   25   14:   25    1:    5
           6       1:   25   14:   25    6:   10
           7       1:   25   14:   25   11:   15
           8       1:   25   14:   25   16:   20

InitMesh: MESH =    50 x    50 x    40 =      100000
InitMesh: (bp) =    25 x    25 x    20 =       12500
InitMesh: Mesh cutoff (required, used) =   100.000   107.960 Ry
ExtMesh (bp) on 0 =    57 x    45 x    37 =       94905
New grid distribution:   2
           1       9:   25    1:    6    1:   14
           2       1:    8    1:    6    1:   14
           3       9:   25    1:    6   15:   20
           4       8:   25    7:   25   14:   20
           5       8:   25    7:   25    1:   13
           6       1:    7    7:   25    1:   14
           7       1:    8    1:    6   15:   20
           8       1:    7    7:   25   15:   20
New grid distribution:   3
           1       9:   25    1:    8    1:   12
           2       1:    8    1:    8    1:   12
           3       9:   25    1:    8   13:   20
           4       1:   18    9:   25   15:   20
           5       1:   18    9:   25    1:   14
           6      19:   25    9:   25    1:   13
           7       1:    8    1:    8   13:   20
           8      19:   25    9:   25   14:   20
Setting up quadratic distribution...
ExtMesh (bp) on 0 =    49 x    38 x    46 =       85652
PhiOnMesh: Number of (b)points on node 0 =                 1428
PhiOnMesh: nlist on node 0 =                 4534

   scf: iscf   Eharris(eV)      E_KS(eV)   FreeEng(eV)    dDmax  Ef(eV)
   scf:    1     -465.8093     -465.8132     -465.8132  0.00071 -1.9577
   scf:    2     -465.8093     -465.8093     -465.8093  0.00031 -1.9532
   scf:    3     -465.8093     -465.8093     -465.8093  0.00010 -1.9553
   scf:    4     -465.8093     -465.8093     -465.8093  0.00004 -1.9558

SCF Convergence by dMax criterion
max |DM_out - DM_in|:     0.00004343
SCF cycle converged after    4 iterations

Using DM_out to compute the final energy and forces

siesta: E_KS(eV) =             -465.8093

siesta: Atomic forces (eV/Ang):
     1   -0.086959    0.040753   -0.571361
     2   -0.124458   -0.761721   -0.177915
     3    0.412328    0.707269    0.967161
----------------------------------------
   Tot    0.200911   -0.013699    0.217884
----------------------------------------
   Max    0.967161
   Res    0.534237    sqrt( Sum f_i^2 / 3N )
----------------------------------------
   Max    0.967161    constrained

Stress-tensor-Voigt (kbar):       -0.84        3.82        2.85        1.02        2.02        1.09
(Free)E + p*V (eV/cell)     -466.3055
Target enthalpy (eV/cell)     -465.8093

siesta: Stress tensor (static) (eV/Ang**3):
         0.000033    0.000675    0.000815
         0.000675    0.002403    0.001306
         0.000815    0.001305    0.001891

siesta: Pressure (static):         -2.31103458  kBar

siesta: Stress tensor (total) (eV/Ang**3):
        -0.000527    0.000635    0.000683
         0.000635    0.002384    0.001263
         0.000683    0.001262    0.001776

siesta: Pressure (total):         -1.94068790  kBar

siesta: Temp_ion =     572.249 K

                     ====================================
                        Begin MD step =     13
                     ====================================

outcoor: Atomic coordinates (Ang):                          
   -0.00880060    0.00250122   -0.01827539   1       1  O
    0.03519684    0.98124809   -0.10884178   2       2  H
   -0.34299459   -0.37492172   -0.87523616   2       3  H

outcell: Unit cell vectors (Ang):
        8.000000    0.000000    0.000000
        0.000000    8.000000    0.000000
        0.000000    0.000000    6.400000

outcell: Cell vector modules (Ang)   :    8.000000    8.000000    6.400000
outcell: Cell angles (23,13,12) (deg):     90.0000     90.0000     90.0000
outcell: Cell volume (Ang**3)        :    409.6000
New_DM. Step:    13
Re-using DM from previous geometry...
Extrapolating Density Matrix...
New grid distribution:   1
           1       1:   25    1:   13    1:    5
           2       1:   25    1:   13    6:   10
           3       1:   25    1:   13   11:   15
           4       1:   25    1:   13   16:   20
           5       1:   25   14:   25    1:    5
           6       1:   25   14:   25    6:   10
           7       1:   25   14:   25   11:   15
           8       1:   25   14:   25   16:   20

InitMesh: MESH =    50 x    50 x    40 =      100000
InitMesh: (bp) =    25 x    25 x    20 =       12500
InitMesh: Mesh cutoff (required, used) =   100.000   107.960 Ry
ExtMesh (bp) on 0 =    57 x    45 x    37 =       94905
New grid distribution:   2
           1       9:   25    1:    6    1:   14
           2       1:    8    1:    6    1:   14
           3       9:   25    1:    6   15:   20
           4       8:   25    7:   25   14:   20
           5       8:   25    7:   25    1:   13
           6       1:    7    7:   25    1:   14
           7       1:    8    1:    6   15:   20
           8       1:    7    7:   25   15:   20
New grid distribution:   3
           1      10:   25    1:    8    1:   12
           2       1:    9    1:    8   13:   20
           3      10:   25    1:    8   13:   20
           4       1:   18    9:   25   15:   20
           5       1:   18    9:   25    1:   14
           6      19:   25    9:   25    1:   13
           7       1:    9    1:    8    1:   12
           8      19:   25    9:   25   14:   20
Setting up quadratic distribution...
ExtMesh (bp) on 0 =    49 x    38 x    46 =       85652
PhiOnMesh: Number of (b)points on node 0 =                 1428
PhiOnMesh: nlist on node 0 =                 4531

   scf: iscf   Eharris(eV)      E_KS(eV)   FreeEng(eV)    dDmax  Ef(eV)
   scf:    1     -465.8145     -465.8181     -465.8181  0.00066 -1.9673
   scf:    2     -465.8145     -465.8145     -465.8145  0.00028 -1.9633
   scf:    3     -465.8145     -465.8145     -465.8145  0.00010 -1.9651

SCF Convergence by dMax criterion
max |DM_out - DM_in|:     0.00009548
SCF cycle converged after    3 iterations

Using DM_out to compute the final energy and forces

siesta: E_KS(eV) =             -465.8145

siesta: Atomic forces (eV/Ang):
     1   -0.059243    0.025547   -0.518530
     2   -0.105221   -0.681121   -0.156370
     3    0.370650    0.644243    0.893061
----------------------------------------
   Tot    0.206186   -0.011332    0.218161
----------------------------------------
   Max    0.893061
   Res    0.485624    sqrt( Sum f_i^2 / 3N )
----------------------------------------
   Max    0.893061    constrained

Stress-tensor-Voigt (kbar):       -0.94        3.41        2.60        0.84        1.82        0.93
(Free)E + p*V (eV/cell)     -466.2465
Target enthalpy (eV/cell)     -465.8145

siesta: Stress tensor (static) (eV/Ang**3):
        -0.000011    0.000591    0.000733
         0.000591    0.002153    0.001184
         0.000733    0.001184    0.001740

siesta: Pressure (static):         -2.07287450  kBar

siesta: Stress tensor (total) (eV/Ang**3):
        -0.000590    0.000527    0.000580
         0.000527    0.002129    0.001134
         0.000580    0.001134    0.001625

siesta: Pressure (total):         -1.68988827  kBar

siesta: Temp_ion =     592.218 K

                     ====================================
                        Begin MD step =     14
                     ====================================

outcoor: Atomic coordinates (Ang):                          
   -0.00902898    0.00230769   -0.01839751   1       1  O
    0.02861910    0.97909878   -0.11311675   2       2  H
   -0.33589672   -0.37483529   -0.87525221   2       3  H

outcell: Unit cell vectors (Ang):
        8.000000    0.000000    0.000000
        0.000000    8.000000    0.000000
        0.000000    0.000000    6.400000

outcell: Cell vector modules (Ang)   :    8.000000    8.000000    6.400000
outcell: Cell angles (23,13,12) (deg):     90.0000     90.0000     90.0000
outcell: Cell volume (Ang**3)        :    409.6000
New_DM. Step:    14
Re-using DM from previous geometry...
Extrapolating Density Matrix...
New grid distribution:   1
           1       1:   25    1:   13    1:    5
           2       1:   25    1:   13    6:   10
           3       1:   25    1:   13   11:   15
           4       1:   25    1:   13   16:   20
           5       1:   25   14:   25    1:    5
           6       1:   25   14:   25    6:   10
           7       1:   25   14:   25   11:   15
           8       1:   25   14:   25   16:   20

InitMesh: MESH =    50 x    50 x    40 =      100000
InitMesh: (bp) =    25 x    25 x    20 =       12500
InitMesh: Mesh cutoff (required, used) =   100.000   107.960 Ry
ExtMesh (bp) on 0 =    57 x    45 x    37 =       94905
New grid distribution:   2
           1       9:   25    1:    6    1:   14
           2       1:    8    1:    6    1:   14
           3       9:   25    1:    6   15:   20
           4       8:   25    7:   25   14:   20
           5       8:   25    7:   25    1:   13
           6       1:    7    7:   25    1:   14
           7       1:    8    1:    6   15:   20
           8       1:    7    7:   25   15:   20
New grid distribution:   3
           1      10:   25    1:    8    1:   12
           2       1:    9    1:    8   13:   20
           3      10:   25    1:    8   13:   20
           4       1:   18    9:   25   15:   20
           5       1:   18    9:   25    1:   14
           6      19:   25    9:   25    1:   13
           7       1:    9    1:    8    1:   12
           8      19:   25    9:   25   14:   20
Setting up quadratic distribution...
ExtMesh (bp) on 0 =    49 x    38 x    46 =       85652
PhiOnMesh: Number of (b)points on node 0 =                 1428
PhiOnMesh: nlist on node 0 =                 4518

   scf: iscf   Eharris(eV)      E_KS(eV)   FreeEng(eV)    dDmax  Ef(eV)
   scf:    1     -465.8197     -465.8230     -465.8230  0.00079 -1.9797
   scf:    2     -465.8197     -465.8197     -465.8197  0.00059 -1.9705
   scf:    3     -465.8197     -465.8197     -465.8197  0.00018 -1.9748
   scf:    4     -465.8197     -465.8197     -465.8197  0.00006 -1.9760

SCF Convergence by dMax criterion
max |DM_out - DM_in|:     0.00006321
SCF cycle converged after    4 iterations

Using DM_out to compute the final energy and forces

siesta: E_KS(eV) =             -465.8197

siesta: Atomic forces (eV/Ang):
     1   -0.026179    0.008372   -0.448594
     2   -0.086192   -0.588739   -0.134757
     3    0.324214    0.571800    0.802247
----------------------------------------
   Tot    0.211843   -0.008567    0.218897
----------------------------------------
   Max    0.802247
   Res    0.428157    sqrt( Sum f_i^2 / 3N )
----------------------------------------
   Max    0.802247    constrained

Stress-tensor-Voigt (kbar):       -1.05        2.94        2.30        0.67        1.58        0.75
(Free)E + p*V (eV/cell)     -466.1772
Target enthalpy (eV/cell)     -465.8197

siesta: Stress tensor (static) (eV/Ang**3):
        -0.000058    0.000503    0.000640
         0.000503    0.001866    0.001046
         0.000640    0.001046    0.001552

siesta: Pressure (static):         -1.79474836  kBar

siesta: Stress tensor (total) (eV/Ang**3):
        -0.000654    0.000416    0.000467
         0.000416    0.001837    0.000989
         0.000467    0.000989    0.001436

siesta: Pressure (total):         -1.39839798  kBar

siesta: Temp_ion =     612.225 K

                     ====================================
                        Begin MD step =     15
                     ====================================

outcoor: Atomic coordinates (Ang):                          
   -0.00925799    0.00211435   -0.01853039   1       1  O
    0.02200857    0.97672610   -0.11744291   2       2  H
   -0.32867576   -0.37453194   -0.87496391   2       3  H

outcell: Unit cell vectors (Ang):
        8.000000    0.000000    0.000000
        0.000000    8.000000    0.000000
        0.000000    0.000000    6.400000

outcell: Cell vector modules (Ang)   :    8.000000    8.000000    6.400000
outcell: Cell angles (23,13,12) (deg):     90.0000     90.0000     90.0000
outcell: Cell volume (Ang**3)        :    409.6000
New_DM. Step:    15
Re-using DM from previous geometry...
Extrapolating Density Matrix...
New grid distribution:   1
           1       1:   25    1:   13    1:    5
           2       1:   25    1:   13    6:   10
           3       1:   25    1:   13   11:   15
           4       1:   25    1:   13   16:   20
           5       1:   25   14:   25    1:    5
           6       1:   25   14:   25    6:   10
           7       1:   25   14:   25   11:   15
           8       1:   25   14:   25   16:   20

InitMesh: MESH =    50 x    50 x    40 =      100000
InitMesh: (bp) =    25 x    25 x    20 =       12500
InitMesh: Mesh cutoff (required, used) =   100.000   107.960 Ry
ExtMesh (bp) on 0 =    57 x    45 x    37 =       94905
New grid distribution:   2
           1       9:   25    1:    6    1:   14
           2       1:    8    1:    6    1:   14
           3       9:   25    1:    6   15:   20
           4       8:   25    7:   25   14:   20
           5       8:   25    7:   25    1:   13
           6       1:    7    7:   25    1:   14
           7       1:    8    1:    6   15:   20
           8       1:    7    7:   25   15:   20
New grid distribution:   3
           1      12:   25    1:    8    1:   12
[...]

Using DM_out to compute the final energy and forces

siesta: E_KS(eV) =             -465.7756

siesta: Atomic forces (eV/Ang):
     1    0.298569   -0.240701   -0.218245
     2    0.449721   -0.868553   -0.296685
     3   -0.580578    1.146939    0.798409
----------------------------------------
   Tot    0.167712    0.037685    0.283480
----------------------------------------
   Max    1.146939
   Res    0.626220    sqrt( Sum f_i^2 / 3N )
----------------------------------------
   Max    1.146939    constrained

Stress-tensor-Voigt (kbar):        0.22        5.02        2.08       -2.77        2.63       -1.57
(Free)E + p*V (eV/cell)     -466.3995
Target enthalpy (eV/cell)     -465.7756

siesta: Stress tensor (static) (eV/Ang**3):
         0.000600   -0.001686   -0.000844
        -0.001686    0.003187    0.001671
        -0.000844    0.001671    0.001351

siesta: Pressure (static):         -2.74423243  kBar

siesta: Stress tensor (total) (eV/Ang**3):
         0.000134   -0.001731   -0.000982
        -0.001731    0.003134    0.001639
        -0.000982    0.001639    0.001301

siesta: Pressure (total):         -2.44064480  kBar

siesta: Temp_ion =     443.441 K

                     ====================================
                        Begin MD step =     97
                     ====================================

outcoor: Atomic coordinates (Ang):                          
   -0.00826593   -0.00345726   -0.02615456   1       1  O
   -0.46541574    0.83478569   -0.27253844   2       2  H
    0.26303164   -0.54812895   -0.81758495   2       3  H

outcell: Unit cell vectors (Ang):
        8.000000    0.000000    0.000000
        0.000000    8.000000    0.000000
        0.000000    0.000000    6.400000

outcell: Cell vector modules (Ang)   :    8.000000    8.000000    6.400000
outcell: Cell angles (23,13,12) (deg):     90.0000     90.0000     90.0000
outcell: Cell volume (Ang**3)        :    409.6000
New_DM. Step:    97
Re-using DM from previous geometry...
Extrapolating Density Matrix...
New grid distribution:   1
           1       1:   25    1:   13    1:    5
           2       1:   25    1:   13    6:   10
           3       1:   25    1:   13   11:   15
           4       1:   25    1:   13   16:   20
           5       1:   25   14:   25    1:    5
           6       1:   25   14:   25    6:   10
           7       1:   25   14:   25   11:   15
           8       1:   25   14:   25   16:   20

InitMesh: MESH =    50 x    50 x    40 =      100000
InitMesh: (bp) =    25 x    25 x    20 =       12500
InitMesh: Mesh cutoff (required, used) =   100.000   107.960 Ry
ExtMesh (bp) on 0 =    57 x    45 x    37 =       94905
New grid distribution:   2
           1       1:    9    7:   25    1:   14
           2       7:   25    1:    6    1:   14
           3       1:    6    1:    6    1:   14
           4       1:    9    7:   25   15:   20
           5      10:   25    7:   25    1:   14
           6       7:   25    1:    6   15:   20
           7       1:    6    1:    6   15:   20
           8      10:   25    7:   25   15:   20
New grid distribution:   3
           1       1:   18    1:    9    1:   14
           2       1:    7   10:   25    1:   13
           3      19:   25    1:    9    1:   12
           4       1:   18    1:    9   15:   20
           5       8:   25   10:   25    1:   14
           6      19:   25    1:    9   13:   20
           7       1:    7   10:   25   14:   20
           8       8:   25   10:   25   15:   20
Setting up quadratic distribution...
ExtMesh (bp) on 0 =    41 x    51 x    46 =       96186
PhiOnMesh: Number of (b)points on node 0 =                 2394
PhiOnMesh: nlist on node 0 =                 4843

   scf: iscf   Eharris(eV)      E_KS(eV)   FreeEng(eV)    dDmax  Ef(eV)
   scf:    1     -465.7740     -465.7779     -465.7779  0.00081 -1.8507
   scf:    2     -465.7740     -465.7740     -465.7740  0.00055 -1.8411
   scf:    3     -465.7740     -465.7740     -465.7740  0.00018 -1.8456
   scf:    4     -465.7740     -465.7740     -465.7740  0.00007 -1.8468

SCF Convergence by dMax criterion
max |DM_out - DM_in|:     0.00006787
SCF cycle converged after    4 iterations

Using DM_out to compute the final energy and forces

siesta: E_KS(eV) =             -465.7740

siesta: Atomic forces (eV/Ang):
     1    0.292226   -0.234716   -0.236235
     2    0.466704   -0.885936   -0.292049
     3   -0.597856    1.160504    0.810582
----------------------------------------
   Tot    0.161075    0.039851    0.282298
----------------------------------------
   Max    1.160504
   Res    0.636442    sqrt( Sum f_i^2 / 3N )
----------------------------------------
   Max    1.160504    constrained

Stress-tensor-Voigt (kbar):        0.34        5.09        2.11       -2.91        2.62       -1.62
(Free)E + p*V (eV/cell)     -466.4162
Target enthalpy (eV/cell)     -465.7740

siesta: Stress tensor (static) (eV/Ang**3):
         0.000648   -0.001744   -0.000862
        -0.001744    0.003238    0.001676
        -0.000862    0.001676    0.001373

siesta: Pressure (static):         -2.80869893  kBar

siesta: Stress tensor (total) (eV/Ang**3):
         0.000211   -0.001815   -0.001012
        -0.001815    0.003178    0.001634
        -0.001012    0.001634    0.001315

siesta: Pressure (total):         -2.51191946  kBar

siesta: Temp_ion =     437.513 K

                     ====================================
                        Begin MD step =     98
                     ====================================

outcoor: Atomic coordinates (Ang):                          
   -0.00798044   -0.00352951   -0.02602361   1       1  O
   -0.47033252    0.83130108   -0.27526119   2       2  H
    0.26905471   -0.54809763   -0.81560425   2       3  H

outcell: Unit cell vectors (Ang):
        8.000000    0.000000    0.000000
        0.000000    8.000000    0.000000
        0.000000    0.000000    6.400000

outcell: Cell vector modules (Ang)   :    8.000000    8.000000    6.400000
outcell: Cell angles (23,13,12) (deg):     90.0000     90.0000     90.0000
outcell: Cell volume (Ang**3)        :    409.6000
New_DM. Step:    98
Re-using DM from previous geometry...
Extrapolating Density Matrix...
New grid distribution:   1
           1       1:   25    1:   13    1:    5
           2       1:   25    1:   13    6:   10
           3       1:   25    1:   13   11:   15
           4       1:   25    1:   13   16:   20
           5       1:   25   14:   25    1:    5
           6       1:   25   14:   25    6:   10
           7       1:   25   14:   25   11:   15
           8       1:   25   14:   25   16:   20

InitMesh: MESH =    50 x    50 x    40 =      100000
InitMesh: (bp) =    25 x    25 x    20 =       12500
InitMesh: Mesh cutoff (required, used) =   100.000   107.960 Ry
ExtMesh (bp) on 0 =    57 x    45 x    37 =       94905
New grid distribution:   2
           1       1:    9    7:   25    1:   14
           2       7:   25    1:    6    1:   14
           3       1:    6    1:    6    1:   14
           4       1:    9    7:   25   15:   20
           5      10:   25    7:   25    1:   14
           6       7:   25    1:    6   15:   20
           7       1:    6    1:    6   15:   20
           8      10:   25    7:   25   15:   20
New grid distribution:   3
           1       1:   18    1:    9    1:   14
           2       1:    7   10:   25    1:   13
           3      19:   25    1:    9    1:   12
           4       1:   18    1:    9   15:   20
           5       8:   25   10:   25    1:   14
           6      19:   25    1:    9   13:   20
           7       1:    7   10:   25   14:   20
           8       8:   25   10:   25   15:   20
Setting up quadratic distribution...
ExtMesh (bp) on 0 =    41 x    51 x    46 =       96186
PhiOnMesh: Number of (b)points on node 0 =                 2394
PhiOnMesh: nlist on node 0 =                 4831

   scf: iscf   Eharris(eV)      E_KS(eV)   FreeEng(eV)    dDmax  Ef(eV)
   scf:    1     -465.7737     -465.7776     -465.7776  0.00067 -1.8488
   scf:    2     -465.7737     -465.7737     -465.7737  0.00029 -1.8442
   scf:    3     -465.7737     -465.7737     -465.7737  0.00011 -1.8463
   scf:    4     -465.7737     -465.7737     -465.7737  0.00005 -1.8469

SCF Convergence by dMax criterion
max |DM_out - DM_in|:     0.00004946
SCF cycle converged after    4 iterations

Using DM_out to compute the final energy and forces

siesta: E_KS(eV) =             -465.7737

siesta: Atomic forces (eV/Ang):
     1    0.284985   -0.226589   -0.237755
     2    0.477747   -0.891513   -0.288022
     3   -0.608210    1.160380    0.807068
----------------------------------------
   Tot    0.154522    0.042278    0.281291
----------------------------------------
   Max    1.160380
   Res    0.637952    sqrt( Sum f_i^2 / 3N )
----------------------------------------
   Max    1.160380    constrained

Stress-tensor-Voigt (kbar):        0.44        5.08        2.08       -3.00        2.57       -1.65
(Free)E + p*V (eV/cell)     -466.4213
Target enthalpy (eV/cell)     -465.7737

siesta: Stress tensor (static) (eV/Ang**3):
         0.000685   -0.001779   -0.000870
        -0.001779    0.003243    0.001660
        -0.000870    0.001660    0.001364

siesta: Pressure (static):         -2.82602992  kBar

siesta: Stress tensor (total) (eV/Ang**3):
         0.000276   -0.001875   -0.001031
        -0.001875    0.003172    0.001606
        -0.001031    0.001606    0.001295

siesta: Pressure (total):         -2.53321762  kBar

siesta: Temp_ion =     436.149 K

                     ====================================
                        Begin MD step =     99
                     ====================================

outcoor: Atomic coordinates (Ang):                          
   -0.00768811   -0.00360719   -0.02589835   1       1  O
   -0.47506822    0.82747814   -0.27809330   2       2  H
    0.27484724   -0.54762609   -0.81331731   2       3  H

outcell: Unit cell vectors (Ang):
        8.000000    0.000000    0.000000
        0.000000    8.000000    0.000000
        0.000000    0.000000    6.400000

outcell: Cell vector modules (Ang)   :    8.000000    8.000000    6.400000
outcell: Cell angles (23,13,12) (deg):     90.0000     90.0000     90.0000
outcell: Cell volume (Ang**3)        :    409.6000
New_DM. Step:    99
Re-using DM from previous geometry...
Extrapolating Density Matrix...
New grid distribution:   1
           1       1:   25    1:   13    1:    5
           2       1:   25    1:   13    6:   10
           3       1:   25    1:   13   11:   15
           4       1:   25    1:   13   16:   20
           5       1:   25   14:   25    1:    5
           6       1:   25   14:   25    6:   10
           7       1:   25   14:   25   11:   15
           8       1:   25   14:   25   16:   20

InitMesh: MESH =    50 x    50 x    40 =      100000
InitMesh: (bp) =    25 x    25 x    20 =       12500
InitMesh: Mesh cutoff (required, used) =   100.000   107.960 Ry
ExtMesh (bp) on 0 =    57 x    45 x    37 =       94905
New grid distribution:   2
           1       1:    9    7:   25    1:   14
           2       7:   25    1:    6    1:   14
           3       1:    6    1:    6    1:   14
           4       1:    9    7:   25   15:   20
           5      10:   25    7:   25    1:   14
           6       7:   25    1:    6   15:   20
           7       1:    6    1:    6   15:   20
           8      10:   25    7:   25   15:   20
New grid distribution:   3
           1       1:   18    1:    9    1:   14
           2       1:    7   10:   25    1:   13
           3      19:   25    1:    9    1:   12
           4       1:   18    1:    9   15:   20
           5       8:   25   10:   25    1:   14
           6      19:   25    1:    9   13:   20
           7       1:    7   10:   25   14:   20
           8       8:   25   10:   25   15:   20
Setting up quadratic distribution...
ExtMesh (bp) on 0 =    41 x    51 x    46 =       96186
PhiOnMesh: Number of (b)points on node 0 =                 2394
PhiOnMesh: nlist on node 0 =                 4841

   scf: iscf   Eharris(eV)      E_KS(eV)   FreeEng(eV)    dDmax  Ef(eV)
   scf:    1     -465.7745     -465.7785     -465.7785  0.00064 -1.8478
   scf:    2     -465.7745     -465.7745     -465.7745  0.00022 -1.8445
   scf:    3     -465.7745     -465.7745     -465.7745  0.00009 -1.8460

SCF Convergence by dMax criterion
max |DM_out - DM_in|:     0.00008621
SCF cycle converged after    3 iterations

Using DM_out to compute the final energy and forces

siesta: E_KS(eV) =             -465.7745

siesta: Atomic forces (eV/Ang):
     1    0.276717   -0.215963   -0.223553
     2    0.483188   -0.886248   -0.284363
     3   -0.611552    1.146974    0.788530
----------------------------------------
   Tot    0.148352    0.044763    0.280614
----------------------------------------
   Max    1.146974
   Res    0.631073    sqrt( Sum f_i^2 / 3N )
----------------------------------------
   Max    1.146974    constrained

Stress-tensor-Voigt (kbar):        0.53        5.00        1.99       -3.06        2.49       -1.66
(Free)E + p*V (eV/cell)     -466.4149
Target enthalpy (eV/cell)     -465.7745

siesta: Stress tensor (static) (eV/Ang**3):
         0.000709   -0.001790   -0.000867
        -0.001790    0.003205    0.001623
        -0.000867    0.001623    0.001323

siesta: Pressure (static):         -2.79677042  kBar

siesta: Stress tensor (total) (eV/Ang**3):
         0.000328   -0.001910   -0.001037
        -0.001910    0.003119    0.001556
        -0.001037    0.001555    0.001243

siesta: Pressure (total):         -2.50487149  kBar

siesta: Temp_ion =     439.414 K

                     ====================================
                        Begin MD step =    100
                     ====================================

outcoor: Atomic coordinates (Ang):                          
   -0.00738915   -0.00369005   -0.02577844   1       1  O
   -0.47962077    0.82331885   -0.28103339   2       2  H
    0.28040797   -0.54671941   -0.81073114   2       3  H

outcell: Unit cell vectors (Ang):
        8.000000    0.000000    0.000000
        0.000000    8.000000    0.000000
        0.000000    0.000000    6.400000

outcell: Cell vector modules (Ang)   :    8.000000    8.000000    6.400000
outcell: Cell angles (23,13,12) (deg):     90.0000     90.0000     90.0000
outcell: Cell volume (Ang**3)        :    409.6000
New_DM. Step:   100
Re-using DM from previous geometry...
Extrapolating Density Matrix...
New grid distribution:   1
           1       1:   25    1:   13    1:    5
           2       1:   25    1:   13    6:   10
           3       1:   25    1:   13   11:   15
           4       1:   25    1:   13   16:   20
           5       1:   25   14:   25    1:    5
           6       1:   25   14:   25    6:   10
           7       1:   25   14:   25   11:   15
           8       1:   25   14:   25   16:   20

InitMesh: MESH =    50 x    50 x    40 =      100000
InitMesh: (bp) =    25 x    25 x    20 =       12500
InitMesh: Mesh cutoff (required, used) =   100.000   107.960 Ry
ExtMesh (bp) on 0 =    57 x    45 x    37 =       94905
New grid distribution:   2
           1       1:    9    7:   25    1:   14
           2       7:   25    1:    6    1:   14
           3       1:    6    1:    6    1:   14
           4       1:    9    7:   25   15:   20
           5      10:   25    7:   25    1:   14
           6       7:   25    1:    6   15:   20
           7       1:    6    1:    6   15:   20
           8      10:   25    7:   25   15:   20
New grid distribution:   3
           1       1:   18    1:    9    1:   14
           2       1:    7   10:   25    1:   13
           3      19:   25    1:    9    1:   12
           4       1:   18    1:    9   15:   20
           5       8:   25   10:   25    1:   14
           6      19:   25    1:    9   13:   20
           7       1:    7   10:   25   14:   20
           8       8:   25   10:   25   15:   20
Setting up quadratic distribution...
ExtMesh (bp) on 0 =    41 x    51 x    46 =       96186
PhiOnMesh: Number of (b)points on node 0 =                 2394
PhiOnMesh: nlist on node 0 =                 4846

   scf: iscf   Eharris(eV)      E_KS(eV)   FreeEng(eV)    dDmax  Ef(eV)
   scf:    1     -465.7765     -465.7804     -465.7804  0.00078 -1.8488
   scf:    2     -465.7765     -465.7765     -465.7765  0.00049 -1.8401
   scf:    3     -465.7765     -465.7765     -465.7765  0.00016 -1.8441
   scf:    4     -465.7765     -465.7765     -465.7765  0.00006 -1.8453

SCF Convergence by dMax criterion
max |DM_out - DM_in|:     0.00006344
SCF cycle converged after    4 iterations

Using DM_out to compute the final energy and forces

siesta: E_KS(eV) =             -465.7765

siesta: Atomic forces (eV/Ang):
     1    0.267147   -0.203164   -0.192822
     2    0.481911   -0.868999   -0.281918
     3   -0.607331    1.119876    0.754325
----------------------------------------
   Tot    0.141728    0.047714    0.279585
----------------------------------------
   Max    1.119876
   Res    0.615420    sqrt( Sum f_i^2 / 3N )
----------------------------------------
   Max    1.119876    constrained

Stress-tensor-Voigt (kbar):        0.59        4.84        1.86       -3.07        2.38       -1.65
(Free)E + p*V (eV/cell)     -466.3974
Target enthalpy (eV/cell)     -465.7765

siesta: Stress tensor (static) (eV/Ang**3):
         0.000720   -0.001778   -0.000853
        -0.001778    0.003126    0.001566
        -0.000853    0.001566    0.001253

siesta: Pressure (static):         -2.72285530  kBar

siesta: Stress tensor (total) (eV/Ang**3):
         0.000367   -0.001919   -0.001031
        -0.001919    0.003020    0.001483
        -0.001030    0.001482    0.001160

siesta: Pressure (total):         -2.42877110  kBar

siesta: Temp_ion =     447.129 K

siesta: Program's energy decomposition (eV):
siesta: Ebs     =      -101.873449
siesta: Eions   =       815.854478
siesta: Ena     =       174.969291
siesta: Ekin    =       350.978713
siesta: Enl     =       -62.044261
siesta: DEna    =        -2.174164
siesta: DUscf   =         0.768719
siesta: DUext   =         0.000000
siesta: Exc     =      -112.420330
siesta: eta*DQ  =         0.000000
siesta: Emadel  =         0.000000
siesta: Emeta   =         0.000000
siesta: Emolmec =         0.000000
siesta: Ekinion =         0.115587
siesta: Eharris =      -465.660923
siesta: Etot    =      -465.660923
siesta: FreeEng =      -465.660923

siesta: Final energy (eV):
siesta:  Band Struct. =    -101.873449
siesta:       Kinetic =     350.978713
siesta:       Hartree =     412.391629
siesta:    Ext. field =       0.000000
siesta:   Exch.-corr. =    -112.420330
siesta:  Ion-electron =   -1130.354224
siesta:       Ion-ion =      13.627702
siesta:       Ekinion =       0.115587
siesta:         Total =    -465.660923

siesta: Atomic forces (eV/Ang):
siesta:      1    0.267147   -0.203164   -0.192822
siesta:      2    0.481911   -0.868999   -0.281918
siesta:      3   -0.607331    1.119876    0.754325
siesta: ----------------------------------------
siesta:    Tot    0.141728    0.047714    0.279585

siesta: Stress tensor (static) (eV/Ang**3):
siesta:     0.000720   -0.001778   -0.000853
siesta:    -0.001778    0.003126    0.001566
siesta:    -0.000853    0.001566    0.001253

siesta: Cell volume =        409.600000 Ang**3

siesta: Pressure (static):
siesta:                Solid            Molecule  Units
siesta:          -0.00001851          0.00000053  Ry/Bohr**3
siesta:          -0.00169945          0.00004873  eV/Ang**3
siesta:          -2.72285530          0.07807291  kBar
(Free)E+ p_basis*V_orbitals  =        -465.191343
(Free)Eharris+ p_basis*V_orbitals  =        -465.191343

siesta: Electric dipole (a.u.)  =   -0.085830    0.132012   -0.492097
siesta: Electric dipole (Debye) =   -0.218159    0.335542   -1.250787
>> End of run:  10-JUN-2018  21:49:21
Job completed
