Siesta Version  : siesta-4.1-1033
Architecture    : x86_64-linux-n-62-18-18
Compiler version: GNU Fortran (GCC) 7.3.0
Compiler flags  : mpifort -m64 -fPIC -O3 -march=native -ftree-vectorize -fexpensive-optimizatioons -funroll-loops -fprefetch-loop-arrays -fno-second-underscore  -flto
PP flags        : -I/zdata/groups/common/nicpa/2018-feb/generic/build-tools/1.0/include -I/zdatta/groups/common/nicpa/2018-feb/generic/gcc/7.3.0/include -I/zdata/groups/common/nicpa/2018-feb/generic/gcc/7.3.0/include -I/zdata/groups/common/nicpa/2018-feb/XeonE5-2665/zlib/1.2.11/gnu-7.3.0/include -I/zdata/groups/common/nicpa/2018-feb/generic/numactl/2.0.11/include -I/zdata/groups/common/nicpa/2018-feb/XeonE5-2665/libxml2/2.9.7/gnu-7.3.0/include -I/zdata/groups/common/nicpa/2018-feb/XeonE5-2665/hwloc/1.11.9/gnu-7.3.0/include -I/zdata/groups/common/nicpa/2018-feb/XeonE5-2665/openmpi/3.0.0/gnu-7.3.0/include -I/zdata/groups/common/nicpa/2018-feb/XeonE5-2665/szip/2.1.1/gnu-7.3.0/include -I/zdata/groups/common/nicpa/2018-feb/XeonE5-2665/hdf5/1.8.18/gnu-7.3.0/include -I/zdata/groups/common/nicpa/2018-feb/XeonE5-2665/pnetcdf/1.8.1/gnu-7.3.0/include -I/zdata/groups/common/nicpa/2018-feb/XeonE5-2665/netcdf/4.6.0/gnu-7.3.0/include -I/zdata/groups/common/nicpa/2018-feb/XeonE5-2665/flook/0.7.0/gnu-7.3.0/include -I/zdata/groups/common/nicpa/2018-feb/XeonE5-2665/parmetis/4.0.3/gnu-7.3.0/include -I/zdata/groups/common/nicpa/2018-feb/XeonE5-2665/scalapack/204/gnu-7.3.0/include -I/zdata/groups/common/nicpa/2018-feb/XeonE5-2665/openblas/0.2.20/gnu-7.3.0/include -I/zdata/groups/common/nicpa/2018-feb/XeonE5-2665/scotch/6.0.4/gnu-7.3.0/include -I/zdata/groups/common/nicpa/2018-feb/XeonE5-2665/mumps/5.1.2/gnu-7.3.0/include -I/zdata/groups/common/nicpa/2018-feb/XeonE5-2665/fftw/3.3.7/gnu-7.3.0/include -I/zdata/groups/common/nicpa/2018-feb/XeonE5-2665/elpa/2017.05.003/gnu-7.3.0/include/elpa -DSIESTA__ELPA -DMPI -D1 -DFC_HAVE_ABORT -DCDF -DCDF4 -DSIESTA__FLOOK  -DNCDF -DNCDF_4 -DNCDF_PARALLEL -DSIESTA__METIS -DSIESTA__MUMPS -DTS_NOCHECKS -DSIESTA__MRRR
Libraries       : libncdf.a libfdict.a -lnetcdff -lnetcdf -lpnetcdf -lhdf5_hl -lhdf5 -lz  -lzmuumps -lmumps_common -lesmumps -lscotch -lscotcherr -lpord -lparmetis -lmetis -lelpa -lscalapack -lopenblas  -L/zdata/groups/common/nicpa/2018-feb/XeonE5-2665/flook/0.7.0/gnu-7.3.0/lib -Wl,-rpath=/zdata/groups/common/nicpa/2018-feb/XeonE5-2665/flook/0.7.0/gnu-7.3.0/lib -lflookall -ldl  -flto -fuse-linker-plugin  -lmetis
PARALLEL version
NetCDF support
NetCDF-4 support
NetCDF-4 MPI-IO support
METIS ordering support

* Running on 8 nodes in parallel
>> Start of run:   5-NOV-2018  10:51:33

                           ***********************       
                           *  WELCOME TO SIESTA  *       
                           ***********************       

reinit: Reading from standard input
reinit: Dumped input in INPUT_TMP.58952
************************** Dump of input data file ****************************
SystemName          Water molecule -- md Nose
SystemLabel         h2o
NumberOfAtoms       3
NumberOfSpecies     2
MeshCutoff  100 Ry
%block ChemicalSpeciesLabel
 1  8  O      # Species index, atomic number, species label
 2  1  H
%endblock ChemicalSpeciesLabel
LatticeConstant 8.0 Ang
%block LatticeVectors
1.0 0.0 0.0
0.0 1.0 0.0
0.0 0.0 0.8
%endblock LatticeVectors
AtomicCoordinatesFormat  Ang
%block AtomicCoordinatesAndAtomicSpecies
 0.000  0.000  0.000  1
 0.757  0.586  0.000  2
-0.757  0.586  0.000  2
%endblock AtomicCoordinatesAndAtomicSpecies
Solution.Method       diagon
MeshCutoff             100 Ry
WriteCoorStep      .true.
WriteForces        .true.
WriteMDHistory     .true.
MD.UseSaveXV    T
MD.TypeOfRun         nose
MD.TargetTemperature 600 K
MD.LengthTimeStep  0.2 fs
MD.Initial.Time.Step      1
MD.Final.Time.Step        100
************************** End of input data file *****************************

reinit: -----------------------------------------------------------------------
reinit: System Name: Water molecule -- md Nose
reinit: -----------------------------------------------------------------------
reinit: System Label: h2o
reinit: -----------------------------------------------------------------------

initatom: Reading input for the pseudopotentials and atomic orbitals ----------
Species number:   1 Atomic number:    8 Label: O
Species number:   2 Atomic number:    1 Label: H

Ground state valence configuration:   2s02  2p04
Reading pseudopotential information in formatted form from O.psf

Valence configuration for pseudopotential generation:
2s( 2.00) rc: 1.14
2p( 4.00) rc: 1.14
3d( 0.00) rc: 1.14
4f( 0.00) rc: 1.14
Ground state valence configuration:   1s01
Reading pseudopotential information in formatted form from H.psf

Valence configuration for pseudopotential generation:
1s( 1.00) rc: 1.25
2p( 0.00) rc: 1.25
3d( 0.00) rc: 1.25
4f( 0.00) rc: 1.25
For O, standard SIESTA heuristics set lmxkb to 3
 (one more than the basis l, including polarization orbitals).
Use PS.lmax or PS.KBprojectors blocks to override.
For H, standard SIESTA heuristics set lmxkb to 2
 (one more than the basis l, including polarization orbitals).
Use PS.lmax or PS.KBprojectors blocks to override.

<basis_specs>
===============================================================================
O                    Z=   8    Mass=  16.000        Charge= 0.17977+309
Lmxo=1 Lmxkb= 3    BasisType=split      Semic=F
L=0  Nsemic=0  Cnfigmx=2
          n=1  nzeta=2  polorb=0
            splnorm:   0.15000    
               vcte:    0.0000    
               rinn:    0.0000    
               qcoe:    0.0000    
               qyuk:    0.0000    
               qwid:   0.10000E-01
                rcs:    0.0000      0.0000    
            lambdas:    1.0000      1.0000    
L=1  Nsemic=0  Cnfigmx=2
          n=1  nzeta=2  polorb=1
            splnorm:   0.15000    
               vcte:    0.0000    
               rinn:    0.0000    
               qcoe:    0.0000    
               qyuk:    0.0000    
               qwid:   0.10000E-01
                rcs:    0.0000      0.0000    
            lambdas:    1.0000      1.0000    
-------------------------------------------------------------------------------
L=0  Nkbl=1  erefs: 0.17977+309
L=1  Nkbl=1  erefs: 0.17977+309
L=2  Nkbl=1  erefs: 0.17977+309
L=3  Nkbl=1  erefs: 0.17977+309
===============================================================================
</basis_specs>

atom: Called for O                     (Z =   8)

read_vps: Pseudopotential generation method:
read_vps: ATM3      Troullier-Martins                       
Total valence charge:    6.00000

xc_check: Exchange-correlation functional:
xc_check: Ceperley-Alder
V l=0 = -2*Zval/r beyond r=  1.1278
V l=1 = -2*Zval/r beyond r=  1.1278
V l=2 = -2*Zval/r beyond r=  1.1278
V l=3 = -2*Zval/r beyond r=  1.1138
All V_l potentials equal beyond r=  1.1278
This should be close to max(r_c) in ps generation
All pots = -2*Zval/r beyond r=  1.1278

VLOCAL1: 99.0% of the norm of Vloc inside     34.126 Ry
VLOCAL1: 99.9% of the norm of Vloc inside     77.774 Ry
atom: Maximum radius for 4*pi*r*r*local-pseudopot. charge    1.37759
atom: Maximum radius for r*vlocal+2*Zval:    1.18566
GHOST: No ghost state for L =  0
GHOST: No ghost state for L =  1
GHOST: No ghost state for L =  2
GHOST: No ghost state for L =  3

KBgen: Kleinman-Bylander projectors: 
   l= 0   rc=  1.294105   el= -1.742414   Ekb=  9.135903   kbcos=  0.326910
   l= 1   rc=  1.294105   el= -0.676589   Ekb= -8.124878   kbcos= -0.395047
   l= 2   rc=  1.448233   el=  0.002386   Ekb= -2.039267   kbcos= -0.003484
   l= 3   rc=  1.561052   el=  0.003508   Ekb= -0.799141   kbcos= -0.000344

KBgen: Total number of  Kleinman-Bylander projectors:   16
atom: -------------------------------------------------------------------------

atom: SANKEY-TYPE ORBITALS:
atom: Selected multiple-zeta basis: split     

SPLIT: Orbitals with angular momentum L= 0

SPLIT: Basis orbitals for state 2s

SPLIT: PAO cut-off radius determined from an
SPLIT: energy shift=  0.020000 Ry

   izeta = 1
                 lambda =    1.000000
                     rc =    3.305093
                 energy =   -1.723766
                kinetic =    1.614911
    potential(screened) =   -3.338677
       potential(ionic) =  -11.304675

   izeta = 2
                 rmatch =    2.510382
              splitnorm =    0.150000
                 energy =   -1.471299
                kinetic =    2.446434
    potential(screened) =   -3.917732
       potential(ionic) =  -12.476133

SPLIT: Orbitals with angular momentum L= 1

SPLIT: Basis orbitals for state 2p

SPLIT: PAO cut-off radius determined from an
SPLIT: energy shift=  0.020000 Ry

   izeta = 1
                 lambda =    1.000000
                     rc =    3.937239
                 energy =   -0.658841
                kinetic =    5.005986
    potential(screened) =   -5.664827
       potential(ionic) =  -13.452360

   izeta = 2
                 rmatch =    2.541963
              splitnorm =    0.150000
                 energy =   -0.367441
                kinetic =    7.530509
    potential(screened) =   -7.897949
       potential(ionic) =  -16.611953

POLgen: Perturbative polarization orbital with L=  2

POLgen: Polarization orbital for state 2p

   izeta = 1
                     rc =    3.937239
                 energy =    2.398520
                kinetic =    4.716729
    potential(screened) =   -2.318209
       potential(ionic) =   -8.603170
atom: Total number of Sankey-type orbitals: 13

atm_pop: Valence configuration (for local Pseudopot. screening):
 2s( 2.00)                                                            
 2p( 4.00)                                                            
Vna: chval, zval:    6.00000   6.00000

Vna:  Cut-off radius for the neutral-atom potential:   3.937239

atom: _________________________________________________________________________

<basis_specs>
===============================================================================
H                    Z=   1    Mass=  1.0100        Charge= 0.17977+309
Lmxo=0 Lmxkb= 2    BasisType=split      Semic=F
L=0  Nsemic=0  Cnfigmx=1
          n=1  nzeta=2  polorb=1
            splnorm:   0.15000    
               vcte:    0.0000    
               rinn:    0.0000    
               qcoe:    0.0000    
               qyuk:    0.0000    
               qwid:   0.10000E-01
                rcs:    0.0000      0.0000    
            lambdas:    1.0000      1.0000    
-------------------------------------------------------------------------------
L=0  Nkbl=1  erefs: 0.17977+309
L=1  Nkbl=1  erefs: 0.17977+309
L=2  Nkbl=1  erefs: 0.17977+309
===============================================================================
</basis_specs>

atom: Called for H                     (Z =   1)

read_vps: Pseudopotential generation method:
read_vps: ATM3      Troullier-Martins                       
Total valence charge:    1.00000

xc_check: Exchange-correlation functional:
xc_check: Ceperley-Alder
V l=0 = -2*Zval/r beyond r=  1.2343
V l=1 = -2*Zval/r beyond r=  1.2189
V l=2 = -2*Zval/r beyond r=  1.2189
All V_l potentials equal beyond r=  1.2343
This should be close to max(r_c) in ps generation
All pots = -2*Zval/r beyond r=  1.2343

VLOCAL1: 99.0% of the norm of Vloc inside     28.493 Ry
VLOCAL1: 99.9% of the norm of Vloc inside     64.935 Ry
atom: Maximum radius for 4*pi*r*r*local-pseudopot. charge    1.45251
atom: Maximum radius for r*vlocal+2*Zval:    1.21892
GHOST: No ghost state for L =  0
GHOST: No ghost state for L =  1
GHOST: No ghost state for L =  2

KBgen: Kleinman-Bylander projectors: 
   l= 0   rc=  1.364359   el= -0.467325   Ekb= -2.005361   kbcos= -0.336422
   l= 1   rc=  1.434438   el=  0.001430   Ekb= -0.501708   kbcos= -0.021697
   l= 2   rc=  1.470814   el=  0.002365   Ekb= -0.190555   kbcos= -0.002281

KBgen: Total number of  Kleinman-Bylander projectors:    9
atom: -------------------------------------------------------------------------

atom: SANKEY-TYPE ORBITALS:
atom: Selected multiple-zeta basis: split     

SPLIT: Orbitals with angular momentum L= 0

SPLIT: Basis orbitals for state 1s

SPLIT: PAO cut-off radius determined from an
SPLIT: energy shift=  0.020000 Ry

   izeta = 1
                 lambda =    1.000000
                     rc =    4.828263
                 energy =   -0.449375
                kinetic =    0.929372
    potential(screened) =   -1.378747
       potential(ionic) =   -1.915047

   izeta = 2
                 rmatch =    3.854947
              splitnorm =    0.150000
                 energy =   -0.336153
                kinetic =    1.505294
    potential(screened) =   -1.841447
       potential(ionic) =   -2.413582

POLgen: Perturbative polarization orbital with L=  1

POLgen: Polarization orbital for state 1s

   izeta = 1
                     rc =    4.828263
                 energy =    0.706972
                kinetic =    1.396397
    potential(screened) =   -0.689424
       potential(ionic) =   -1.169792
atom: Total number of Sankey-type orbitals:  5

atm_pop: Valence configuration (for local Pseudopot. screening):
 1s( 1.00)                                                            
Vna: chval, zval:    1.00000   1.00000

Vna:  Cut-off radius for the neutral-atom potential:   4.828263

atom: _________________________________________________________________________

prinput: Basis input ----------------------------------------------------------

PAO.BasisType split     

%block ChemicalSpeciesLabel
    1    8 O                       # Species index, atomic number, species label
    2    1 H                       # Species index, atomic number, species label
%endblock ChemicalSpeciesLabel

%block PAO.Basis                 # Define Basis set
O                     2                    # Species label, number of l-shells
 n=2   0   2                         # n, l, Nzeta 
   3.305      2.510   
   1.000      1.000   
 n=2   1   2 P   1                   # n, l, Nzeta, Polarization, NzetaPol
   3.937      2.542   
   1.000      1.000   
H                     1                    # Species label, number of l-shells
 n=1   0   2 P   1                   # n, l, Nzeta, Polarization, NzetaPol
   4.828      3.855   
   1.000      1.000   
%endblock PAO.Basis

prinput: ----------------------------------------------------------------------

Dumping basis to NetCDF file O.ion.nc
Dumping basis to NetCDF file H.ion.nc
coor:   Atomic-coordinates input format  =     Cartesian coordinates
coor:                                          (in Angstroms)

ioxv: Reading coordinates and velocities from file
! Info in XV file prevails over previous structure input
WARNING: h2o.NOSE_RESTART not found--reading only XV file and moving back 1 time step using Euler

siesta: Atomic coordinates (Bohr) and species
siesta:     -0.01189   0.00930  -0.03377  1        1
siesta:      0.20384   1.85454  -0.11834  2        2
siesta:     -0.77883  -0.66524  -1.59927  2        3

siesta: System type = molecule  

initatomlists: Number of atoms, orbitals, and projectors:      3    23    34

siesta: ******************** Simulation parameters ****************************
siesta:
siesta: The following are some of the parameters of the simulation.
siesta: A complete list of the parameters used, including default values,
siesta: can be found in file out.fdf
siesta:
redata: Spin configuration                          = none
redata: Number of spin components                   = 1
redata: Time-Reversal Symmetry                      = T
redata: Spin-spiral                                 = F
redata: Long output                                 =   F
redata: Number of Atomic Species                    =        2
redata: Charge density info will appear in .RHO file
redata: Write Mulliken Pop.                         = NO
redata: Matel table size (NRTAB)                    =     1024
redata: Mesh Cutoff                                 =   100.0000 Ry
redata: Net charge of the system                    =     0.0000 |e|
redata: Min. number of SCF Iter                     =        0
redata: Max. number of SCF Iter                     =     1000
redata: SCF convergence failure will abort job
redata: SCF mix quantity                            = Hamiltonian
redata: Mix DM or H after convergence               =   F
redata: Recompute H after scf cycle                 =   F
redata: Mix DM in first SCF step                    =   T
redata: Write Pulay info on disk                    =   F
redata: New DM Mixing Weight                        =     0.2500
redata: New DM Occupancy tolerance                  = 0.000000000001
redata: No kicks to SCF
redata: DM Mixing Weight for Kicks                  =     0.5000
redata: Require Harris convergence for SCF          =   F
redata: Harris energy tolerance for SCF             =     0.000100 eV
redata: Require DM convergence for SCF              =   T
redata: DM tolerance for SCF                        =     0.000100
redata: Require EDM convergence for SCF             =   F
redata: EDM tolerance for SCF                       =     0.001000 eV
redata: Require H convergence for SCF               =   T
redata: Hamiltonian tolerance for SCF               =     0.001000 eV
redata: Require (free) Energy convergence for SCF   =   F
redata: (free) Energy tolerance for SCF             =     0.000100 eV
redata: Using Saved Data (generic)                  =   F
redata: Use continuation files for DM               =   F
redata: Neglect nonoverlap interactions             =   F
redata: Method of Calculation                       = Diagonalization
redata: Electronic Temperature                      =   299.9869 K
redata: Fix the spin of the system                  =   F
redata: Dynamics option                             = Nose thermostat MD run
redata: Initial MD time step                        =        1
redata:   Final MD time step                        =      100
redata: Length of MD time step                      =     0.2000 fs
redata: Initial Temperature of MD run               =     0.0000 K
redata: Perform a MD quench                         =   F
redata: Nose mass                                   =  1360.5800 eV/fs**2
redata: Target Temperature                          =   600.0000 Kelvin
mix.SCF: Pulay mixing                            = Pulay
mix.SCF:    Variant                              = stable
mix.SCF:    History steps                        = 2
mix.SCF:    Linear mixing weight                 =     0.250000
mix.SCF:    Mixing weight                        =     0.250000
mix.SCF:    SVD condition                        = 0.1000E-07
redata: Save all siesta data in one NC              =   F
redata: ***********************************************************************

%block SCF.Mixers
  Pulay
%endblock SCF.Mixers

%block SCF.Mixer.Pulay
  # Mixing method
  method pulay
  variant stable

  # Mixing options
  weight 0.2500
  weight.linear 0.2500
  history 2
%endblock SCF.Mixer.Pulay

Size of DM history Fstack: 1
Total number of electrons:     8.000000
Total ionic charge:     8.000000

* ProcessorY, Blocksize:    2   3


* Orbital distribution balance (max,min):     3     2

 Kpoints in:            1 . Kpoints trimmed:            1

siesta: k-grid: Number of k-points =     1
siesta: k-grid: Cutoff (effective) =     3.200 Ang
siesta: k-grid: Supercell and displacements
siesta: k-grid:    1   0   0      0.000
siesta: k-grid:    0   1   0      0.000
siesta: k-grid:    0   0   1      0.000

diag: Algorithm                                     = D&C
diag: Parallel over k                               =   F
diag: Use parallel 2D distribution                  =   T
diag: Parallel block-size                           = 3
diag: Parallel distribution                         =     2 x     4
diag: Used triangular part                          = Lower
diag: Absolute tolerance                            =  0.100E-15
diag: Orthogonalization factor                      =  0.100E-05
diag: Memory factor                                 =  1.0000


ts: **************************************************************
ts: Save H and S matrices                           =    F
ts: Save DM and EDM matrices                        =    F
ts: Fix Hartree potential                           =    F
ts: Only save the overlap matrix S                  =    F
ts: **************************************************************

************************ Begin: TS CHECKS AND WARNINGS ************************
************************ End: TS CHECKS AND WARNINGS **************************


                     ====================================
                        Begin MD step =      1
                     ====================================

outcoor: Atomic coordinates (Ang):                          
   -0.00629113    0.00492174   -0.01786766   1       1  O
    0.10786840    0.98138016   -0.06262541   2       2  H
   -0.41213716   -0.35202755   -0.84629850   2       3  H

outcell: Unit cell vectors (Ang):
        8.000000    0.000000    0.000000
        0.000000    8.000000    0.000000
        0.000000    0.000000    6.400000

outcell: Cell vector modules (Ang)   :    8.000000    8.000000    6.400000
outcell: Cell angles (23,13,12) (deg):     90.0000     90.0000     90.0000
outcell: Cell volume (Ang**3)        :    409.6000
<dSpData1D:S at geom step 1
  <sparsity:sparsity for geom step 1
    nrows_g=23 nrows=3 sparsity=.1304 nnzs=69, refcount: 7>
  <dData1D:(new from dSpData1D) n=69, refcount: 1>
refcount: 1>
new_DM -- step:     1
Initializing Density Matrix...
DM filled with atomic data:
<dSpData2D:DM initialized from atoms
  <sparsity:sparsity for geom step 1
    nrows_g=23 nrows=3 sparsity=.1304 nnzs=69, refcount: 8>
  <dData2D:DM n=69 m=1, refcount: 1>
refcount: 1>
No. of atoms with KB's overlaping orbs in proc 0. Max # of overlaps:       3      23
New grid distribution:   1
           1       1:   25    1:   13    1:    5
           2       1:   25    1:   13    6:   10
           3       1:   25    1:   13   11:   15
           4       1:   25    1:   13   16:   20
           5       1:   25   14:   25    1:    5
           6       1:   25   14:   25    6:   10
           7       1:   25   14:   25   11:   15
           8       1:   25   14:   25   16:   20

InitMesh: MESH =    50 x    50 x    40 =      100000
InitMesh: (bp) =    25 x    25 x    20 =       12500
InitMesh: Mesh cutoff (required, used) =   100.000   107.960 Ry
ExtMesh (bp) on 0 =    57 x    45 x    37 =       94905
New grid distribution:   2
           1       9:   25    1:    5    1:   13
           2       1:    8    1:    5    1:   14
           3       9:   25    1:    5   14:   20
           4       8:   25    6:   25   14:   20
           5       8:   25    6:   25    1:   13
           6       1:    7    6:   25    1:   14
           7       1:    8    1:    5   15:   20
           8       1:    7    6:   25   15:   20
New grid distribution:   3
           1       9:   25    1:    8    1:   12
           2       1:    8    1:    8    1:   11
           3       9:   25    1:    8   13:   20
           4       1:   18    9:   25   15:   20
           5       1:   18    9:   25    1:   14
           6      19:   25    9:   25    1:   13
           7       1:    8    1:    8   12:   20
           8      19:   25    9:   25   14:   20
Setting up quadratic distribution...
ExtMesh (bp) on 0 =    49 x    37 x    45 =       81585
PhiOnMesh: Number of (b)points on node 0 =                 1105
PhiOnMesh: nlist on node 0 =                 3833

stepf: Fermi-Dirac step function

siesta: Program's energy decomposition (eV):
siesta: Ebs     =       -80.998440
siesta: Eions   =       815.854478
siesta: Ena     =       174.985844
siesta: Ekin    =       374.107871
siesta: Enl     =       -68.105300
siesta: Eso     =         0.000000
siesta: Eldau   =         0.000000
siesta: DEna    =       -15.892775
siesta: DUscf   =         2.025009
siesta: DUext   =         0.000000
siesta: Enegf   =         0.000000
siesta: Exc     =      -116.289526
siesta: eta*DQ  =         0.000000
siesta: Emadel  =         0.000000
siesta: Emeta   =         0.000000
siesta: Emolmec =         0.000000
siesta: Ekinion =         0.000000
siesta: Eharris =      -467.418097
siesta: Etot    =      -465.023356
siesta: FreeEng =      -465.023356

        iscf     Eharris(eV)        E_KS(eV)     FreeEng(eV)     dDmax    Ef(eV) dHmax(eV)
   scf:    1     -467.418097     -465.023356     -465.023356  1.448069 -4.067848  7.011888
timer: Routine,Calls,Time,% = IterSCF        1       0.023   1.42
   scf:    2     -466.174695     -465.708885     -465.708885  0.052848 -2.906861  2.652212
   scf:    3     -465.814339     -465.796293     -465.796293  0.023084 -2.162359  0.337917
   scf:    4     -465.802121     -465.799385     -465.799385  0.009592 -2.091126  0.257269
   scf:    5     -465.801735     -465.800958     -465.800958  0.018730 -1.903804  0.059472
   scf:    6     -465.801074     -465.801021     -465.801021  0.000826 -1.870742  0.031964
   scf:    7     -465.801112     -465.801070     -465.801070  0.000614 -1.866712  0.020056
   scf:    8     -465.801106     -465.801089     -465.801089  0.000512 -1.867402  0.013931
   scf:    9     -465.801100     -465.801096     -465.801096  0.000464 -1.870439  0.007750
   scf:   10     -465.801096     -465.801096     -465.801096  0.000218 -1.873416  0.003309
   scf:   11     -465.801096     -465.801096     -465.801096  0.000077 -1.875395  0.001918
   scf:   12     -465.801096     -465.801096     -465.801096  0.000011 -1.876337  0.001267
   scf:   13     -465.801096     -465.801096     -465.801096  0.000010 -1.876629  0.000644

SCF Convergence by DM+H criterion
max |DM_out - DM_in|         :     0.0000101993
max |H_out - H_in|      (eV) :     0.0006443205
SCF cycle converged after 13 iterations

Using DM_out to compute the final energy and forces
No. of atoms with KB's overlaping orbs in proc 0. Max # of overlaps:       3      23

siesta: E_KS(eV) =             -465.8011

siesta: E_KS - E_eggbox =      -465.8011

siesta: Atomic forces (eV/Ang):
     1   -0.003120   -0.014028   -0.098865
     2   -0.257348   -0.774015   -0.356779
     3    0.407921    0.756808    0.679117
----------------------------------------
   Tot    0.147454   -0.031235    0.223473
----------------------------------------
   Max    0.774015
   Res    0.471753    sqrt( Sum f_i^2 / 3N )
----------------------------------------
   Max    0.774015    constrained

Stress-tensor-Voigt (kbar):       -0.32        3.71        1.67        1.83        2.20        1.29
(Free)E + p*V (eV/cell)     -466.2331
Target enthalpy (eV/cell)     -465.8011

siesta: Stress tensor (static) (eV/Ang**3):
         0.000160    0.000958    0.000765
         0.000958    0.002440    0.001442
         0.000765    0.001442    0.001241

siesta: Pressure (static):         -2.05150893  kBar

siesta: Stress tensor (total) (eV/Ang**3):
        -0.000198    0.001144    0.000802
         0.001144    0.002319    0.001371
         0.000802    0.001371    0.001043

siesta: Pressure (total):         -1.68968303  kBar

siesta: Temp_ion =     540.632 K

                     ====================================
                        Begin MD step =      2
                     ====================================

outcoor: Atomic coordinates (Ang):                          
   -0.00648815    0.00471054   -0.01784191   1       1  O
    0.10217079    0.98330676   -0.06570487   2       2  H
   -0.40720986   -0.35562371   -0.85085181   2       3  H

outcell: Unit cell vectors (Ang):
        8.000000    0.000000    0.000000
        0.000000    8.000000    0.000000
        0.000000    0.000000    6.400000

outcell: Cell vector modules (Ang)   :    8.000000    8.000000    6.400000
outcell: Cell angles (23,13,12) (deg):     90.0000     90.0000     90.0000
outcell: Cell volume (Ang**3)        :    409.6000
<dSpData1D:S at geom step 2
  <sparsity:sparsity for geom step 2
    nrows_g=23 nrows=3 sparsity=.1304 nnzs=69, refcount: 7>
  <dData1D:(new from dSpData1D) n=69, refcount: 1>
refcount: 1>
new_DM -- step:     2
Re-using DM from previous geometries...
Number of DMs in history: 1
 DM extrapolation coefficients: 
1   1.00000
New DM after history re-use:
<dSpData2D:SpM extrapolated using coords
  <sparsity:sparsity for geom step 2
    nrows_g=23 nrows=3 sparsity=.1304 nnzs=69, refcount: 9>
  <dData2D:(temp array for extrapolation) n=69 m=1, refcount: 1>
refcount: 1>
No. of atoms with KB's overlaping orbs in proc 0. Max # of overlaps:       3      23
New grid distribution:   1
           1       1:   25    1:   13    1:    5
           2       1:   25    1:   13    6:   10
           3       1:   25    1:   13   11:   15
           4       1:   25    1:   13   16:   20
           5       1:   25   14:   25    1:    5
           6       1:   25   14:   25    6:   10
           7       1:   25   14:   25   11:   15
           8       1:   25   14:   25   16:   20

InitMesh: MESH =    50 x    50 x    40 =      100000
InitMesh: (bp) =    25 x    25 x    20 =       12500
InitMesh: Mesh cutoff (required, used) =   100.000   107.960 Ry
ExtMesh (bp) on 0 =    57 x    45 x    37 =       94905
New grid distribution:   2
           1       9:   25    1:    5    1:   13
           2       1:    8    1:    5    1:   14
           3       9:   25    1:    5   14:   20
           4       8:   25    6:   25   14:   20
           5       8:   25    6:   25    1:   13
           6       1:    7    6:   25    1:   14
           7       1:    8    1:    5   15:   20
           8       1:    7    6:   25   15:   20
New grid distribution:   3
           1       9:   25    1:    8    1:   12
           2       1:    8    1:    8    1:   11
           3       9:   25    1:    8   13:   20
           4       1:   18    9:   25   15:   20
           5       1:   18    9:   25    1:   14
           6      19:   25    9:   25    1:   13
           7       1:    8    1:    8   12:   20
           8      19:   25    9:   25   14:   20
Setting up quadratic distribution...
ExtMesh (bp) on 0 =    49 x    37 x    45 =       81585
PhiOnMesh: Number of (b)points on node 0 =                 1105
PhiOnMesh: nlist on node 0 =                 3827

        iscf     Eharris(eV)        E_KS(eV)     FreeEng(eV)     dDmax    Ef(eV) dHmax(eV)
   scf:    1     -465.820945     -465.798025     -465.798025  0.010549 -1.870582  0.048937
   scf:    2     -465.797648     -465.797940     -465.797940  0.002299 -1.899909  0.080027
   scf:    3     -465.798118     -465.798071     -465.798071  0.001367 -1.881371  0.002938
   scf:    4     -465.798073     -465.798072     -465.798072  0.000072 -1.881543  0.002039
   scf:    5     -465.798073     -465.798073     -465.798073  0.000163 -1.881972  0.000269
   scf:    6     -465.798073     -465.798073     -465.798073  0.000006 -1.882004  0.000181

SCF Convergence by DM+H criterion
max |DM_out - DM_in|         :     0.0000060040
max |H_out - H_in|      (eV) :     0.0001808628
SCF cycle converged after 6 iterations

Using DM_out to compute the final energy and forces
No. of atoms with KB's overlaping orbs in proc 0. Max # of overlaps:       3      23

siesta: E_KS(eV) =             -465.7981

siesta: Atomic forces (eV/Ang):
     1   -0.040942    0.013031   -0.215885
     2   -0.256380   -0.841652   -0.347659
     3    0.450237    0.799103    0.786526
----------------------------------------
   Tot    0.152915   -0.029517    0.222982
----------------------------------------
   Max    0.841652
   Res    0.516756    sqrt( Sum f_i^2 / 3N )
----------------------------------------
   Max    0.841652    constrained

Stress-tensor-Voigt (kbar):       -0.27        4.05        2.03        1.90        2.32        1.43
(Free)E + p*V (eV/cell)     -466.2928
Target enthalpy (eV/cell)     -465.7981

siesta: Stress tensor (static) (eV/Ang**3):
         0.000190    0.000998    0.000853
         0.000997    0.002647    0.001522
         0.000853    0.001522    0.001464

siesta: Pressure (static):         -2.29697225  kBar

siesta: Stress tensor (total) (eV/Ang**3):
        -0.000168    0.001184    0.000890
         0.001184    0.002526    0.001451
         0.000890    0.001450    0.001266

siesta: Pressure (total):         -1.93514618  kBar

siesta: Temp_ion =     528.987 K

                     ====================================
                        Begin MD step =      3
                     ====================================

outcoor: Atomic coordinates (Ang):                          
   -0.00668614    0.00449964   -0.01782133   1       1  O
    0.09637592    0.98491408   -0.06891622   2       2  H
   -0.40211174   -0.35891672   -0.85510675   2       3  H

outcell: Unit cell vectors (Ang):
        8.000000    0.000000    0.000000
        0.000000    8.000000    0.000000
        0.000000    0.000000    6.400000

outcell: Cell vector modules (Ang)   :    8.000000    8.000000    6.400000
outcell: Cell angles (23,13,12) (deg):     90.0000     90.0000     90.0000
outcell: Cell volume (Ang**3)        :    409.6000
<dSpData1D:S at geom step 3
  <sparsity:sparsity for geom step 3
    nrows_g=23 nrows=3 sparsity=.1304 nnzs=69, refcount: 7>
  <dData1D:(new from dSpData1D) n=69, refcount: 1>
refcount: 1>
new_DM -- step:     3
Re-using DM from previous geometries...
Number of DMs in history: 1
 DM extrapolation coefficients: 
1   1.00000
New DM after history re-use:
<dSpData2D:SpM extrapolated using coords
  <sparsity:sparsity for geom step 3
    nrows_g=23 nrows=3 sparsity=.1304 nnzs=69, refcount: 9>
  <dData2D:(temp array for extrapolation) n=69 m=1, refcount: 1>
refcount: 1>
No. of atoms with KB's overlaping orbs in proc 0. Max # of overlaps:       3      23
New grid distribution:   1
           1       1:   25    1:   13    1:    5
           2       1:   25    1:   13    6:   10
           3       1:   25    1:   13   11:   15
           4       1:   25    1:   13   16:   20
           5       1:   25   14:   25    1:    5
           6       1:   25   14:   25    6:   10
           7       1:   25   14:   25   11:   15
           8       1:   25   14:   25   16:   20

InitMesh: MESH =    50 x    50 x    40 =      100000
InitMesh: (bp) =    25 x    25 x    20 =       12500
InitMesh: Mesh cutoff (required, used) =   100.000   107.960 Ry
ExtMesh (bp) on 0 =    57 x    45 x    37 =       94905
New grid distribution:   2
           1       9:   25    1:    5    1:   14
           2       1:    8    1:    5    1:   14
           3       9:   25    1:    5   15:   20
           4       8:   25    6:   25   14:   20
           5       8:   25    6:   25    1:   13
           6       1:    7    6:   25    1:   14
           7       1:    8    1:    5   15:   20
           8       1:    7    6:   25   15:   20
New grid distribution:   3
           1       9:   25    1:    8    1:   12
           2       1:    8    1:    8    1:   11
           3       9:   25    1:    8   13:   20
           4       1:   18    9:   25   15:   20
           5       1:   18    9:   25    1:   14
           6      19:   25    9:   25    1:   13
           7       1:    8    1:    8   12:   20
           8      19:   25    9:   25   14:   20
Setting up quadratic distribution...
ExtMesh (bp) on 0 =    49 x    37 x    46 =       83398
PhiOnMesh: Number of (b)points on node 0 =                 1190
PhiOnMesh: nlist on node 0 =                 4102

        iscf     Eharris(eV)        E_KS(eV)     FreeEng(eV)     dDmax    Ef(eV) dHmax(eV)
   scf:    1     -465.814899     -465.795361     -465.795361  0.009948 -1.877697  0.044506
   scf:    2     -465.795052     -465.795292     -465.795292  0.002140 -1.904561  0.072790
   scf:    3     -465.795439     -465.795400     -465.795400  0.001269 -1.887605  0.002857
   scf:    4     -465.795401     -465.795401     -465.795401  0.000068 -1.887768  0.001978
   scf:    5     -465.795402     -465.795401     -465.795401  0.000152 -1.888162  0.000255
   scf:    6     -465.795401     -465.795401     -465.795401  0.000006 -1.888187  0.000165

SCF Convergence by DM+H criterion
max |DM_out - DM_in|         :     0.0000063237
max |H_out - H_in|      (eV) :     0.0001654557
SCF cycle converged after 6 iterations

Using DM_out to compute the final energy and forces
No. of atoms with KB's overlaping orbs in proc 0. Max # of overlaps:       3      23

siesta: E_KS(eV) =             -465.7954

siesta: Atomic forces (eV/Ang):
     1   -0.073278    0.034371   -0.319989
     2   -0.252348   -0.895872   -0.336976
     3    0.483250    0.832831    0.878910
----------------------------------------
   Tot    0.157624   -0.028669    0.221945
----------------------------------------
   Max    0.895872
   Res    0.556615    sqrt( Sum f_i^2 / 3N )
----------------------------------------
   Max    0.895872    constrained

Stress-tensor-Voigt (kbar):       -0.27        4.35        2.36        1.91        2.44        1.52
(Free)E + p*V (eV/cell)     -466.3440
Target enthalpy (eV/cell)     -465.7954

siesta: Stress tensor (static) (eV/Ang**3):
         0.000209    0.001021    0.000923
         0.001021    0.002813    0.001585
         0.000923    0.001584    0.001659

siesta: Pressure (static):         -2.49982431  kBar

siesta: Stress tensor (total) (eV/Ang**3):
        -0.000166    0.001192    0.000949
         0.001191    0.002712    0.001524
         0.000949    0.001523    0.001471

siesta: Pressure (total):         -2.14579223  kBar

siesta: Temp_ion =     518.709 K

                     ====================================
                        Begin MD step =      4
                     ====================================

outcoor: Atomic coordinates (Ang):                          
   -0.00688590    0.00428957   -0.01780841   1       1  O
    0.09048529    0.98618153   -0.07225542   2       2  H
   -0.39683028   -0.36189378   -0.85902827   2       3  H

outcell: Unit cell vectors (Ang):
        8.000000    0.000000    0.000000
        0.000000    8.000000    0.000000
        0.000000    0.000000    6.400000

outcell: Cell vector modules (Ang)   :    8.000000    8.000000    6.400000
outcell: Cell angles (23,13,12) (deg):     90.0000     90.0000     90.0000
outcell: Cell volume (Ang**3)        :    409.6000
<dSpData1D:S at geom step 4
  <sparsity:sparsity for geom step 4
    nrows_g=23 nrows=3 sparsity=.1304 nnzs=69, refcount: 7>
  <dData1D:(new from dSpData1D) n=69, refcount: 1>
refcount: 1>
new_DM -- step:     4
Re-using DM from previous geometries...
Number of DMs in history: 1
 DM extrapolation coefficients: 
1   1.00000
New DM after history re-use:
<dSpData2D:SpM extrapolated using coords
  <sparsity:sparsity for geom step 4
    nrows_g=23 nrows=3 sparsity=.1304 nnzs=69, refcount: 9>
  <dData2D:(temp array for extrapolation) n=69 m=1, refcount: 1>
refcount: 1>
No. of atoms with KB's overlaping orbs in proc 0. Max # of overlaps:       3      23
New grid distribution:   1
           1       1:   25    1:   13    1:    5
           2       1:   25    1:   13    6:   10
           3       1:   25    1:   13   11:   15
           4       1:   25    1:   13   16:   20
           5       1:   25   14:   25    1:    5
           6       1:   25   14:   25    6:   10
           7       1:   25   14:   25   11:   15
           8       1:   25   14:   25   16:   20

InitMesh: MESH =    50 x    50 x    40 =      100000
InitMesh: (bp) =    25 x    25 x    20 =       12500
InitMesh: Mesh cutoff (required, used) =   100.000   107.960 Ry
ExtMesh (bp) on 0 =    57 x    45 x    37 =       94905
New grid distribution:   2
           1       9:   25    1:    5    1:   14
           2       1:    8    1:    5    1:   14
           3       9:   25    1:    5   15:   20
           4       8:   25    6:   25   14:   20
           5       8:   25    6:   25    1:   13
           6       1:    7    6:   25    1:   14
           7       1:    8    1:    5   15:   20
           8       1:    7    6:   25   15:   20
New grid distribution:   3
           1       9:   25    1:    8    1:   12
           2       1:    8    1:    8    1:   11
           3       9:   25    1:    8   13:   20
           4       1:   18    9:   25   15:   20
           5       1:   18    9:   25    1:   14
           6      19:   25    9:   25    1:   13
           7       1:    8    1:    8   12:   20
           8      19:   25    9:   25   14:   20
Setting up quadratic distribution...
ExtMesh (bp) on 0 =    49 x    37 x    46 =       83398
PhiOnMesh: Number of (b)points on node 0 =                 1190
PhiOnMesh: nlist on node 0 =                 4101

        iscf     Eharris(eV)        E_KS(eV)     FreeEng(eV)     dDmax    Ef(eV) dHmax(eV)
   scf:    1     -465.809167     -465.793294     -465.793294  0.009268 -1.885361  0.039515
   scf:    2     -465.793054     -465.793241     -465.793241  0.001945 -1.909303  0.064569
   scf:    3     -465.793356     -465.793326     -465.793326  0.001150 -1.894212  0.002788
   scf:    4     -465.793328     -465.793327     -465.793327  0.000063 -1.894354  0.001958
   scf:    5     -465.793328     -465.793328     -465.793328  0.000138 -1.894691  0.000293
   scf:    6     -465.793328     -465.793328     -465.793328  0.000007 -1.894710  0.000192

SCF Convergence by DM+H criterion
max |DM_out - DM_in|         :     0.0000067156
max |H_out - H_in|      (eV) :     0.0001923657
SCF cycle converged after 6 iterations

Using DM_out to compute the final energy and forces
No. of atoms with KB's overlaping orbs in proc 0. Max # of overlaps:       3      23

siesta: E_KS(eV) =             -465.7933

siesta: Atomic forces (eV/Ang):
     1   -0.099238    0.050898   -0.410083
     2   -0.245480   -0.936423   -0.324560
     3    0.507156    0.857419    0.955576
----------------------------------------
   Tot    0.162439   -0.028106    0.220933
----------------------------------------
   Max    0.955576
   Res    0.589594    sqrt( Sum f_i^2 / 3N )
----------------------------------------
   Max    0.955576    constrained

Stress-tensor-Voigt (kbar):       -0.28        4.58        2.64        1.89        2.53        1.59
(Free)E + p*V (eV/cell)     -466.3842
Target enthalpy (eV/cell)     -465.7933

siesta: Stress tensor (static) (eV/Ang**3):
         0.000218    0.001030    0.000976
         0.001029    0.002937    0.001629
         0.000976    0.001629    0.001822

siesta: Pressure (static):         -2.65834188  kBar

siesta: Stress tensor (total) (eV/Ang**3):
        -0.000176    0.001183    0.000990
         0.001182    0.002856    0.001577
         0.000990    0.001577    0.001647

siesta: Pressure (total):         -2.31118804  kBar

siesta: Temp_ion =     510.699 K

                     ====================================
                        Begin MD step =      5
                     ====================================

outcoor: Atomic coordinates (Ang):                          
   -0.00708803    0.00408071   -0.01780531   1       1  O
    0.08450152    0.98709373   -0.07571776   2       2  H
   -0.39135641   -0.36454559   -0.86258728   2       3  H

outcell: Unit cell vectors (Ang):
        8.000000    0.000000    0.000000
        0.000000    8.000000    0.000000
        0.000000    0.000000    6.400000

outcell: Cell vector modules (Ang)   :    8.000000    8.000000    6.400000
outcell: Cell angles (23,13,12) (deg):     90.0000     90.0000     90.0000
outcell: Cell volume (Ang**3)        :    409.6000
<dSpData1D:S at geom step 5
  <sparsity:sparsity for geom step 5
    nrows_g=23 nrows=3 sparsity=.1304 nnzs=69, refcount: 7>
  <dData1D:(new from dSpData1D) n=69, refcount: 1>
refcount: 1>
new_DM -- step:     5
Re-using DM from previous geometries...
Number of DMs in history: 1
 DM extrapolation coefficients: 
1   1.00000
New DM after history re-use:
<dSpData2D:SpM extrapolated using coords
  <sparsity:sparsity for geom step 5
    nrows_g=23 nrows=3 sparsity=.1304 nnzs=69, refcount: 9>
  <dData2D:(temp array for extrapolation) n=69 m=1, refcount: 1>
refcount: 1>
No. of atoms with KB's overlaping orbs in proc 0. Max # of overlaps:       3      23
New grid distribution:   1
           1       1:   25    1:   13    1:    5
           2       1:   25    1:   13    6:   10
           3       1:   25    1:   13   11:   15
           4       1:   25    1:   13   16:   20
           5       1:   25   14:   25    1:    5
           6       1:   25   14:   25    6:   10
           7       1:   25   14:   25   11:   15
           8       1:   25   14:   25   16:   20

InitMesh: MESH =    50 x    50 x    40 =      100000
InitMesh: (bp) =    25 x    25 x    20 =       12500
InitMesh: Mesh cutoff (required, used) =   100.000   107.960 Ry
ExtMesh (bp) on 0 =    57 x    45 x    37 =       94905
New grid distribution:   2
           1       9:   25    1:    6    1:   14
           2       1:    8    1:    6    1:   14
           3       9:   25    1:    6   15:   20
           4       8:   25    7:   25   14:   20
           5       8:   25    7:   25    1:   13
           6       1:    7    7:   25    1:   14
           7       1:    8    1:    6   15:   20
           8       1:    7    7:   25   15:   20
New grid distribution:   3
           1       9:   25    1:    8    1:   12
           2       1:    8    1:    8    1:   11
           3       9:   25    1:    8   13:   20
           4       1:   18    9:   25   15:   20
           5       1:   18    9:   25    1:   14
           6      19:   25    9:   25    1:   13
           7       1:    8    1:    8   12:   20
           8      19:   25    9:   25   14:   20
Setting up quadratic distribution...
ExtMesh (bp) on 0 =    49 x    38 x    46 =       85652
PhiOnMesh: Number of (b)points on node 0 =                 1428
PhiOnMesh: nlist on node 0 =                 4542

        iscf     Eharris(eV)        E_KS(eV)     FreeEng(eV)     dDmax    Ef(eV) dHmax(eV)
   scf:    1     -465.803993     -465.792009     -465.792009  0.008554 -1.893378  0.034108
   scf:    2     -465.791830     -465.791967     -465.791967  0.001730 -1.914132  0.055502
   scf:    3     -465.792057     -465.792035     -465.792035  0.001016 -1.901091  0.002842
   scf:    4     -465.792036     -465.792036     -465.792036  0.000064 -1.901207  0.002025
   scf:    5     -465.792037     -465.792036     -465.792036  0.000137 -1.901478  0.000327
   scf:    6     -465.792036     -465.792036     -465.792036  0.000007 -1.901492  0.000219

SCF Convergence by DM+H criterion
max |DM_out - DM_in|         :     0.0000072856
max |H_out - H_in|      (eV) :     0.0002185908
SCF cycle converged after 6 iterations

Using DM_out to compute the final energy and forces
No. of atoms with KB's overlaping orbs in proc 0. Max # of overlaps:       3      23

siesta: E_KS(eV) =             -465.7920

siesta: Atomic forces (eV/Ang):
     1   -0.118929    0.063362   -0.485921
     2   -0.236143   -0.963061   -0.310631
     3    0.522291    0.873001    1.016410
----------------------------------------
   Tot    0.167219   -0.026698    0.219858
----------------------------------------
   Max    1.016410
   Res    0.614820    sqrt( Sum f_i^2 / 3N )
----------------------------------------
   Max    1.016410    constrained

Stress-tensor-Voigt (kbar):       -0.31        4.74        2.87        1.86        2.58        1.62
(Free)E + p*V (eV/cell)     -466.4141
Target enthalpy (eV/cell)     -465.7920

siesta: Stress tensor (static) (eV/Ang**3):
         0.000219    0.001025    0.001013
         0.001025    0.003021    0.001657
         0.001012    0.001656    0.001957

siesta: Pressure (static):         -2.77520394  kBar

siesta: Stress tensor (total) (eV/Ang**3):
        -0.000195    0.001159    0.001012
         0.001159    0.002958    0.001613
         0.001012    0.001613    0.001793

siesta: Pressure (total):         -2.43341081  kBar

siesta: Temp_ion =     505.701 K

                     ====================================
                        Begin MD step =      6
                     ====================================

outcoor: Atomic coordinates (Ang):                          
   -0.00729301    0.00387337   -0.01781385   1       1  O
    0.07842813    0.98764059   -0.07929797   2       2  H
   -0.38568436   -0.36686621   -0.86576072   2       3  H

outcell: Unit cell vectors (Ang):
        8.000000    0.000000    0.000000
        0.000000    8.000000    0.000000
        0.000000    0.000000    6.400000

outcell: Cell vector modules (Ang)   :    8.000000    8.000000    6.400000
outcell: Cell angles (23,13,12) (deg):     90.0000     90.0000     90.0000
outcell: Cell volume (Ang**3)        :    409.6000
<dSpData1D:S at geom step 6
  <sparsity:sparsity for geom step 6
    nrows_g=23 nrows=3 sparsity=.1304 nnzs=69, refcount: 7>
  <dData1D:(new from dSpData1D) n=69, refcount: 1>
refcount: 1>
new_DM -- step:     6
Re-using DM from previous geometries...
Number of DMs in history: 1
 DM extrapolation coefficients: 
1   1.00000
New DM after history re-use:
<dSpData2D:SpM extrapolated using coords
  <sparsity:sparsity for geom step 6
    nrows_g=23 nrows=3 sparsity=.1304 nnzs=69, refcount: 9>
  <dData2D:(temp array for extrapolation) n=69 m=1, refcount: 1>
refcount: 1>
No. of atoms with KB's overlaping orbs in proc 0. Max # of overlaps:       3      23
New grid distribution:   1
           1       1:   25    1:   13    1:    5
           2       1:   25    1:   13    6:   10
           3       1:   25    1:   13   11:   15
           4       1:   25    1:   13   16:   20
           5       1:   25   14:   25    1:    5
           6       1:   25   14:   25    6:   10
           7       1:   25   14:   25   11:   15
           8       1:   25   14:   25   16:   20

InitMesh: MESH =    50 x    50 x    40 =      100000
InitMesh: (bp) =    25 x    25 x    20 =       12500
InitMesh: Mesh cutoff (required, used) =   100.000   107.960 Ry
ExtMesh (bp) on 0 =    57 x    45 x    37 =       94905
New grid distribution:   2
           1       9:   25    1:    6    1:   14
           2       1:    8    1:    6    1:   14
           3       9:   25    1:    6   15:   20
           4       8:   25    7:   25   14:   20
           5       8:   25    7:   25    1:   13
           6       1:    7    7:   25    1:   14
           7       1:    8    1:    6   15:   20
           8       1:    7    7:   25   15:   20
New grid distribution:   3
           1       9:   25    1:    8    1:   12
           2       1:    8    1:    8    1:   11
           3       9:   25    1:    8   13:   20
           4       1:   18    9:   25   15:   20
           5       1:   18    9:   25    1:   14
           6      19:   25    9:   25    1:   13
           7       1:    8    1:    8   12:   20
           8      19:   25    9:   25   14:   20
Setting up quadratic distribution...
ExtMesh (bp) on 0 =    49 x    38 x    46 =       85652
PhiOnMesh: Number of (b)points on node 0 =                 1428
PhiOnMesh: nlist on node 0 =                 4541

        iscf     Eharris(eV)        E_KS(eV)     FreeEng(eV)     dDmax    Ef(eV) dHmax(eV)
   scf:    1     -465.799567     -465.791635     -465.791635  0.007817 -1.901670  0.028562
   scf:    2     -465.791522     -465.791613     -465.791613  0.001499 -1.919034  0.045760
   scf:    3     -465.791671     -465.791656     -465.791656  0.000870 -1.908192  0.002915
   scf:    4     -465.791657     -465.791657     -465.791657  0.000065 -1.908275  0.002070
   scf:    5     -465.791658     -465.791657     -465.791657  0.000135 -1.908472  0.000354
   scf:    6     -465.791657     -465.791657     -465.791657  0.000008 -1.908482  0.000242

SCF Convergence by DM+H criterion
max |DM_out - DM_in|         :     0.0000080465
max |H_out - H_in|      (eV) :     0.0002418664
SCF cycle converged after 6 iterations

Using DM_out to compute the final energy and forces
No. of atoms with KB's overlaping orbs in proc 0. Max # of overlaps:       3      23

siesta: E_KS(eV) =             -465.7917

siesta: Atomic forces (eV/Ang):
     1   -0.132306    0.071512   -0.546503
     2   -0.224583   -0.975822   -0.295308
     3    0.528761    0.878969    1.060685
----------------------------------------
   Tot    0.171872   -0.025340    0.218874
----------------------------------------
   Max    1.060685
   Res    0.631435    sqrt( Sum f_i^2 / 3N )
----------------------------------------
   Max    1.060685    constrained

Stress-tensor-Voigt (kbar):       -0.36        4.83        3.05        1.79        2.61        1.63
(Free)E + p*V (eV/cell)     -466.4330
Target enthalpy (eV/cell)     -465.7917

siesta: Stress tensor (static) (eV/Ang**3):
         0.000211    0.001008    0.001031
         0.001007    0.003064    0.001665
         0.001031    0.001665    0.002057

siesta: Pressure (static):         -2.84729707  kBar

siesta: Stress tensor (total) (eV/Ang**3):
        -0.000224    0.001120    0.001016
         0.001120    0.003016    0.001628
         0.001015    0.001628    0.001905

siesta: Pressure (total):         -2.50884920  kBar

siesta: Temp_ion =     504.268 K

                     ====================================
                        Begin MD step =      7
                     ====================================

outcoor: Atomic coordinates (Ang):                          
   -0.00750116    0.00366774   -0.01783548   1       1  O
    0.07226950    0.98781725   -0.08299023   2       2  H
   -0.37981167   -0.36885340   -0.86853179   2       3  H

outcell: Unit cell vectors (Ang):
        8.000000    0.000000    0.000000
        0.000000    8.000000    0.000000
        0.000000    0.000000    6.400000

outcell: Cell vector modules (Ang)   :    8.000000    8.000000    6.400000
outcell: Cell angles (23,13,12) (deg):     90.0000     90.0000     90.0000
outcell: Cell volume (Ang**3)        :    409.6000
<dSpData1D:S at geom step 7
  <sparsity:sparsity for geom step 7
    nrows_g=23 nrows=3 sparsity=.1304 nnzs=69, refcount: 7>
  <dData1D:(new from dSpData1D) n=69, refcount: 1>
refcount: 1>
new_DM -- step:     7
Re-using DM from previous geometries...
Number of DMs in history: 1
 DM extrapolation coefficients: 
1   1.00000
New DM after history re-use:
<dSpData2D:SpM extrapolated using coords
  <sparsity:sparsity for geom step 7
    nrows_g=23 nrows=3 sparsity=.1304 nnzs=69, refcount: 9>
  <dData2D:(temp array for extrapolation) n=69 m=1, refcount: 1>
refcount: 1>
No. of atoms with KB's overlaping orbs in proc 0. Max # of overlaps:       3      23
New grid distribution:   1
           1       1:   25    1:   13    1:    5
           2       1:   25    1:   13    6:   10
           3       1:   25    1:   13   11:   15
           4       1:   25    1:   13   16:   20
           5       1:   25   14:   25    1:    5
           6       1:   25   14:   25    6:   10
           7       1:   25   14:   25   11:   15
           8       1:   25   14:   25   16:   20

InitMesh: MESH =    50 x    50 x    40 =      100000
InitMesh: (bp) =    25 x    25 x    20 =       12500
InitMesh: Mesh cutoff (required, used) =   100.000   107.960 Ry
ExtMesh (bp) on 0 =    57 x    45 x    37 =       94905
New grid distribution:   2
           1       9:   25    1:    6    1:   14
           2       1:    8    1:    6    1:   14
           3       9:   25    1:    6   15:   20
           4       8:   25    7:   25   14:   20
           5       8:   25    7:   25    1:   13
           6       1:    7    7:   25    1:   14
           7       1:    8    1:    6   15:   20
           8       1:    7    7:   25   15:   20
New grid distribution:   3
           1       9:   25    1:    8    1:   12
           2       1:    8    1:    8    1:   11
           3       9:   25    1:    8   13:   20
           4       1:   18    9:   25   15:   20
           5       1:   18    9:   25    1:   14
           6      19:   25    9:   25    1:   13
           7       1:    8    1:    8   12:   20
           8      19:   25    9:   25   14:   20
Setting up quadratic distribution...
ExtMesh (bp) on 0 =    49 x    38 x    46 =       85652
PhiOnMesh: Number of (b)points on node 0 =                 1428
PhiOnMesh: nlist on node 0 =                 4541

        iscf     Eharris(eV)        E_KS(eV)     FreeEng(eV)     dDmax    Ef(eV) dHmax(eV)
   scf:    1     -465.796057     -465.792282     -465.792282  0.007332 -1.910195  0.022787
   scf:    2     -465.792220     -465.792273     -465.792273  0.001256 -1.924032  0.035563
   scf:    3     -465.792308     -465.792299     -465.792299  0.000712 -1.915501  0.002930
   scf:    4     -465.792300     -465.792300     -465.792300  0.000064 -1.915541  0.002070
   scf:    5     -465.792301     -465.792300     -465.792300  0.000130 -1.915652  0.000367
   scf:    6     -465.792300     -465.792300     -465.792300  0.000009 -1.915658  0.000259

SCF Convergence by DM+H criterion
max |DM_out - DM_in|         :     0.0000090113
max |H_out - H_in|      (eV) :     0.0002592468
SCF cycle converged after 6 iterations

Using DM_out to compute the final energy and forces
No. of atoms with KB's overlaping orbs in proc 0. Max # of overlaps:       3      23

siesta: E_KS(eV) =             -465.7923

siesta: Atomic forces (eV/Ang):
     1   -0.139255    0.075550   -0.591382
     2   -0.210804   -0.974046   -0.278419
     3    0.526889    0.875013    1.088058
----------------------------------------
   Tot    0.176831   -0.023482    0.218257
----------------------------------------
   Max    1.088058
   Res    0.638808    sqrt( Sum f_i^2 / 3N )
----------------------------------------
   Max    1.088058    constrained

Stress-tensor-Voigt (kbar):       -0.42        4.85        3.17        1.71        2.60        1.60
(Free)E + p*V (eV/cell)     -466.4398
Target enthalpy (eV/cell)     -465.7923

siesta: Stress tensor (static) (eV/Ang**3):
         0.000195    0.000976    0.001032
         0.000976    0.003059    0.001653
         0.001032    0.001653    0.002120

siesta: Pressure (static):         -2.87015292  kBar

siesta: Stress tensor (total) (eV/Ang**3):
        -0.000261    0.001066    0.001000
         0.001065    0.003024    0.001620
         0.000999    0.001620    0.001979

siesta: Pressure (total):         -2.53266439  kBar

siesta: Temp_ion =     506.730 K

                     ====================================
                        Begin MD step =      8
                     ====================================

outcoor: Atomic coordinates (Ang):                          
   -0.00771264    0.00346392   -0.01787127   1       1  O
    0.06603084    0.98762439   -0.08678814   2       2  H
   -0.37373906   -0.37050865   -0.87089011   2       3  H

outcell: Unit cell vectors (Ang):
        8.000000    0.000000    0.000000
        0.000000    8.000000    0.000000
        0.000000    0.000000    6.400000

outcell: Cell vector modules (Ang)   :    8.000000    8.000000    6.400000
outcell: Cell angles (23,13,12) (deg):     90.0000     90.0000     90.0000
outcell: Cell volume (Ang**3)        :    409.6000
<dSpData1D:S at geom step 8
  <sparsity:sparsity for geom step 8
    nrows_g=23 nrows=3 sparsity=.1304 nnzs=69, refcount: 7>
  <dData1D:(new from dSpData1D) n=69, refcount: 1>
refcount: 1>
new_DM -- step:     8
Re-using DM from previous geometries...
Number of DMs in history: 1
 DM extrapolation coefficients: 
1   1.00000
New DM after history re-use:
<dSpData2D:SpM extrapolated using coords
  <sparsity:sparsity for geom step 8
    nrows_g=23 nrows=3 sparsity=.1304 nnzs=69, refcount: 9>
  <dData2D:(temp array for extrapolation) n=69 m=1, refcount: 1>
refcount: 1>
No. of atoms with KB's overlaping orbs in proc 0. Max # of overlaps:       3      23
New grid distribution:   1
           1       1:   25    1:   13    1:    5
           2       1:   25    1:   13    6:   10
           3       1:   25    1:   13   11:   15
           4       1:   25    1:   13   16:   20
           5       1:   25   14:   25    1:    5
           6       1:   25   14:   25    6:   10
           7       1:   25   14:   25   11:   15
           8       1:   25   14:   25   16:   20

InitMesh: MESH =    50 x    50 x    40 =      100000
InitMesh: (bp) =    25 x    25 x    20 =       12500
InitMesh: Mesh cutoff (required, used) =   100.000   107.960 Ry
ExtMesh (bp) on 0 =    57 x    45 x    37 =       94905
New grid distribution:   2
           1       9:   25    1:    6    1:   14
           2       1:    8    1:    6    1:   14
           3       9:   25    1:    6   15:   20
           4       8:   25    7:   25   14:   20
           5       8:   25    7:   25    1:   13
           6       1:    7    7:   25    1:   14
           7       1:    8    1:    6   15:   20
           8       1:    7    7:   25   15:   20
New grid distribution:   3
           1       9:   25    1:    8    1:   12
           2       1:    8    1:    8    1:   12
           3       9:   25    1:    8   13:   20
           4       1:   18    9:   25   15:   20
           5       1:   18    9:   25    1:   14
           6      19:   25    9:   25    1:   13
           7       1:    8    1:    8   13:   20
           8      19:   25    9:   25   14:   20
Setting up quadratic distribution...
ExtMesh (bp) on 0 =    49 x    38 x    46 =       85652
PhiOnMesh: Number of (b)points on node 0 =                 1428
PhiOnMesh: nlist on node 0 =                 4544

        iscf     Eharris(eV)        E_KS(eV)     FreeEng(eV)     dDmax    Ef(eV) dHmax(eV)
   scf:    1     -465.793523     -465.793950     -465.793950  0.007515 -1.918940  0.016889
   scf:    2     -465.793921     -465.793946     -465.793946  0.001006 -1.929183  0.025111
   scf:    3     -465.793969     -465.793965     -465.793965  0.000543 -1.923046  0.002809
   scf:    4     -465.793966     -465.793965     -465.793965  0.000062 -1.923023  0.001968
   scf:    5     -465.793960     -465.793960     -465.793960  0.000117 -1.923027  0.000358
   scf:    6     -465.793960     -465.793960     -465.793960  0.000010 -1.923031  0.000264

SCF Convergence by DM+H criterion
max |DM_out - DM_in|         :     0.0000103098
max |H_out - H_in|      (eV) :     0.0002644729
SCF cycle converged after 6 iterations

Using DM_out to compute the final energy and forces
No. of atoms with KB's overlaping orbs in proc 0. Max # of overlaps:       3      23

siesta: E_KS(eV) =             -465.7940

siesta: Atomic forces (eV/Ang):
     1   -0.139901    0.076028   -0.620346
     2   -0.195505   -0.958793   -0.260573
     3    0.517077    0.861173    1.098520
----------------------------------------
   Tot    0.181671   -0.021592    0.217601
----------------------------------------
   Max    1.098520
   Res    0.636948    sqrt( Sum f_i^2 / 3N )
----------------------------------------
   Max    1.098520    constrained

Stress-tensor-Voigt (kbar):       -0.49        4.79        3.23        1.60        2.55        1.55
(Free)E + p*V (eV/cell)     -466.4359
Target enthalpy (eV/cell)     -465.7940

siesta: Stress tensor (static) (eV/Ang**3):
         0.000172    0.000934    0.001017
         0.000934    0.003015    0.001623
         0.001017    0.001622    0.002150

siesta: Pressure (static):         -2.85016271  kBar

siesta: Stress tensor (total) (eV/Ang**3):
        -0.000306    0.000999    0.000966
         0.000998    0.002990    0.001592
         0.000966    0.001592    0.002018

siesta: Pressure (total):         -2.51102635  kBar

siesta: Temp_ion =     513.180 K

                     ====================================
                        Begin MD step =      9
                     ====================================

outcoor: Atomic coordinates (Ang):                          
   -0.00792748    0.00326192   -0.01792191   1       1  O
    0.05971796    0.98706779   -0.09068494   2       2  H
   -0.36747022   -0.37183721   -0.87283171   2       3  H

outcell: Unit cell vectors (Ang):
        8.000000    0.000000    0.000000
        0.000000    8.000000    0.000000
        0.000000    0.000000    6.400000

outcell: Cell vector modules (Ang)   :    8.000000    8.000000    6.400000
outcell: Cell angles (23,13,12) (deg):     90.0000     90.0000     90.0000
outcell: Cell volume (Ang**3)        :    409.6000
<dSpData1D:S at geom step 9
  <sparsity:sparsity for geom step 9
    nrows_g=23 nrows=3 sparsity=.1304 nnzs=69, refcount: 7>
  <dData1D:(new from dSpData1D) n=69, refcount: 1>
refcount: 1>
new_DM -- step:     9
Re-using DM from previous geometries...
Number of DMs in history: 1
 DM extrapolation coefficients: 
1   1.00000
New DM after history re-use:
<dSpData2D:SpM extrapolated using coords
  <sparsity:sparsity for geom step 9
    nrows_g=23 nrows=3 sparsity=.1304 nnzs=69, refcount: 9>
  <dData2D:(temp array for extrapolation) n=69 m=1, refcount: 1>
refcount: 1>
No. of atoms with KB's overlaping orbs in proc 0. Max # of overlaps:       3      23
New grid distribution:   1
           1       1:   25    1:   13    1:    5
           2       1:   25    1:   13    6:   10
           3       1:   25    1:   13   11:   15
           4       1:   25    1:   13   16:   20
           5       1:   25   14:   25    1:    5
           6       1:   25   14:   25    6:   10
           7       1:   25   14:   25   11:   15
           8       1:   25   14:   25   16:   20

InitMesh: MESH =    50 x    50 x    40 =      100000
InitMesh: (bp) =    25 x    25 x    20 =       12500
InitMesh: Mesh cutoff (required, used) =   100.000   107.960 Ry
ExtMesh (bp) on 0 =    57 x    45 x    37 =       94905
New grid distribution:   2
           1       9:   25    1:    6    1:   14
           2       1:    8    1:    6    1:   14
           3       9:   25    1:    6   15:   20
           4       8:   25    7:   25   14:   20
           5       8:   25    7:   25    1:   13
           6       1:    7    7:   25    1:   14
           7       1:    8    1:    6   15:   20
           8       1:    7    7:   25   15:   20
New grid distribution:   3
           1       9:   25    1:    8    1:   12
           2       1:    8    1:    8    1:   12
           3       9:   25    1:    8   13:   20
           4       1:   18    9:   25   15:   20
           5       1:   18    9:   25    1:   14
           6      19:   25    9:   25    1:   13
           7       1:    8    1:    8   13:   20
           8      19:   25    9:   25   14:   20
Setting up quadratic distribution...
ExtMesh (bp) on 0 =    49 x    38 x    46 =       85652
PhiOnMesh: Number of (b)points on node 0 =                 1428
PhiOnMesh: nlist on node 0 =                 4538

        iscf     Eharris(eV)        E_KS(eV)     FreeEng(eV)     dDmax    Ef(eV) dHmax(eV)
   scf:    1     -465.791991     -465.796608     -465.796608  0.007694 -1.927940  0.010986
   scf:    2     -465.796609     -465.796615     -465.796615  0.000754 -1.934590  0.014703
   scf:    3     -465.796624     -465.796621     -465.796621  0.000362 -1.930881  0.002459
   scf:    4     -465.796622     -465.796622     -465.796622  0.000051 -1.930765  0.001659
   scf:    5     -465.796622     -465.796622     -465.796622  0.000092 -1.930646  0.000321

SCF Convergence by DM+H criterion
max |DM_out - DM_in|         :     0.0000915659
max |H_out - H_in|      (eV) :     0.0003207858
SCF cycle converged after 5 iterations

Using DM_out to compute the final energy and forces
No. of atoms with KB's overlaping orbs in proc 0. Max # of overlaps:       3      23

siesta: E_KS(eV) =             -465.7966

siesta: Atomic forces (eV/Ang):
     1   -0.134877    0.071841   -0.633062
     2   -0.178959   -0.929687   -0.241663
     3    0.500156    0.837472    1.091870
----------------------------------------
   Tot    0.186319   -0.020374    0.217146
----------------------------------------
   Max    1.091870
   Res    0.625616    sqrt( Sum f_i^2 / 3N )
----------------------------------------
   Max    1.091870    constrained

Stress-tensor-Voigt (kbar):       -0.57        4.66        3.23        1.47        2.47        1.47
(Free)E + p*V (eV/cell)     -466.4202
Target enthalpy (eV/cell)     -465.7966

siesta: Stress tensor (static) (eV/Ang**3):
         0.000143    0.000881    0.000987
         0.000880    0.002925    0.001572
         0.000987    0.001572    0.002143

siesta: Pressure (static):         -2.78283257  kBar

siesta: Stress tensor (total) (eV/Ang**3):
        -0.000356    0.000921    0.000917
         0.000920    0.002906    0.001542
         0.000916    0.001542    0.002018

siesta: Pressure (total):         -2.43937945  kBar

siesta: Temp_ion =     523.477 K

                     ====================================
                        Begin MD step =     10
                     ====================================

outcoor: Atomic coordinates (Ang):                          
   -0.00814555    0.00306164   -0.01798772   1       1  O
    0.05333712    0.98615850   -0.09467347   2       2  H
   -0.36101157   -0.37284808   -0.87435910   2       3  H

outcell: Unit cell vectors (Ang):
        8.000000    0.000000    0.000000
        0.000000    8.000000    0.000000
        0.000000    0.000000    6.400000

outcell: Cell vector modules (Ang)   :    8.000000    8.000000    6.400000
outcell: Cell angles (23,13,12) (deg):     90.0000     90.0000     90.0000
outcell: Cell volume (Ang**3)        :    409.6000
<dSpData1D:S at geom step 10
  <sparsity:sparsity for geom step 10
    nrows_g=23 nrows=3 sparsity=.1304 nnzs=69, refcount: 7>
  <dData1D:(new from dSpData1D) n=69, refcount: 1>
refcount: 1>
new_DM -- step:    10
Re-using DM from previous geometries...
Number of DMs in history: 1
 DM extrapolation coefficients: 
1   1.00000
New DM after history re-use:
<dSpData2D:SpM extrapolated using coords
  <sparsity:sparsity for geom step 10
    nrows_g=23 nrows=3 sparsity=.1304 nnzs=69, refcount: 9>
  <dData2D:(temp array for extrapolation) n=69 m=1, refcount: 1>
refcount: 1>
No. of atoms with KB's overlaping orbs in proc 0. Max # of overlaps:       3      23
New grid distribution:   1
           1       1:   25    1:   13    1:    5
           2       1:   25    1:   13    6:   10
           3       1:   25    1:   13   11:   15
           4       1:   25    1:   13   16:   20
           5       1:   25   14:   25    1:    5
           6       1:   25   14:   25    6:   10
           7       1:   25   14:   25   11:   15
           8       1:   25   14:   25   16:   20

InitMesh: MESH =    50 x    50 x    40 =      100000
InitMesh: (bp) =    25 x    25 x    20 =       12500
InitMesh: Mesh cutoff (required, used) =   100.000   107.960 Ry
ExtMesh (bp) on 0 =    57 x    45 x    37 =       94905
New grid distribution:   2
           1       9:   25    1:    6    1:   14
           2       1:    8    1:    6    1:   14
           3       9:   25    1:    6   15:   20
           4       8:   25    7:   25   14:   20
           5       8:   25    7:   25    1:   13
           6       1:    7    7:   25    1:   14
           7       1:    8    1:    6   15:   20
           8       1:    7    7:   25   15:   20
New grid distribution:   3
           1       9:   25    1:    8    1:   12
           2       1:    8    1:    8    1:   12
           3       9:   25    1:    8   13:   20
           4       1:   18    9:   25   15:   20
           5       1:   18    9:   25    1:   14
           6      19:   25    9:   25    1:   13
           7       1:    8    1:    8   13:   20
           8      19:   25    9:   25   14:   20
Setting up quadratic distribution...
ExtMesh (bp) on 0 =    49 x    38 x    46 =       85652
PhiOnMesh: Number of (b)points on node 0 =                 1428
PhiOnMesh: nlist on node 0 =                 4536

        iscf     Eharris(eV)        E_KS(eV)     FreeEng(eV)     dDmax    Ef(eV) dHmax(eV)
   scf:    1     -465.791412     -465.800148     -465.800148  0.007861 -1.937308  0.011237
   scf:    2     -465.800162     -465.800160     -465.800160  0.000674 -1.940286  0.007006
   scf:    3     -465.800165     -465.800163     -465.800163  0.000198 -1.938926  0.001706
   scf:    4     -465.800163     -465.800163     -465.800163  0.000029 -1.938791  0.001209
   scf:    5     -465.800163     -465.800163     -465.800163  0.000061 -1.938585  0.000233

SCF Convergence by DM+H criterion
max |DM_out - DM_in|         :     0.0000607481
max |H_out - H_in|      (eV) :     0.0002325079
SCF cycle converged after 5 iterations

Using DM_out to compute the final energy and forces
No. of atoms with KB's overlaping orbs in proc 0. Max # of overlaps:       3      23

siesta: E_KS(eV) =             -465.8002

siesta: Atomic forces (eV/Ang):
     1   -0.123973    0.064495   -0.629518
     2   -0.160873   -0.886418   -0.221830
     3    0.476109    0.803832    1.068374
----------------------------------------
   Tot    0.191262   -0.018091    0.217026
----------------------------------------
   Max    1.068374
   Res    0.604694    sqrt( Sum f_i^2 / 3N )
----------------------------------------
   Max    1.068374    constrained

Stress-tensor-Voigt (kbar):       -0.66        4.44        3.17        1.33        2.36        1.36
(Free)E + p*V (eV/cell)     -466.3931
Target enthalpy (eV/cell)     -465.8002

siesta: Stress tensor (static) (eV/Ang**3):
         0.000109    0.000818    0.000942
         0.000817    0.002791    0.001504
         0.000942    0.001504    0.002099

siesta: Pressure (static):         -2.66971482  kBar

siesta: Stress tensor (total) (eV/Ang**3):
        -0.000412    0.000831    0.000852
         0.000830    0.002774    0.001471
         0.000851    0.001471    0.001980

siesta: Pressure (total):         -2.31936984  kBar

siesta: Temp_ion =     537.234 K

                     ====================================
                        Begin MD step =     11
                     ====================================

outcoor: Atomic coordinates (Ang):                          
   -0.00836660    0.00286290   -0.01806860   1       1  O
    0.04689517    0.98491291   -0.09874620   2       2  H
   -0.35437222   -0.37355401   -0.87548120   2       3  H

outcell: Unit cell vectors (Ang):
        8.000000    0.000000    0.000000
        0.000000    8.000000    0.000000
        0.000000    0.000000    6.400000

outcell: Cell vector modules (Ang)   :    8.000000    8.000000    6.400000
outcell: Cell angles (23,13,12) (deg):     90.0000     90.0000     90.0000
outcell: Cell volume (Ang**3)        :    409.6000
<dSpData1D:S at geom step 11
  <sparsity:sparsity for geom step 11
    nrows_g=23 nrows=3 sparsity=.1304 nnzs=69, refcount: 7>
  <dData1D:(new from dSpData1D) n=69, refcount: 1>
refcount: 1>
new_DM -- step:    11
Re-using DM from previous geometries...
Number of DMs in history: 1
 DM extrapolation coefficients: 
1   1.00000
New DM after history re-use:
<dSpData2D:SpM extrapolated using coords
  <sparsity:sparsity for geom step 11
    nrows_g=23 nrows=3 sparsity=.1304 nnzs=69, refcount: 9>
  <dData2D:(temp array for extrapolation) n=69 m=1, refcount: 1>
refcount: 1>
No. of atoms with KB's overlaping orbs in proc 0. Max # of overlaps:       3      23
New grid distribution:   1
           1       1:   25    1:   13    1:    5
           2       1:   25    1:   13    6:   10
           3       1:   25    1:   13   11:   15
           4       1:   25    1:   13   16:   20
           5       1:   25   14:   25    1:    5
           6       1:   25   14:   25    6:   10
           7       1:   25   14:   25   11:   15
           8       1:   25   14:   25   16:   20

InitMesh: MESH =    50 x    50 x    40 =      100000
InitMesh: (bp) =    25 x    25 x    20 =       12500
InitMesh: Mesh cutoff (required, used) =   100.000   107.960 Ry
ExtMesh (bp) on 0 =    57 x    45 x    37 =       94905
New grid distribution:   2
           1       9:   25    1:    6    1:   14
           2       1:    8    1:    6    1:   14
           3       9:   25    1:    6   15:   20
           4       8:   25    7:   25   14:   20
           5       8:   25    7:   25    1:   13
           6       1:    7    7:   25    1:   14
           7       1:    8    1:    6   15:   20
           8       1:    7    7:   25   15:   20
New grid distribution:   3
           1       9:   25    1:    8    1:   12
           2       1:    8    1:    8    1:   12
           3       9:   25    1:    8   13:   20
           4       1:   18    9:   25   15:   20
           5       1:   18    9:   25    1:   14
           6      19:   25    9:   25    1:   13
           7       1:    8    1:    8   13:   20
           8      19:   25    9:   25   14:   20
Setting up quadratic distribution...
ExtMesh (bp) on 0 =    49 x    38 x    46 =       85652
PhiOnMesh: Number of (b)points on node 0 =                 1428
PhiOnMesh: nlist on node 0 =                 4539

        iscf     Eharris(eV)        E_KS(eV)     FreeEng(eV)     dDmax    Ef(eV) dHmax(eV)
   scf:    1     -465.791708     -465.804432     -465.804432  0.008038 -1.947022  0.012374
   scf:    2     -465.804444     -465.804444     -465.804444  0.000704 -1.946694  0.007959
   scf:    3     -465.804451     -465.804448     -465.804448  0.000220 -1.947159  0.001804
   scf:    4     -465.804449     -465.804448     -465.804448  0.000031 -1.947204  0.001284
   scf:    5     -465.804449     -465.804449     -465.804449  0.000061 -1.947136  0.000388

SCF Convergence by DM+H criterion
max |DM_out - DM_in|         :     0.0000608290
max |H_out - H_in|      (eV) :     0.0003876802
SCF cycle converged after 5 iterations

Using DM_out to compute the final energy and forces
No. of atoms with KB's overlaping orbs in proc 0. Max # of overlaps:       3      23

siesta: E_KS(eV) =             -465.8044

siesta: Atomic forces (eV/Ang):
     1   -0.106996    0.054529   -0.609217
     2   -0.142403   -0.830572   -0.201107
     3    0.445660    0.760227    1.027434
----------------------------------------
   Tot    0.196261   -0.015816    0.217110
----------------------------------------
   Max    1.027434
   Res    0.574294    sqrt( Sum f_i^2 / 3N )
----------------------------------------
   Max    1.027434    constrained

Stress-tensor-Voigt (kbar):       -0.75        4.17        3.05        1.18        2.21        1.24
(Free)E + p*V (eV/cell)     -466.3550
Target enthalpy (eV/cell)     -465.8044

siesta: Stress tensor (static) (eV/Ang**3):
         0.000071    0.000747    0.000884
         0.000746    0.002617    0.001416
         0.000883    0.001416    0.002018

siesta: Pressure (static):         -2.51300002  kBar

siesta: Stress tensor (total) (eV/Ang**3):
        -0.000471    0.000735    0.000772
         0.000734    0.002601    0.001379
         0.000772    0.001379    0.001902

siesta: Pressure (total):         -2.15344838  kBar

siesta: Temp_ion =     553.840 K

                     ====================================
                        Begin MD step =     12
                     ====================================

outcoor: Atomic coordinates (Ang):                          
   -0.00859020    0.00266546   -0.01816407   1       1  O
    0.04039912    0.98335220   -0.10289527   2       2  H
   -0.34756372   -0.37397154   -0.87621354   2       3  H

outcell: Unit cell vectors (Ang):
        8.000000    0.000000    0.000000
        0.000000    8.000000    0.000000
        0.000000    0.000000    6.400000

outcell: Cell vector modules (Ang)   :    8.000000    8.000000    6.400000
outcell: Cell angles (23,13,12) (deg):     90.0000     90.0000     90.0000
outcell: Cell volume (Ang**3)        :    409.6000
<dSpData1D:S at geom step 12
  <sparsity:sparsity for geom step 12
    nrows_g=23 nrows=3 sparsity=.1304 nnzs=69, refcount: 7>
  <dData1D:(new from dSpData1D) n=69, refcount: 1>
refcount: 1>
new_DM -- step:    12
Re-using DM from previous geometries...
Number of DMs in history: 1
 DM extrapolation coefficients: 
1   1.00000
New DM after history re-use:
<dSpData2D:SpM extrapolated using coords
  <sparsity:sparsity for geom step 12
    nrows_g=23 nrows=3 sparsity=.1304 nnzs=69, refcount: 9>
[...]
           6      19:   25    1:    9   13:   20
           7       1:    7   10:   25   14:   20
           8       8:   25   10:   25   15:   20
Setting up quadratic distribution...
ExtMesh (bp) on 0 =    41 x    51 x    46 =       96186
PhiOnMesh: Number of (b)points on node 0 =                 2394
PhiOnMesh: nlist on node 0 =                 4835

        iscf     Eharris(eV)        E_KS(eV)     FreeEng(eV)     dDmax    Ef(eV) dHmax(eV)
   scf:    1     -465.779941     -465.774365     -465.774365  0.007459 -1.845429  0.014201
   scf:    2     -465.774365     -465.774371     -465.774371  0.000567 -1.849867  0.014107
   scf:    3     -465.774378     -465.774376     -465.774376  0.000230 -1.847210  0.002452
   scf:    4     -465.774376     -465.774376     -465.774376  0.000044 -1.847106  0.001433
   scf:    5     -465.774377     -465.774376     -465.774376  0.000086 -1.847045  0.000444

SCF Convergence by DM+H criterion
max |DM_out - DM_in|         :     0.0000857933
max |H_out - H_in|      (eV) :     0.0004441926
SCF cycle converged after 5 iterations

Using DM_out to compute the final energy and forces
No. of atoms with KB's overlaping orbs in proc 0. Max # of overlaps:       3      23

siesta: E_KS(eV) =             -465.7744

siesta: Atomic forces (eV/Ang):
     1    0.294623   -0.236162   -0.228962
     2    0.466409   -0.876103   -0.295483
     3   -0.601567    1.152429    0.807153
----------------------------------------
   Tot    0.159465    0.040164    0.282709
----------------------------------------
   Max    1.152429
   Res    0.633235    sqrt( Sum f_i^2 / 3N )
----------------------------------------
   Max    1.152429    constrained

Stress-tensor-Voigt (kbar):        0.35        5.02        2.09       -2.91        2.61       -1.64
(Free)E + p*V (eV/cell)     -466.4110
Target enthalpy (eV/cell)     -465.7744

siesta: Stress tensor (static) (eV/Ang**3):
         0.000661   -0.001743   -0.000873
        -0.001745    0.003195    0.001671
        -0.000873    0.001671    0.001366

siesta: Pressure (static):         -2.78874011  kBar

siesta: Stress tensor (total) (eV/Ang**3):
         0.000220   -0.001816   -0.001024
        -0.001817    0.003136    0.001629
        -0.001025    0.001629    0.001307

siesta: Pressure (total):         -2.49011156  kBar

siesta: Temp_ion =     440.062 K

                     ====================================
                        Begin MD step =     98
                     ====================================

outcoor: Atomic coordinates (Ang):                          
   -0.00791149   -0.00353933   -0.02607585   1       1  O
   -0.47301424    0.82998681   -0.27404488   2       2  H
    0.27297612   -0.54491797   -0.81632409   2       3  H

outcell: Unit cell vectors (Ang):
        8.000000    0.000000    0.000000
        0.000000    8.000000    0.000000
        0.000000    0.000000    6.400000

outcell: Cell vector modules (Ang)   :    8.000000    8.000000    6.400000
outcell: Cell angles (23,13,12) (deg):     90.0000     90.0000     90.0000
outcell: Cell volume (Ang**3)        :    409.6000
<dSpData1D:S at geom step 98
  <sparsity:sparsity for geom step 98
    nrows_g=23 nrows=3 sparsity=.1304 nnzs=69, refcount: 7>
  <dData1D:(new from dSpData1D) n=69, refcount: 1>
refcount: 1>
new_DM -- step:    98
Re-using DM from previous geometries...
Number of DMs in history: 1
 DM extrapolation coefficients: 
1   1.00000
New DM after history re-use:
<dSpData2D:SpM extrapolated using coords
  <sparsity:sparsity for geom step 98
    nrows_g=23 nrows=3 sparsity=.1304 nnzs=69, refcount: 9>
  <dData2D:(temp array for extrapolation) n=69 m=1, refcount: 1>
refcount: 1>
No. of atoms with KB's overlaping orbs in proc 0. Max # of overlaps:       3      23
New grid distribution:   1
           1       1:   25    1:   13    1:    5
           2       1:   25    1:   13    6:   10
           3       1:   25    1:   13   11:   15
           4       1:   25    1:   13   16:   20
           5       1:   25   14:   25    1:    5
           6       1:   25   14:   25    6:   10
           7       1:   25   14:   25   11:   15
           8       1:   25   14:   25   16:   20

InitMesh: MESH =    50 x    50 x    40 =      100000
InitMesh: (bp) =    25 x    25 x    20 =       12500
InitMesh: Mesh cutoff (required, used) =   100.000   107.960 Ry
ExtMesh (bp) on 0 =    57 x    45 x    37 =       94905
New grid distribution:   2
           1       1:    9    7:   25    1:   14
           2       7:   25    1:    6    1:   14
           3       1:    6    1:    6    1:   14
           4       1:    9    7:   25   15:   20
           5      10:   25    7:   25    1:   14
           6       7:   25    1:    6   15:   20
           7       1:    6    1:    6   15:   20
           8      10:   25    7:   25   15:   20
New grid distribution:   3
           1       1:   18    1:    9    1:   14
           2       1:    7   10:   25    1:   13
           3      19:   25    1:    9    1:   12
           4       1:   18    1:    9   15:   20
           5       8:   25   10:   25    1:   14
           6      19:   25    1:    9   13:   20
           7       1:    7   10:   25   14:   20
           8       8:   25   10:   25   15:   20
Setting up quadratic distribution...
ExtMesh (bp) on 0 =    41 x    51 x    46 =       96186
PhiOnMesh: Number of (b)points on node 0 =                 2394
PhiOnMesh: nlist on node 0 =                 4841

        iscf     Eharris(eV)        E_KS(eV)     FreeEng(eV)     dDmax    Ef(eV) dHmax(eV)
   scf:    1     -465.775654     -465.773931     -465.773931  0.008088 -1.846555  0.010125
   scf:    2     -465.773941     -465.773939     -465.773939  0.000532 -1.847675  0.006577
   scf:    3     -465.773943     -465.773942     -465.773942  0.000160 -1.847024  0.001611
   scf:    4     -465.773942     -465.773942     -465.773942  0.000030 -1.846959  0.001078
   scf:    5     -465.773942     -465.773942     -465.773942  0.000063 -1.846921  0.000358

SCF Convergence by DM+H criterion
max |DM_out - DM_in|         :     0.0000633924
max |H_out - H_in|      (eV) :     0.0003583188
SCF cycle converged after 5 iterations

Using DM_out to compute the final energy and forces
No. of atoms with KB's overlaping orbs in proc 0. Max # of overlaps:       3      23

siesta: E_KS(eV) =             -465.7739

siesta: Atomic forces (eV/Ang):
     1    0.286674   -0.226680   -0.232296
     2    0.478793   -0.883818   -0.291008
     3   -0.612285    1.152992    0.804600
----------------------------------------
   Tot    0.153182    0.042494    0.281296
----------------------------------------
   Max    1.152992
   Res    0.635457    sqrt( Sum f_i^2 / 3N )
----------------------------------------
   Max    1.152992    constrained

Stress-tensor-Voigt (kbar):        0.46        5.02        2.07       -3.01        2.57       -1.67
(Free)E + p*V (eV/cell)     -466.4175
Target enthalpy (eV/cell)     -465.7739

siesta: Stress tensor (static) (eV/Ang**3):
         0.000700   -0.001781   -0.000881
        -0.001782    0.003206    0.001655
        -0.000881    0.001655    0.001360

siesta: Pressure (static):         -2.81201942  kBar

siesta: Stress tensor (total) (eV/Ang**3):
         0.000288   -0.001879   -0.001043
        -0.001880    0.003135    0.001601
        -0.001043    0.001602    0.001291

siesta: Pressure (total):         -2.51750119  kBar

siesta: Temp_ion =     438.427 K

                     ====================================
                        Begin MD step =     99
                     ====================================

outcoor: Atomic coordinates (Ang):                          
   -0.00761834   -0.00361781   -0.02594954   1       1  O
   -0.47778075    0.82618229   -0.27690036   2       2  H
    0.27878012   -0.54443627   -0.81404258   2       3  H

outcell: Unit cell vectors (Ang):
        8.000000    0.000000    0.000000
        0.000000    8.000000    0.000000
        0.000000    0.000000    6.400000

outcell: Cell vector modules (Ang)   :    8.000000    8.000000    6.400000
outcell: Cell angles (23,13,12) (deg):     90.0000     90.0000     90.0000
outcell: Cell volume (Ang**3)        :    409.6000
<dSpData1D:S at geom step 99
  <sparsity:sparsity for geom step 99
    nrows_g=23 nrows=3 sparsity=.1304 nnzs=69, refcount: 7>
  <dData1D:(new from dSpData1D) n=69, refcount: 1>
refcount: 1>
new_DM -- step:    99
Re-using DM from previous geometries...
Number of DMs in history: 1
 DM extrapolation coefficients: 
1   1.00000
New DM after history re-use:
<dSpData2D:SpM extrapolated using coords
  <sparsity:sparsity for geom step 99
    nrows_g=23 nrows=3 sparsity=.1304 nnzs=69, refcount: 9>
  <dData2D:(temp array for extrapolation) n=69 m=1, refcount: 1>
refcount: 1>
No. of atoms with KB's overlaping orbs in proc 0. Max # of overlaps:       3      23
New grid distribution:   1
           1       1:   25    1:   13    1:    5
           2       1:   25    1:   13    6:   10
           3       1:   25    1:   13   11:   15
           4       1:   25    1:   13   16:   20
           5       1:   25   14:   25    1:    5
           6       1:   25   14:   25    6:   10
           7       1:   25   14:   25   11:   15
           8       1:   25   14:   25   16:   20

InitMesh: MESH =    50 x    50 x    40 =      100000
InitMesh: (bp) =    25 x    25 x    20 =       12500
InitMesh: Mesh cutoff (required, used) =   100.000   107.960 Ry
ExtMesh (bp) on 0 =    57 x    45 x    37 =       94905
New grid distribution:   2
           1       1:    9    7:   25    1:   14
           2       7:   25    1:    6    1:   14
           3       1:    6    1:    6    1:   14
           4       1:    9    7:   25   15:   20
           5      10:   25    7:   25    1:   14
           6       7:   25    1:    6   15:   20
           7       1:    6    1:    6   15:   20
           8      10:   25    7:   25   15:   20
New grid distribution:   3
           1       1:   18    1:    9    1:   14
           2       1:    7   10:   25    1:   13
           3      19:   25    1:    9    1:   12
           4       1:   18    1:    9   15:   20
           5       8:   25   10:   25    1:   14
           6      19:   25    1:    9   13:   20
           7       1:    7   10:   25   14:   20
           8       8:   25   10:   25   15:   20
Setting up quadratic distribution...
ExtMesh (bp) on 0 =    41 x    51 x    46 =       96186
PhiOnMesh: Number of (b)points on node 0 =                 2394
PhiOnMesh: nlist on node 0 =                 4837

        iscf     Eharris(eV)        E_KS(eV)     FreeEng(eV)     dDmax    Ef(eV) dHmax(eV)
   scf:    1     -465.772537     -465.774691     -465.774691  0.008723 -1.847293  0.010396
   scf:    2     -465.774700     -465.774700     -465.774700  0.000657 -1.845248  0.006701
   scf:    3     -465.774705     -465.774703     -465.774703  0.000234 -1.846374  0.002214
   scf:    4     -465.774704     -465.774703     -465.774703  0.000033 -1.846461  0.001315
   scf:    5     -465.774704     -465.774704     -465.774704  0.000065 -1.846517  0.000365

SCF Convergence by DM+H criterion
max |DM_out - DM_in|         :     0.0000652063
max |H_out - H_in|      (eV) :     0.0003649601
SCF cycle converged after 5 iterations

Using DM_out to compute the final energy and forces
No. of atoms with KB's overlaping orbs in proc 0. Max # of overlaps:       3      23

siesta: E_KS(eV) =             -465.7747

siesta: Atomic forces (eV/Ang):
     1    0.277750   -0.214938   -0.218535
     2    0.485097   -0.880050   -0.287089
     3   -0.615637    1.139932    0.786177
----------------------------------------
   Tot    0.147210    0.044944    0.280553
----------------------------------------
   Max    1.139932
   Res    0.628919    sqrt( Sum f_i^2 / 3N )
----------------------------------------
   Max    1.139932    constrained

Stress-tensor-Voigt (kbar):        0.55        4.94        1.98       -3.07        2.48       -1.68
(Free)E + p*V (eV/cell)     -466.4117
Target enthalpy (eV/cell)     -465.7747

siesta: Stress tensor (static) (eV/Ang**3):
         0.000724   -0.001794   -0.000878
        -0.001795    0.003171    0.001618
        -0.000878    0.001618    0.001319

siesta: Pressure (static):         -2.78505663  kBar

siesta: Stress tensor (total) (eV/Ang**3):
         0.000341   -0.001915   -0.001049
        -0.001916    0.003086    0.001550
        -0.001049    0.001550    0.001239

siesta: Pressure (total):         -2.49163308  kBar

siesta: Temp_ion =     441.378 K

                     ====================================
                        Begin MD step =    100
                     ====================================

outcoor: Atomic coordinates (Ang):                          
   -0.00731853   -0.00370145   -0.02582845   1       1  O
   -0.48236338    0.82204378   -0.27986485   2       2  H
    0.28435074   -0.54352210   -0.81146275   2       3  H

outcell: Unit cell vectors (Ang):
        8.000000    0.000000    0.000000
        0.000000    8.000000    0.000000
        0.000000    0.000000    6.400000

outcell: Cell vector modules (Ang)   :    8.000000    8.000000    6.400000
outcell: Cell angles (23,13,12) (deg):     90.0000     90.0000     90.0000
outcell: Cell volume (Ang**3)        :    409.6000
<dSpData1D:S at geom step 100
  <sparsity:sparsity for geom step 100
    nrows_g=23 nrows=3 sparsity=.1304 nnzs=69, refcount: 7>
  <dData1D:(new from dSpData1D) n=69, refcount: 1>
refcount: 1>
new_DM -- step:   100
Re-using DM from previous geometries...
Number of DMs in history: 1
 DM extrapolation coefficients: 
1   1.00000
New DM after history re-use:
<dSpData2D:SpM extrapolated using coords
  <sparsity:sparsity for geom step 100
    nrows_g=23 nrows=3 sparsity=.1304 nnzs=69, refcount: 9>
  <dData2D:(temp array for extrapolation) n=69 m=1, refcount: 1>
refcount: 1>
No. of atoms with KB's overlaping orbs in proc 0. Max # of overlaps:       3      23
New grid distribution:   1
           1       1:   25    1:   13    1:    5
           2       1:   25    1:   13    6:   10
           3       1:   25    1:   13   11:   15
           4       1:   25    1:   13   16:   20
           5       1:   25   14:   25    1:    5
           6       1:   25   14:   25    6:   10
           7       1:   25   14:   25   11:   15
           8       1:   25   14:   25   16:   20

InitMesh: MESH =    50 x    50 x    40 =      100000
InitMesh: (bp) =    25 x    25 x    20 =       12500
InitMesh: Mesh cutoff (required, used) =   100.000   107.960 Ry
ExtMesh (bp) on 0 =    57 x    45 x    37 =       94905
New grid distribution:   2
           1       1:    9    7:   25    1:   14
           2       7:   25    1:    6    1:   14
           3       1:    6    1:    6    1:   14
           4       1:    9    7:   25   15:   20
           5      10:   25    7:   25    1:   14
           6       7:   25    1:    6   15:   20
           7       1:    6    1:    6   15:   20
           8      10:   25    7:   25   15:   20
New grid distribution:   3
           1       1:   18    1:    9    1:   14
           2       1:    7   10:   25    1:   13
           3      19:   25    1:    9    1:   12
           4       1:   18    1:    9   15:   20
           5       8:   25   10:   25    1:   14
           6      19:   25    1:    9   13:   20
           7       1:    7   10:   25   14:   20
           8       8:   25   10:   25   15:   20
Setting up quadratic distribution...
ExtMesh (bp) on 0 =    41 x    51 x    46 =       96186
PhiOnMesh: Number of (b)points on node 0 =                 2394
PhiOnMesh: nlist on node 0 =                 4849

        iscf     Eharris(eV)        E_KS(eV)     FreeEng(eV)     dDmax    Ef(eV) dHmax(eV)
   scf:    1     -465.770590     -465.776591     -465.776591  0.009342 -1.847578  0.013610
   scf:    2     -465.776591     -465.776598     -465.776598  0.000841 -1.842766  0.013944
   scf:    3     -465.776608     -465.776605     -465.776605  0.000371 -1.845579  0.003114
   scf:    4     -465.776606     -465.776605     -465.776605  0.000039 -1.845685  0.001827
   scf:    5     -465.776606     -465.776606     -465.776606  0.000076 -1.845737  0.000490

SCF Convergence by DM+H criterion
max |DM_out - DM_in|         :     0.0000756205
max |H_out - H_in|      (eV) :     0.0004900129
SCF cycle converged after 5 iterations

Using DM_out to compute the final energy and forces
No. of atoms with KB's overlaping orbs in proc 0. Max # of overlaps:       3      23

siesta: E_KS(eV) =             -465.7766

siesta: Atomic forces (eV/Ang):
     1    0.267164   -0.200606   -0.189407
     2    0.485119   -0.865328   -0.283924
     3   -0.611391    1.113648    0.752541
----------------------------------------
   Tot    0.140892    0.047715    0.279210
----------------------------------------
   Max    1.113648
   Res    0.613964    sqrt( Sum f_i^2 / 3N )
----------------------------------------
   Max    1.113648    constrained

Stress-tensor-Voigt (kbar):        0.61        4.80        1.86       -3.09        2.37       -1.67
(Free)E + p*V (eV/cell)     -466.3958
Target enthalpy (eV/cell)     -465.7766

siesta: Stress tensor (static) (eV/Ang**3):
         0.000737   -0.001785   -0.000863
        -0.001786    0.003099    0.001562
        -0.000864    0.001562    0.001252

siesta: Pressure (static):         -2.71762751  kBar

siesta: Stress tensor (total) (eV/Ang**3):
         0.000382   -0.001926   -0.001042
        -0.001928    0.002994    0.001478
        -0.001043    0.001478    0.001159

siesta: Pressure (total):         -2.42222877  kBar

siesta: Temp_ion =     448.757 K

siesta: Program's energy decomposition (eV):
siesta: Ebs     =      -101.878598
siesta: Eions   =       815.854478
siesta: Ena     =       174.969536
siesta: Ekin    =       350.992765
siesta: Enl     =       -62.049316
siesta: Eso     =         0.000000
siesta: Eldau   =         0.000000
siesta: DEna    =        -2.181235
siesta: DUscf   =         0.768990
siesta: DUext   =         0.000000
siesta: Enegf   =         0.000000
siesta: Exc     =      -112.422867
siesta: eta*DQ  =         0.000000
siesta: Emadel  =         0.000000
siesta: Emeta   =         0.000000
siesta: Emolmec =         0.000000
siesta: Ekinion =         0.116008
siesta: Eharris =      -465.660598
siesta: Etot    =      -465.660598
siesta: FreeEng =      -465.660598

siesta: Final energy (eV):
siesta:  Band Struct. =    -101.878598
siesta:       Kinetic =     350.992765
siesta:       Hartree =     412.407281
siesta:       Eldau   =       0.000000
siesta:       Eso     =       0.000000
siesta:    Ext. field =       0.000000
siesta:       Enegf   =       0.000000
siesta:   Exch.-corr. =    -112.422867
siesta:  Ion-electron =   -1130.390651
siesta:       Ion-ion =      13.636867
siesta:       Ekinion =       0.116008
siesta:         Total =    -465.660598
siesta:         Fermi =      -1.845737

siesta: Atomic forces (eV/Ang):
siesta:      1    0.267164   -0.200606   -0.189407
siesta:      2    0.485119   -0.865328   -0.283924
siesta:      3   -0.611391    1.113648    0.752541
siesta: ----------------------------------------
siesta:    Tot    0.140892    0.047715    0.279210

siesta: Stress tensor (static) (eV/Ang**3):
siesta:     0.000737   -0.001785   -0.000863
siesta:    -0.001786    0.003099    0.001562
siesta:    -0.000864    0.001562    0.001252

siesta: Cell volume =        409.600000 Ang**3

siesta: Pressure (static):
siesta:                Solid            Molecule  Units
siesta:          -0.00001847          0.00000052  Ry/Bohr**3
siesta:          -0.00169619          0.00004759  eV/Ang**3
siesta:          -2.71762751          0.07624513  kBar
(Free)E+ p_basis*V_orbitals  =        -465.191439
(Free)Eharris+ p_basis*V_orbitals  =        -465.191439

siesta: Electric dipole (a.u.)  =   -0.085353    0.132943   -0.491989
siesta: Electric dipole (Debye) =   -0.216947    0.337906   -1.250511
>> End of run:   5-NOV-2018  10:51:51
Job completed
