Siesta Version: siesta-trunk-479
Architecture  : atto-intel12-openmpi
Compiler flags: /share/apps/openmpi-1.6.5-intel/bin/mpif90 -w  -O2 -mp
PP flags      : -DCDF -DMPI 
PARALLEL version
NetCDF support

* Running on    4 nodes in parallel
>> Start of run:  29-SEP-2015  15:40:54

                           ***********************       
                           *  WELCOME TO SIESTA  *       
                           ***********************       

reinit: Reading from standard input
************************** Dump of input data file ****************************
SystemName OMM_h2o
SystemLabel OMM_h2o
SolutionMethod OMM
OMM.UseCholesky .false.
OMM.Use2D .false.
OMM.UseSparse .true.
OMM.LongOutput .true.
OMM.Precon 4
OMM.PreconFirstStep 8
OMM.Diagon 1
OMM.DiagonFirstStep 2
ON.eta 1.0 eV
DM.MixingWeight 0.3
DM.NumberPulay 3
MD.TypeOfRun Verlet
MD.LengthTimeStep 0.5 fs
MD.InitialTimeStep 1
MD.FinalTimeStep 2
NumberOfAtoms 75
NumberOfSpecies 2
xc.functional GGA
xc.authors PBE
MeshCutoff 150.0 Ry
%block ChemicalSpeciesLabel
  1   8  O
  2   1  H
%endblock ChemicalSpeciesLabel
%block AtomicMass
  2   2.0
%endblock AtomicMass
%Block PAO.Basis
O    3     -0.24233
n=2   0   2   E    23.36061     3.39721
     4.50769     2.64066
     1.00000     1.00000
n=2   1   2   E     2.78334     5.14253
     6.14996     2.59356
     1.00000     1.00000
n=3   2   1   E    63.98188     0.16104
     3.54403
     1.00000
H    2      0.46527
n=1   0   2   E    99.93138     2.59932
     4.20357     1.84463
     1.00000     1.00000
n=2   1   1   E    24.56504     2.20231
     3.52816
     1.00000
%EndBlock PAO.Basis
LatticeConstant 9.4050749697838985 Ang
%block LatticeVectors
  1.0  0.0  0.0
  0.0  1.0  0.0
  0.0  0.0  1.0
%endblock LatticeVectors
AtomicCoordinatesFormat Bohr
%block AtomicCoordinatesAndAtomicSpecies
       0.271721271       3.119637055      -1.749493359  1
      -1.361096829       3.204984172      -2.669959385  2
       0.246718679       3.926604328      -0.071541239  2
       8.311652902     -11.963298323     -11.057926872  1
       6.931775021     -13.138900572     -11.504628311  2
       7.717160949     -10.951995493      -9.612233339  2
       7.634904574      11.611070140       5.419478562  1
       6.612157583      10.630203937       4.222382954  2
       8.508387659      10.275103855       6.299657650  2
       1.088296355       4.866166064       8.060187174  1
       1.621419006       4.845848730       9.857590375  2
       2.489790819       4.316201339       7.004213634  2
       9.514351225      28.712786451      30.541316695  1
      10.741948843      29.848452754      29.798712013  2
       9.600689725      29.488895711      32.186308857  2
       2.765426625     -11.534684191      12.777783235  1
       2.632675376      -9.940598422      13.750518997  2
       2.044491465     -12.798481439      13.936629614  2
       0.808101196      10.680419768      16.619470944  1
      -0.799318391      10.744597970      15.780253011  2
       1.186387569      12.296204626      17.445398242  2
      12.614874815       4.455787228       2.855892155  1
      14.156801322       5.471453307       3.091794672  2
      11.361370606       5.392414941       3.815327017  2
      13.440254527       3.192686846      13.358161133  1
      12.731662526       1.717886963      12.549059254  2
      13.286449447       4.420442333      12.017896156  2
       8.060734014      13.472519521      17.495021588  1
       6.959360013      14.899483220      17.119019774  2
       7.895271978      13.321839006      19.345735610  2
      13.859779900       7.654433989       9.866049951  1
      14.758359038       8.506380009      11.213803961  2
      15.163545822       6.660988313       9.028602683  2
       1.443293043      14.923949908       1.754173956  1
       1.554779162      14.905149655       3.590820589  2
      -0.136041319      15.843429008       1.419836240  2
      13.860957337      -0.822181029       1.242800368  1
      13.863384180       0.981393852       1.688465118  2
      13.086016293      -1.627928368       2.692080103  2
       5.353715362      36.090934150       9.641855094  1
       6.154911182      34.928350434      10.798841820  2
       3.935807034      36.484548053      10.734558553  2
      13.715105220       8.318491717      15.361493771  1
      13.988472016       6.965654264      16.571857538  2
      12.531189944       7.599923125      14.073730002  2
      12.838669661      15.557487542      -3.815654092  1
      14.575584857      15.116229783      -3.530227991  2
      12.273966722      15.985398137      -2.115037243  2
      17.461377494       7.412068499       3.145280145  1
      17.332627699       8.422084738       1.594995588  2
      18.966464137       7.878783566       4.097251518  2
       5.500090929      17.822785414      16.498974667  1
       5.863675533      19.626248353      16.264166537  2
       3.705635673      17.709063348      16.822429526  2
       5.195545602       8.430559528      19.805597537  1
       3.889070757       8.925838969      18.551895441  2
       6.665029193       8.166899349      18.716217722  2
      16.673708418      17.949738252       9.095675266  1
      15.015366329      18.480975322       8.544732644  2
      17.811679505      19.279388518       8.466509013  2
       7.734970198       5.093195180      15.225527462  1
       7.507132634       5.992128913      13.621919415  2
       9.519302577       4.576777798      14.988074280  2
       4.538261737      19.859434629       4.124545697  1
       4.507648398      18.397826560       5.225137422  2
       4.802067829      19.114248330       2.470289744  2
      11.129277450       1.751344940       8.609875697  1
      10.216317212       3.169211601       7.860238012  2
      10.842704285       0.366998906       7.383943189  2
      12.734607488      13.295108596       6.414466417  1
      13.602407491      11.811340876       7.014899686  2
      11.289811756      12.609744463       5.540772716  2
      17.505349996      12.562813872      10.446845033  1
      17.321675660      14.433171421      10.470815193  2
      17.734421129      12.285085123       8.646311526  2
%endblock AtomicCoordinatesAndAtomicSpecies
************************** End of input data file *****************************

reinit: -----------------------------------------------------------------------
reinit: System Name: OMM_h2o
reinit: -----------------------------------------------------------------------
reinit: System Label: OMM_h2o                                                     
reinit: -----------------------------------------------------------------------

initatom: Reading input for the pseudopotentials and atomic orbitals ----------
 Species number:            1  Label: O Atomic number:           8
 Species number:            2  Label: H Atomic number:           1
Ground state valence configuration:   2s02  2p04
Reading pseudopotential information in formatted form from O.psf

Valence configuration for pseudopotential generation:
2s( 2.00) rc: 1.14
2p( 4.00) rc: 1.14
3d( 0.00) rc: 1.14
4f( 0.00) rc: 1.14
Ground state valence configuration:   1s01
Reading pseudopotential information in formatted form from H.psf

Valence configuration for pseudopotential generation:
1s( 1.00) rc: 1.25
2p( 0.00) rc: 1.25
3d( 0.00) rc: 1.25
4f( 0.00) rc: 1.25
remass: Read atomic mass for species    2 as      2.00000
For O, standard SIESTA heuristics set lmxkb to 3
 (one more than the basis l, including polarization orbitals).
Use PS.lmax or PS.KBprojectors blocks to override.
For H, standard SIESTA heuristics set lmxkb to 2
 (one more than the basis l, including polarization orbitals).
Use PS.lmax or PS.KBprojectors blocks to override.

<basis_specs>
===============================================================================
O                    Z=   8    Mass=  16.000        Charge=-0.24233    
Lmxo=2 Lmxkb= 3    BasisType=split      Semic=F
L=0  Nsemic=0  Cnfigmx=2
          n=1  nzeta=2  polorb=0
            splnorm:   0.15000    
               vcte:    23.361    
               rinn:    3.3972    
               qcoe:    0.0000    
               qyuk:    0.0000    
               qwid:   0.10000E-01
                rcs:    4.5077      2.6407    
            lambdas:   1.00000     1.00000    
L=1  Nsemic=0  Cnfigmx=2
          n=1  nzeta=2  polorb=0
            splnorm:   0.15000    
               vcte:    2.7833    
               rinn:    5.1425    
               qcoe:    0.0000    
               qyuk:    0.0000    
               qwid:   0.10000E-01
                rcs:    6.1500      2.5936    
            lambdas:   1.00000     1.00000    
L=2  Nsemic=0  Cnfigmx=3
          n=1  nzeta=1  polorb=0
            splnorm:   0.15000    
               vcte:    63.982    
               rinn:   0.16104    
               qcoe:    0.0000    
               qyuk:    0.0000    
               qwid:   0.10000E-01
                rcs:    3.5440    
            lambdas:   1.00000    
-------------------------------------------------------------------------------
L=0  Nkbl=1  erefs: 0.17977+309
L=1  Nkbl=1  erefs: 0.17977+309
L=2  Nkbl=1  erefs: 0.17977+309
L=3  Nkbl=1  erefs: 0.17977+309
===============================================================================
</basis_specs>

atom: Called for O                     (Z =   8)

read_vps: Pseudopotential generation method:
read_vps: ATM3      Troullier-Martins                       
Total valence charge:    6.00000

xc_check: Exchange-correlation functional:
xc_check: GGA Perdew, Burke & Ernzerhof 1996
xc_check: WARNING: Pseudopotential generated with LDA CA functional
V l=0 = -2*Zval/r beyond r=  1.1278
V l=1 = -2*Zval/r beyond r=  1.1278
V l=2 = -2*Zval/r beyond r=  1.1278
V l=3 = -2*Zval/r beyond r=  1.1138
All V_l potentials equal beyond r=  1.1278
This should be close to max(r_c) in ps generation
All pots = -2*Zval/r beyond r=  1.1278

VLOCAL1: 99.0% of the norm of Vloc inside     34.126 Ry
VLOCAL1: 99.9% of the norm of Vloc inside     77.774 Ry
atom: Maximum radius for 4*pi*r*r*local-pseudopot. charge    1.37759
atom: Maximum radius for r*vlocal+2*Zval:    1.18566
GHOST: No ghost state for L =  0
GHOST: No ghost state for L =  1
GHOST: No ghost state for L =  2
GHOST: No ghost state for L =  3

KBgen: Kleinman-Bylander projectors: 
   l= 0   rc=  1.294105   el= -1.764717   Ekb=  9.120606   kbcos=  0.329038
   l= 1   rc=  1.294105   el= -0.698441   Ekb= -8.119783   kbcos= -0.400859
   l= 2   rc=  1.448233   el=  0.002031   Ekb= -2.039067   kbcos= -0.003490
   l= 3   rc=  1.561052   el=  0.003153   Ekb= -0.799361   kbcos= -0.000345

KBgen: Total number of  Kleinman-Bylander projectors:   16
atom: -------------------------------------------------------------------------

atom: SANKEY-TYPE ORBITALS:
atom: Selected multiple-zeta basis: split     

atom: basis set generated (by rescaling the valence charge)
atom: for an anion of charge  -0.2423

SPLIT: Orbitals with angular momentum L= 0

SPLIT: Basis orbitals for state 2s

   izeta = 1
                 lambda =    1.000000
                     rc =    4.574469
                 energy =   -1.761757
                kinetic =    1.493608
    potential(screened) =   -3.255365
       potential(ionic) =  -11.068524

   izeta = 2
                 rmatch =    2.639108
              splitnorm =    0.146386
                 energy =   -1.557532
                kinetic =    2.331275
    potential(screened) =   -3.888807
       potential(ionic) =  -12.342285

SPLIT: Orbitals with angular momentum L= 1

SPLIT: Basis orbitals for state 2p

   izeta = 1
                 lambda =    1.000000
                     rc =    6.174996
                 energy =   -0.692030
                kinetic =    4.435302
    potential(screened) =   -5.127332
       potential(ionic) =  -12.547375

   izeta = 2
                 rmatch =    2.639108
              splitnorm =    0.202025
                 energy =   -0.455967
                kinetic =    7.214573
    potential(screened) =   -7.670539
       potential(ionic) =  -16.265562

SPLIT: Orbitals with angular momentum L= 2

SPLIT: Basis orbitals for state 3d

   izeta = 1
                 lambda =    1.000000
                     rc =    3.562532
                 energy =    3.652279
                kinetic =    6.499560
    potential(screened) =   -2.847281
       potential(ionic) =  -10.016478
atom: Total number of Sankey-type orbitals: 13

atm_pop: Valence configuration (for local Pseudopot. screening):
 2s( 2.00)                                                            
 2p( 4.00)                                                            
 3d( 0.00)                                                            
Vna: chval, zval:    6.00000   6.00000

Vna:  Cut-off radius for the neutral-atom potential:   6.174996

atom: _________________________________________________________________________

<basis_specs>
===============================================================================
H                    Z=   1    Mass=  2.0000        Charge= 0.46527    
Lmxo=1 Lmxkb= 2    BasisType=split      Semic=F
L=0  Nsemic=0  Cnfigmx=1
          n=1  nzeta=2  polorb=0
            splnorm:   0.15000    
               vcte:    99.931    
               rinn:    2.5993    
               qcoe:    0.0000    
               qyuk:    0.0000    
               qwid:   0.10000E-01
                rcs:    4.2036      1.8446    
            lambdas:   1.00000     1.00000    
L=1  Nsemic=0  Cnfigmx=2
          n=1  nzeta=1  polorb=0
            splnorm:   0.15000    
               vcte:    24.565    
               rinn:    2.2023    
               qcoe:    0.0000    
               qyuk:    0.0000    
               qwid:   0.10000E-01
                rcs:    3.5282    
            lambdas:   1.00000    
-------------------------------------------------------------------------------
L=0  Nkbl=1  erefs: 0.17977+309
L=1  Nkbl=1  erefs: 0.17977+309
L=2  Nkbl=1  erefs: 0.17977+309
===============================================================================
</basis_specs>

atom: Called for H                     (Z =   1)

read_vps: Pseudopotential generation method:
read_vps: ATM3      Troullier-Martins                       
Total valence charge:    1.00000

xc_check: Exchange-correlation functional:
xc_check: GGA Perdew, Burke & Ernzerhof 1996
xc_check: WARNING: Pseudopotential generated with LDA CA functional
V l=0 = -2*Zval/r beyond r=  1.2343
V l=1 = -2*Zval/r beyond r=  1.2189
V l=2 = -2*Zval/r beyond r=  1.2189
All V_l potentials equal beyond r=  1.2343
This should be close to max(r_c) in ps generation
All pots = -2*Zval/r beyond r=  1.2343

VLOCAL1: 99.0% of the norm of Vloc inside     28.493 Ry
VLOCAL1: 99.9% of the norm of Vloc inside     64.935 Ry
atom: Maximum radius for 4*pi*r*r*local-pseudopot. charge    1.45251
atom: Maximum radius for r*vlocal+2*Zval:    1.21892
GHOST: No ghost state for L =  0
GHOST: No ghost state for L =  1
GHOST: No ghost state for L =  2

KBgen: Kleinman-Bylander projectors: 
   l= 0   rc=  1.364359   el= -0.488086   Ekb= -2.002077   kbcos= -0.347561
   l= 1   rc=  1.434438   el=  0.001075   Ekb= -0.501617   kbcos= -0.021754
   l= 2   rc=  1.470814   el=  0.002010   Ekb= -0.190607   kbcos= -0.002284

KBgen: Total number of  Kleinman-Bylander projectors:    9
atom: -------------------------------------------------------------------------

atom: SANKEY-TYPE ORBITALS:
atom: Selected multiple-zeta basis: split     

atom: basis set generated (by rescaling the valence charge)
atom: for a cation of charge   0.4653

SPLIT: Orbitals with angular momentum L= 0

SPLIT: Basis orbitals for state 1s

   izeta = 1
                 lambda =    1.000000
                     rc =    4.260636
                 energy =   -0.875320
                kinetic =    1.357215
    potential(screened) =   -2.232536
       potential(ionic) =   -2.287165

   izeta = 2
                 rmatch =    1.865767
              splitnorm =    0.576232
                 energy =    0.481660
                kinetic =    4.349015
    potential(screened) =   -3.867355
       potential(ionic) =   -3.832494

SPLIT: Orbitals with angular momentum L= 1

SPLIT: Basis orbitals for state 2p

   izeta = 1
                 lambda =    1.000000
                     rc =    3.576223
                 energy =    0.823141
                kinetic =    2.007026
    potential(screened) =   -1.183885
       potential(ionic) =   -1.299268
atom: Total number of Sankey-type orbitals:  5

atm_pop: Valence configuration (for local Pseudopot. screening):
 1s( 1.00)                                                            
 2p( 0.00)                                                            
Vna: chval, zval:    1.00000   1.00000

Vna:  Cut-off radius for the neutral-atom potential:   4.260636

atom: _________________________________________________________________________

prinput: Basis input ----------------------------------------------------------

PAO.BasisType split     

%block ChemicalSpeciesLabel
    1    8 O                       # Species index, atomic number, species label
    2    1 H                       # Species index, atomic number, species label
%endblock ChemicalSpeciesLabel

%block PAO.Basis                 # Define Basis set
O                     3  -0.242            # Label, l-shells, ionic net charge
 n=2   0   2                         # n, l, Nzeta 
   4.574      2.639   
   1.000      1.000   
 n=2   1   2                         # n, l, Nzeta 
   6.175      2.639   
   1.000      1.000   
 n=3   2   1                         # n, l, Nzeta 
   3.563   
   1.000   
H                     2   0.465            # Label, l-shells, ionic net charge
 n=1   0   2                         # n, l, Nzeta 
   4.261      1.866   
   1.000      1.000   
 n=2   1   1                         # n, l, Nzeta 
   3.576   
   1.000   
%endblock PAO.Basis

prinput: ----------------------------------------------------------------------

Dumping basis to NetCDF file O.ion.nc
Dumping basis to NetCDF file H.ion.nc
coor:   Atomic-coordinates input format  =     Cartesian coordinates
coor:                                            (in Bohr units)

siesta: Atomic coordinates (Bohr) and species
siesta:      0.27172   3.11964  -1.74949  1        1
siesta:     -1.36110   3.20498  -2.66996  2        2
siesta:      0.24672   3.92660  -0.07154  2        3
siesta:      8.31165 -11.96330 -11.05793  1        4
siesta:      6.93178 -13.13890 -11.50463  2        5
siesta:      7.71716 -10.95200  -9.61223  2        6
siesta:      7.63490  11.61107   5.41948  1        7
siesta:      6.61216  10.63020   4.22238  2        8
siesta:      8.50839  10.27510   6.29966  2        9
siesta:      1.08830   4.86617   8.06019  1       10
siesta:      1.62142   4.84585   9.85759  2       11
siesta:      2.48979   4.31620   7.00421  2       12
siesta:      9.51435  28.71279  30.54132  1       13
siesta:     10.74195  29.84845  29.79871  2       14
siesta:      9.60069  29.48890  32.18631  2       15
siesta:      2.76543 -11.53468  12.77778  1       16
siesta:      2.63268  -9.94060  13.75052  2       17
siesta:      2.04449 -12.79848  13.93663  2       18
siesta:      0.80810  10.68042  16.61947  1       19
siesta:     -0.79932  10.74460  15.78025  2       20
siesta:      1.18639  12.29620  17.44540  2       21
siesta:     12.61487   4.45579   2.85589  1       22
siesta:     14.15680   5.47145   3.09179  2       23
siesta:     11.36137   5.39241   3.81533  2       24
siesta:     13.44025   3.19269  13.35816  1       25
siesta:     12.73166   1.71789  12.54906  2       26
siesta:     13.28645   4.42044  12.01790  2       27
siesta:      8.06073  13.47252  17.49502  1       28
siesta:      6.95936  14.89948  17.11902  2       29
siesta:      7.89527  13.32184  19.34574  2       30
siesta:     13.85978   7.65443   9.86605  1       31
siesta:     14.75836   8.50638  11.21380  2       32
siesta:     15.16355   6.66099   9.02860  2       33
siesta:      1.44329  14.92395   1.75417  1       34
siesta:      1.55478  14.90515   3.59082  2       35
siesta:     -0.13604  15.84343   1.41984  2       36
siesta:     13.86096  -0.82218   1.24280  1       37
siesta:     13.86338   0.98139   1.68847  2       38
siesta:     13.08602  -1.62793   2.69208  2       39
siesta:      5.35372  36.09093   9.64186  1       40
siesta:      6.15491  34.92835  10.79884  2       41
siesta:      3.93581  36.48455  10.73456  2       42
siesta:     13.71511   8.31849  15.36149  1       43
siesta:     13.98847   6.96565  16.57186  2       44
siesta:     12.53119   7.59992  14.07373  2       45
siesta:     12.83867  15.55749  -3.81565  1       46
siesta:     14.57558  15.11623  -3.53023  2       47
siesta:     12.27397  15.98540  -2.11504  2       48
siesta:     17.46138   7.41207   3.14528  1       49
siesta:     17.33263   8.42208   1.59500  2       50
siesta:     18.96646   7.87878   4.09725  2       51
siesta:      5.50009  17.82279  16.49897  1       52
siesta:      5.86368  19.62625  16.26417  2       53
siesta:      3.70564  17.70906  16.82243  2       54
siesta:      5.19555   8.43056  19.80560  1       55
siesta:      3.88907   8.92584  18.55190  2       56
siesta:      6.66503   8.16690  18.71622  2       57
siesta:     16.67371  17.94974   9.09568  1       58
siesta:     15.01537  18.48098   8.54473  2       59
siesta:     17.81168  19.27939   8.46651  2       60
siesta:      7.73497   5.09320  15.22553  1       61
siesta:      7.50713   5.99213  13.62192  2       62
siesta:      9.51930   4.57678  14.98807  2       63
siesta:      4.53826  19.85943   4.12455  1       64
siesta:      4.50765  18.39783   5.22514  2       65
siesta:      4.80207  19.11425   2.47029  2       66
siesta:     11.12928   1.75134   8.60988  1       67
siesta:     10.21632   3.16921   7.86024  2       68
siesta:     10.84270   0.36700   7.38394  2       69
siesta:     12.73461  13.29511   6.41447  1       70
siesta:     13.60241  11.81134   7.01490  2       71
siesta:     11.28981  12.60974   5.54077  2       72
siesta:     17.50535  12.56281  10.44685  1       73
siesta:     17.32168  14.43317  10.47082  2       74
siesta:     17.73442  12.28509   8.64631  2       75

siesta: System type = bulk      

initatomlists: Number of atoms, orbitals, and projectors:     75   575   850

siesta: ******************** Simulation parameters ****************************
siesta:
siesta: The following are some of the parameters of the simulation.
siesta: A complete list of the parameters used, including default values,
siesta: can be found in file out.fdf
siesta:
redata: Non-Collinear-spin run           =     F
redata: SpinPolarized (Up/Down) run      =     F
redata: Number of spin components        =     1
redata: Long output                      =     F
redata: Number of Atomic Species         =        2
redata: Charge density info will appear in .RHO file
redata: Write Mulliken Pop.              =     NO
redata: Mesh Cutoff                      =   150.0000  Ry
redata: Net charge of the system         =     0.0000 |e|
redata: Min. number of SCF Iter          =        0
redata: Max. number of SCF Iter          =       50
redata: Mix DM or H after convergence    =     F
redata: Recompute H after scf cycle      =     F
redata: Performing Pulay mixing using    =     3 iterations
redata: Mix DM in first SCF step ?       =     F
redata: Write Pulay info on disk?        =     F
redata: Discard 1st Pulay DM after  kick =     F
redata: New DM Mixing Weight             =     0.3000
redata: New DM Occupancy tolerance       = 0.000000000001
redata: No kicks to SCF
redata: DM Mixing Weight for Kicks       =     0.5000
redata: DM Tolerance for SCF             =     0.000100
redata: Require (free) Energy convergence in SCF =     F
redata: DM (free)Energy tolerance for SCF =     0.000010 eV
redata: Require Harris convergence for SCF =     F
redata: DM Harris energy tolerance for SCF =     0.000010 eV
redata: Using Saved Data (generic)   =     F
redata: Use continuation files for DM    =     F
redata: Neglect nonoverlap interactions  =     F
redata: Method of Calculation            =     Orbital Minimization Method
redata: Fix the spin of the system       =     F
redata: Dynamics option                  =     Verlet MD run
redata: Initial MD time step             =        1
redata:   Final MD time step             =        2
redata: Length of MD time step           =     0.5000  fs
redata: Initial Temperature of MD run    =     0.0000  K
redata: Perform a MD quench              =     F
redata: ***********************************************************************
Total number of electrons:   200.000000
Total ionic charge:   200.000000

* ProcessorY, Blocksize:    2  24


* Orbital distribution balance (max,min):   144   143

 Kpoints in:            1 . Kpoints trimmed:            1

siesta: k-grid: Number of k-points =     1
siesta: k-grid: Cutoff (effective) =     4.703 Ang
siesta: k-grid: Supercell and displacements
siesta: k-grid:    1   0   0      0.000
siesta: k-grid:    0   1   0      0.000
siesta: k-grid:    0   0   1      0.000

                     ====================================
                        Begin MD step =      1
                     ====================================

outcell: Unit cell vectors (Ang):
        9.405075    0.000000    0.000000
        0.000000    9.405075    0.000000
        0.000000    0.000000    9.405075

outcell: Cell vector modules (Ang)   :    9.405075    9.405075    9.405075
outcell: Cell angles (23,13,12) (deg):     90.0000     90.0000     90.0000
outcell: Cell volume (Ang**3)        :    831.9300
 Folding of H and S is implicitly performed
New_DM. Step:     1
Initializing Density Matrix...
New grid distribution:   1
           1       1:   36    1:   18    1:   18
           2       1:   36    1:   18   19:   36
           3       1:   36   19:   36    1:   18
           4       1:   36   19:   36   19:   36

InitMesh: MESH =    72 x    72 x    72 =      373248
InitMesh: (bp) =    36 x    36 x    36 =       46656
InitMesh: Mesh cutoff (required, used) =   150.000   161.973 Ry
ExtMesh (bp) on 0 =    88 x    70 x    70 =      431200
New grid distribution:   2
           1       1:   36    1:   16    1:   19
           2       1:   36    1:   15   20:   36
           3       1:   36   17:   36    1:   19
           4       1:   36   16:   36   20:   36
New grid distribution:   3
           1       1:   36    1:   18    1:   18
           2       1:   36    1:   18   19:   36
           3       1:   36   19:   36    1:   18
           4       1:   36   19:   36   19:   36
Setting up quadratic distribution...
ExtMesh (bp) on 0 =    88 x    68 x    71 =      424864
PhiOnMesh: Number of (b)points on node 0 =                10944
PhiOnMesh: nlist on node 0 =               375250

stepf: Fermi-Dirac step function

siesta: Program's energy decomposition (eV):
siesta: Ebs     =     -3692.222234
siesta: Eions   =     20396.361970
siesta: Ena     =      4788.911936
siesta: Ekin    =      7974.107446
siesta: Enl     =     -1221.362236
siesta: DEna    =         0.000004
siesta: DUscf   =         0.000000
siesta: DUext   =         0.000000
siesta: Exc     =     -2732.954269
siesta: eta*DQ  =         0.000000
siesta: Emadel  =         0.000000
siesta: Emeta   =         0.000000
siesta: Emolmec =         0.000000
siesta: Ekinion =         0.000000
siesta: Eharris =    -11848.520016
siesta: Etot    =    -11587.659089
siesta: FreeEng =    -11587.659089

siesta: iscf =    1
Eharris(eV) =     -11848.5200  E_KS(eV) =     -11587.6591  dDmax =  0.9522

timer: Routine,Calls,Time,% =    IterSCF     1       0.985  20.01

siesta: iscf =    2
Eharris(eV) =     -11991.7930  E_KS(eV) =     -11596.8913  dDmax =  2.2194

+---------------------------------------------+
| OMM (sparse algebra+preconditioning)        |
+---------------------------------------------+
|             E_OMM            E_diff         |
|     1     1 -1.1408562E+002  4.7968908E-002 |
|     1     2 -1.1497530E+002  7.7680667E-003 |
|     1     3 -1.1510134E+002  1.0955969E-003 |
|     1     4 -1.1516661E+002  5.6692367E-004 |
|     1     5 -1.1518349E+002  1.4656978E-004 |
|     1     6 -1.1518694E+002  2.9986350E-005 |
|     1     7 -1.1518844E+002  1.3010676E-005 |
|     1     8 -1.1518899E+002  4.7318820E-006 |
|     1     9 -1.1518912E+002  1.1710403E-006 |
|     1    10 -1.1518916E+002  3.4742700E-007 |
|     1    11 -1.1518918E+002  1.5137129E-007 |
|     1    12 -1.1518919E+002  5.7782164E-008 |
|     1    13 -1.1518919E+002  1.6445671E-008 |
|     1    14 -1.1518919E+002  5.6769044E-009 |
|     1    15 -1.1518919E+002  2.0250936E-009 |
|     1    16 -1.1518919E+002  7.0243693E-010 |
+---------------------------------------------+
| minim: icg             =    16              |
| minim: 2*Tr[(2*I-S)*S] =   200.0000000      |
+---------------------------------------------+

siesta: iscf =    3
Eharris(eV) =     -11746.7822  E_KS(eV) =     -11648.6508  dDmax =  0.4652

+---------------------------------------------+
| OMM (sparse algebra+preconditioning)        |
+---------------------------------------------+
|             E_OMM            E_diff         |
|     1     1 -1.1076060E+002  4.0450241E-004 |
|     1     2 -1.1076878E+002  7.3851763E-005 |
|     1     3 -1.1077101E+002  2.0202376E-005 |
|     1     4 -1.1077168E+002  6.0539646E-006 |
|     1     5 -1.1077181E+002  1.1364201E-006 |
|     1     6 -1.1077186E+002  3.9955235E-007 |
|     1     7 -1.1077187E+002  1.6841861E-007 |
|     1     8 -1.1077188E+002  4.9045900E-008 |
|     1     9 -1.1077188E+002  1.5023023E-008 |
|     1    10 -1.1077188E+002  4.7469711E-009 |
|     1    11 -1.1077188E+002  2.2746254E-009 |
|     1    12 -1.1077188E+002  7.6937841E-010 |
+---------------------------------------------+
| minim: icg             =    12              |
| minim: 2*Tr[(2*I-S)*S] =   200.0000000      |
+---------------------------------------------+

siesta: iscf =    4
Eharris(eV) =     -11745.7489  E_KS(eV) =     -11700.1359  dDmax =  0.2526

+---------------------------------------------+
| OMM (sparse algebra+preconditioning)        |
+---------------------------------------------+
|             E_OMM            E_diff         |
|     1     1 -1.1192715E+002  4.2807430E-005 |
|     1     2 -1.1192821E+002  9.4835618E-006 |
|     1     3 -1.1192852E+002  2.8231718E-006 |
|     1     4 -1.1192862E+002  8.3873412E-007 |
|     1     5 -1.1192864E+002  1.7420887E-007 |
|     1     6 -1.1192864E+002  4.5040453E-008 |
|     1     7 -1.1192864E+002  1.6858703E-008 |
|     1     8 -1.1192864E+002  6.7098894E-009 |
|     1     9 -1.1192864E+002  1.3970486E-009 |
|     1    10 -1.1192864E+002  4.7199857E-010 |
+---------------------------------------------+
| minim: icg             =    10              |
| minim: 2*Tr[(2*I-S)*S] =   200.0000000      |
+---------------------------------------------+

siesta: iscf =    5
Eharris(eV) =     -11745.4257  E_KS(eV) =     -11750.2347  dDmax =  0.0303

+---------------------------------------------+
| OMM (sparse algebra+preconditioning)        |
+---------------------------------------------+
|             E_OMM            E_diff         |
|     1     1 -1.1220620E+002  2.5410425E-006 |
|     1     2 -1.1220626E+002  5.4069096E-007 |
|     1     3 -1.1220627E+002  9.3134677E-008 |
|     1     4 -1.1220628E+002  3.8660686E-008 |
|     1     5 -1.1220628E+002  8.1570951E-009 |
|     1     6 -1.1220628E+002  2.8541463E-009 |
|     1     7 -1.1220628E+002  1.0987726E-009 |
|     1     8 -1.1220628E+002  4.4206178E-010 |
+---------------------------------------------+
| minim: icg             =     8              |
| minim: 2*Tr[(2*I-S)*S] =   200.0000000      |
+---------------------------------------------+

siesta: iscf =    6
Eharris(eV) =     -11745.3970  E_KS(eV) =     -11746.8889  dDmax =  0.0237

+---------------------------------------------+
| OMM (sparse algebra+preconditioning)        |
+---------------------------------------------+
|             E_OMM            E_diff         |
|     1     1 -1.1219671E+002  2.6353553E-007 |
|     1     2 -1.1219672E+002  3.6173708E-008 |
|     1     3 -1.1219672E+002  5.7211707E-009 |
|     1     4 -1.1219672E+002  2.6126647E-009 |
|     1     5 -1.1219672E+002  9.6068542E-010 |
+---------------------------------------------+
| minim: icg             =     5              |
| minim: 2*Tr[(2*I-S)*S] =   200.0000000      |
+---------------------------------------------+

siesta: iscf =    7
Eharris(eV) =     -11745.3937  E_KS(eV) =     -11745.9382  dDmax =  0.0135

+---------------------------------------------+
| OMM (sparse algebra+preconditioning)        |
+---------------------------------------------+
|             E_OMM            E_diff         |
|     1     1 -1.1211882E+002  1.0457279E-007 |
|     1     2 -1.1211882E+002  1.7010778E-008 |
|     1     3 -1.1211882E+002  4.9704484E-009 |
|     1     4 -1.1211882E+002  1.7615338E-009 |
|     1     5 -1.1211882E+002  4.5984169E-010 |
+---------------------------------------------+
| minim: icg             =     5              |
| minim: 2*Tr[(2*I-S)*S] =   200.0000000      |
+---------------------------------------------+

siesta: iscf =    8
Eharris(eV) =     -11745.3936  E_KS(eV) =     -11745.7036  dDmax =  0.0037

+---------------------------------------------+
| OMM (sparse algebra)                        |
+---------------------------------------------+
|             E_OMM            E_diff         |
|     1     1 -1.1212185E+002  6.9355146E-009 |
|     1     2 -1.1212185E+002  6.2779850E-010 |
+---------------------------------------------+
| minim: icg             =     2              |
| minim: 2*Tr[(2*I-S)*S] =   200.0000000      |
+---------------------------------------------+

siesta: iscf =    9
Eharris(eV) =     -11745.3934  E_KS(eV) =     -11745.6871  dDmax =  0.0016

+---------------------------------------------+
| OMM (sparse algebra)                        |
+---------------------------------------------+
|             E_OMM            E_diff         |
|     1     1 -1.1213289E+002  5.1567989E-009 |
|     1     2 -1.1213289E+002  7.6721870E-010 |
+---------------------------------------------+
| minim: icg             =     2              |
| minim: 2*Tr[(2*I-S)*S] =   200.0000000      |
+---------------------------------------------+

siesta: iscf =   10
Eharris(eV) =     -11745.3933  E_KS(eV) =     -11745.6077  dDmax =  0.0007

+---------------------------------------------+
| OMM (sparse algebra)                        |
+---------------------------------------------+
|             E_OMM            E_diff         |
|     1     1 -1.1214010E+002  6.9401387E-010 |
+---------------------------------------------+
| minim: icg             =     1              |
| minim: 2*Tr[(2*I-S)*S] =   200.0000000      |
+---------------------------------------------+

siesta: iscf =   11
Eharris(eV) =     -11745.3933  E_KS(eV) =     -11745.5140  dDmax =  0.0004

+---------------------------------------------+
| OMM (sparse algebra)                        |
+---------------------------------------------+
|             E_OMM            E_diff         |
|     1     1 -1.1214327E+002  5.5217088E-010 |
+---------------------------------------------+
| minim: icg             =     1              |
| minim: 2*Tr[(2*I-S)*S] =   200.0000000      |
+---------------------------------------------+

siesta: iscf =   12
Eharris(eV) =     -11745.3933  E_KS(eV) =     -11745.4145  dDmax =  0.0003

+---------------------------------------------+
| OMM (sparse algebra)                        |
+---------------------------------------------+
|             E_OMM            E_diff         |
|     1     1 -1.1214271E+002  4.0253877E-010 |
+---------------------------------------------+
| minim: icg             =     1              |
| minim: 2*Tr[(2*I-S)*S] =   200.0000000      |
+---------------------------------------------+

siesta: iscf =   13
Eharris(eV) =     -11745.3933  E_KS(eV) =     -11745.3999  dDmax =  0.0002

+---------------------------------------------+
| OMM (sparse algebra)                        |
+---------------------------------------------+
|             E_OMM            E_diff         |
|     1     1 -1.1214020E+002  2.4299365E-010 |
+---------------------------------------------+
| minim: icg             =     1              |
| minim: 2*Tr[(2*I-S)*S] =   200.0000000      |
+---------------------------------------------+

siesta: iscf =   14
Eharris(eV) =     -11745.3933  E_KS(eV) =     -11745.3990  dDmax =  0.0001


SCF Convergence by dMax criterion
max |DM_out - DM_in|:     0.00006674
SCF cycle converged after   14 iterations

Using DM_out to compute the final energy and forces

siesta: E_KS(eV) =           -11745.3933

siesta: E_KS - E_eggbox =    -11745.3933

siesta: Atomic forces (eV/Ang):
----------------------------------------
   Tot    0.170619    0.178760   -0.069933
----------------------------------------
   Max    1.214445
   Res    0.407343    sqrt( Sum f_i^2 / 3N )
----------------------------------------
   Max    1.214445    constrained

Stress-tensor-Voigt (kbar):        5.68        9.82       15.38        1.41        6.64        1.23
(Free)E + p*V (eV/cell)   -11750.7377
Target enthalpy (eV/cell)   -11745.3933

siesta: Stress tensor (static) (eV/Ang**3):
         0.003544    0.000878    0.000768
         0.000878    0.006127    0.004145
         0.000768    0.004145    0.009601

siesta: Pressure (static):        -10.29253445  kBar

siesta: Stress tensor (total) (eV/Ang**3):
         0.003544    0.000878    0.000768
         0.000878    0.006127    0.004145
         0.000768    0.004145    0.009601

siesta: Pressure (total):        -10.29253445  kBar

siesta: Temp_ion =       0.000 K

                     ====================================
                        Begin MD step =      2
                     ====================================

outcell: Unit cell vectors (Ang):
        9.405075    0.000000    0.000000
        0.000000    9.405075    0.000000
        0.000000    0.000000    9.405075

outcell: Cell vector modules (Ang)   :    9.405075    9.405075    9.405075
outcell: Cell angles (23,13,12) (deg):     90.0000     90.0000     90.0000
outcell: Cell volume (Ang**3)        :    831.9300
 Folding of H and S is implicitly performed
New_DM. Step:     2
Re-using DM from previous geometry...
Re-using DM without extrapolation for lack of history
Density Matrix sparsity pattern changed.
New grid distribution:   1
           1       1:   36    1:   18    1:   18
           2       1:   36    1:   18   19:   36
           3       1:   36   19:   36    1:   18
           4       1:   36   19:   36   19:   36

InitMesh: MESH =    72 x    72 x    72 =      373248
InitMesh: (bp) =    36 x    36 x    36 =       46656
InitMesh: Mesh cutoff (required, used) =   150.000   161.973 Ry
ExtMesh (bp) on 0 =    88 x    70 x    70 =      431200
New grid distribution:   2
           1       1:   36    1:   16    1:   19
           2       1:   36    1:   15   20:   36
           3       1:   36   17:   36    1:   19
           4       1:   36   16:   36   20:   36
New grid distribution:   3
           1       1:   36    1:   18    1:   18
           2       1:   36    1:   18   19:   36
           3       1:   36   19:   36    1:   18
           4       1:   36   19:   36   19:   36
Setting up quadratic distribution...
ExtMesh (bp) on 0 =    88 x    68 x    71 =      424864
PhiOnMesh: Number of (b)points on node 0 =                10944
PhiOnMesh: nlist on node 0 =               375260

siesta: iscf =    1
Eharris(eV) =     -11745.4069  E_KS(eV) =     -11745.4232  dDmax =  0.0067

+---------------------------------------------+
| OMM (sparse algebra+preconditioning)        |
+---------------------------------------------+
|             E_OMM            E_diff         |
|     1     1 -1.1212780E+002  1.2654206E-008 |
|     1     2 -1.1212780E+002  2.3665368E-009 |
|     1     3 -1.1212780E+002  7.1999078E-010 |
+---------------------------------------------+
| minim: icg             =     3              |
| minim: 2*Tr[(2*I-S)*S] =   200.0000000      |
+---------------------------------------------+

siesta: iscf =    2
Eharris(eV) =     -11745.4069  E_KS(eV) =     -11745.4069  dDmax =  0.0013

+---------------------------------------------+
| OMM (sparse algebra+preconditioning)        |
+---------------------------------------------+
|             E_OMM            E_diff         |
|     1     1 -1.1213855E+002  3.3251792E-009 |
|     1     2 -1.1213855E+002  5.4224895E-010 |
+---------------------------------------------+
| minim: icg             =     2              |
| minim: 2*Tr[(2*I-S)*S] =   200.0000000      |
+---------------------------------------------+

siesta: iscf =    3
Eharris(eV) =     -11745.4069  E_KS(eV) =     -11745.4101  dDmax =  0.0013

+---------------------------------------------+
| OMM (sparse algebra+preconditioning)        |
+---------------------------------------------+
|             E_OMM            E_diff         |
|     1     1 -1.1214089E+002  4.2810691E-010 |
+---------------------------------------------+
| minim: icg             =     1              |
| minim: 2*Tr[(2*I-S)*S] =   200.0000000      |
+---------------------------------------------+

siesta: iscf =    4
Eharris(eV) =     -11745.4069  E_KS(eV) =     -11745.4073  dDmax =  0.0002

+---------------------------------------------+
| OMM (sparse algebra)                        |
+---------------------------------------------+
|             E_OMM            E_diff         |
|     1     1 -1.1214132E+002  1.4635158E-010 |
+---------------------------------------------+
| minim: icg             =     1              |
| minim: 2*Tr[(2*I-S)*S] =   200.0000000      |
+---------------------------------------------+

siesta: iscf =    5
Eharris(eV) =     -11745.4069  E_KS(eV) =     -11745.4069  dDmax =  0.0001


SCF Convergence by dMax criterion
max |DM_out - DM_in|:     0.00006337
SCF cycle converged after    5 iterations

Using DM_out to compute the final energy and forces

siesta: E_KS(eV) =           -11745.4069

siesta: Atomic forces (eV/Ang):
----------------------------------------
   Tot    0.170734    0.179471   -0.069364
----------------------------------------
   Max    1.196328
   Res    0.399691    sqrt( Sum f_i^2 / 3N )
----------------------------------------
   Max    1.196328    constrained

Stress-tensor-Voigt (kbar):        5.69        9.76       15.20        1.37        6.53        1.23
(Free)E + p*V (eV/cell)   -11750.7123
Target enthalpy (eV/cell)   -11745.4069

siesta: Stress tensor (static) (eV/Ang**3):
         0.003552    0.000853    0.000767
         0.000853    0.006090    0.004076
         0.000767    0.004076    0.009490

siesta: Pressure (static):        -10.21761144  kBar

siesta: Stress tensor (total) (eV/Ang**3):
         0.003552    0.000853    0.000767
         0.000853    0.006090    0.004076
         0.000767    0.004076    0.009490

siesta: Pressure (total):        -10.21761144  kBar

siesta: Temp_ion =       1.405 K

siesta: Program's energy decomposition (eV):
siesta: Ebs     =     -2851.544897
siesta: Eions   =     20396.361970
siesta: Ena     =      4788.911092
siesta: Ekin    =      8836.949327
siesta: Enl     =     -1599.520885
siesta: DEna    =      -547.596831
siesta: DUscf   =        58.707648
siesta: DUext   =         0.000000
siesta: Exc     =     -2886.495285
siesta: eta*DQ  =         0.000000
siesta: Emadel  =         0.000000
siesta: Emeta   =         0.000000
siesta: Emolmec =         0.000000
siesta: Ekinion =         0.013437
siesta: Eharris =    -11745.393466
siesta: Etot    =    -11745.393466
siesta: FreeEng =    -11745.393466

siesta: Final energy (eV):
siesta:  Band Struct. =   -2851.544897
siesta:       Kinetic =    8836.949327
siesta:       Hartree =    5977.977337
siesta:    Ext. field =       0.000000
siesta:   Exch.-corr. =   -2886.495285
siesta:  Ion-electron =  -19899.664546
siesta:       Ion-ion =   -3774.173737
siesta:       Ekinion =       0.013437
siesta:         Total =  -11745.393466

siesta: Atomic forces (eV/Ang):
siesta:      1    0.396714   -0.124608    0.412209
siesta:      2   -0.100760   -0.012415    0.518678
siesta:      3   -0.467869   -0.158790   -0.818306
siesta:      4   -0.440065    0.097755    0.364887
siesta:      5    0.237594    0.476613   -0.066788
siesta:      6    0.160289   -0.665598   -0.536406
siesta:      7    0.064505    0.057599   -0.225419
siesta:      8   -0.216943   -0.092481   -0.173440
siesta:      9    0.004759   -0.034982    0.247653
siesta:     10   -0.085977   -0.335320    0.238338
siesta:     11    0.329573    0.715825   -0.603606
siesta:     12   -0.085272    0.095310    0.121028
siesta:     13    0.417917    0.106518   -0.301162
siesta:     14    0.133563   -0.081831   -0.712392
siesta:     15   -0.684360   -0.176133    0.975142
siesta:     16    0.058958    0.598395    0.453066
siesta:     17   -0.073296   -0.576205   -0.700197
siesta:     18    0.003096    0.059744    0.285982
siesta:     19    0.731193   -0.614187    0.350977
siesta:     20   -0.495127    0.106794   -0.299828
siesta:     21   -0.297883    0.011187   -0.006216
siesta:     22    0.651202    0.546288   -0.152479
siesta:     23   -0.141658   -0.277278    0.180474
siesta:     24   -0.155040   -0.247773    0.032235
siesta:     25   -0.211899    0.398834    0.377402
siesta:     26    0.046209   -0.846905    0.104654
siesta:     27    0.250382    0.543023   -0.402741
siesta:     28   -0.002162   -0.217168    1.177053
siesta:     29    0.140076    0.216005   -0.276287
siesta:     30    0.295923   -0.118007   -0.788466
siesta:     31    0.150847   -0.397242   -0.150350
siesta:     32    0.168875    0.307734   -0.032417
siesta:     33    0.073212    0.122498   -0.125161
siesta:     34   -0.154080    0.443830    0.216584
siesta:     35   -0.032900   -0.101058   -0.395112
siesta:     36   -0.151311   -0.075097    0.122667
siesta:     37    0.430449    0.343225    0.318812
siesta:     38   -0.334805   -0.265447   -0.096694
siesta:     39    0.065047   -0.179282    0.101311
siesta:     40   -0.611880   -0.116190    0.622880
siesta:     41    0.767368   -0.299340   -0.316300
siesta:     42   -0.280433    0.356345   -0.364535
siesta:     43   -0.389829   -0.386895   -0.623033
siesta:     44   -0.274337   -0.004312   -0.247395
siesta:     45    0.649381    0.812609    1.146482
siesta:     46   -0.336295    0.021020   -0.100669
siesta:     47    0.226022   -0.034443   -0.160798
siesta:     48    0.011815   -0.054289    0.017425
siesta:     49   -0.663749   -0.315410   -0.221759
siesta:     50    0.725832    0.333340    0.422268
siesta:     51   -0.316788   -0.097219   -0.477701
siesta:     52   -0.168696    0.546922    0.260071
siesta:     53    0.211644   -0.095143   -0.341609
siesta:     54   -0.259514   -0.014984   -0.179485
siesta:     55   -0.328346    0.423776   -0.948878
siesta:     56    0.528382   -0.107362    0.616776
siesta:     57   -0.199464   -0.201221    0.141100
siesta:     58    0.709572   -0.249672   -0.147969
siesta:     59   -0.360446    0.071304    0.105443
siesta:     60   -0.543601   -0.056904    0.140159
siesta:     61    1.196328    0.027788   -0.722271
siesta:     62   -0.642721   -0.084619    0.533854
siesta:     63   -0.579199   -0.141775    0.540207
siesta:     64   -0.047243   -0.108855    0.466464
siesta:     65    0.135666    0.069372    0.336657
siesta:     66    0.190653    0.142150   -0.260853
siesta:     67    0.205376   -1.033063   -1.019716
siesta:     68    0.017999    0.250165    0.126931
siesta:     69    0.161062    0.586234    0.919375
siesta:     70    0.197206    0.281068   -0.280776
siesta:     71    0.180073   -0.120759    0.326321
siesta:     72   -0.518139    0.042505   -0.129621
siesta:     73   -0.054397    0.870169   -0.302277
siesta:     74   -0.071848   -0.635341   -0.088918
siesta:     75    0.024304   -0.146870    0.407106
siesta: ----------------------------------------
siesta:    Tot    0.170734    0.179471   -0.069364

siesta: Stress tensor (static) (eV/Ang**3):
siesta:     0.003552    0.000853    0.000767
siesta:     0.000853    0.006090    0.004076
siesta:     0.000767    0.004076    0.009490

siesta: Cell volume =        831.929999 Ang**3

siesta: Pressure (static):
siesta:                Solid            Molecule  Units
siesta:          -0.00006946         -0.00006325  Ry/Bohr**3
siesta:          -0.00637726         -0.00580719  eV/Ang**3
siesta:         -10.21761144         -9.30424428  kBar
(Free)E+ p_basis*V_orbitals  =      -11732.383777
(Free)Eharris+ p_basis*V_orbitals  =      -11732.383777
>> End of run:  29-SEP-2015  15:41:21
