Siesta Version  : siesta-4.0--578
Architecture    : x86_64-linux-n-62-25-35
Compiler version: GNU Fortran (GCC) 7.3.0
Compiler flags  : mpif90 -m64 -fPIC -O3 -march=native -ftree-vectorize -fexpensive-optimizationns -funroll-loops -fprefetch-loop-arrays -fno-second-underscore
PP flags        : -I/zdata/groups/common/nicpa/2018-feb/generic/build-tools/1.0/include -I/zdatta/groups/common/nicpa/2018-feb/generic/gcc/7.3.0/include -I/zdata/groups/common/nicpa/2018-feb/generic/gcc/7.3.0/include -I/zdata/groups/common/nicpa/2018-feb/XeonE5-2660v3/zlib/1.2.11/gnu-7.3.0/include -I/zdata/groups/common/nicpa/2018-feb/generic/numactl/2.0.11/include -I/zdata/groups/common/nicpa/2018-feb/XeonE5-2660v3/libxml2/2.9.7/gnu-7.3.0/include -I/zdata/groups/common/nicpa/2018-feb/XeonE5-2660v3/hwloc/1.11.9/gnu-7.3.0/include -I/zdata/groups/common/nicpa/2018-feb/XeonE5-2660v3/openmpi/3.0.0/gnu-7.3.0/include -I/zdata/groups/common/nicpa/2018-feb/XeonE5-2660v3/szip/2.1.1/gnu-7.3.0/include -I/zdata/groups/common/nicpa/2018-feb/XeonE5-2660v3/hdf5-serial/1.8.18/gnu-7.3.0/include -I/zdata/groups/common/nicpa/2018-feb/XeonE5-2660v3/netcdf-serial/4.6.0/gnu-7.3.0/include -I/zdata/groups/common/nicpa/2018-feb/XeonE5-2660v3/scalapack/204/gnu-7.3.0/include -I/zdata/groups/common/nicpa/2018-feb/XeonE5-2660v3/openblas/0.2.20/gnu-7.3.0/include -I/zdata/groups/common/nicpa/2018-feb/XeonE5-2660v3/elpa/2017.05.003/gnu-7.3.0/include -DSIESTA__ELPA -DMPI -D1 -DFC_HAVE_ABORT -DCDF -DSIESTA__MRRR 
PARALLEL version
NetCDF support

* Running on    8 nodes in parallel
>> Start of run:  10-JUN-2018  21:51:54

                           ***********************       
                           *  WELCOME TO SIESTA  *       
                           ***********************       

reinit: Reading from standard input
************************** Dump of input data file ****************************
SystemName          OMM_si
SystemLabel         OMM_si
NumberOfAtoms       8
NumberOfSpecies     1
SolutionMethod OMM
OMM.UseCholesky .true.
OMM.Use2D .true.
OMM.Eigenvalues .true.
OMM.LongOutput .true.
%block kgrid_Monkhorst_Pack
2 0 0 0.5
0 2 0 0.5
0 0 2 0.5
%endblock kgrid_Monkhorst_Pack
%block ChemicalSpeciesLabel
 1  14  Si
%endblock ChemicalSpeciesLabel
PAO.BasisType split
%Block PAO.Basis
Si   3      0.11629
 n=3   0   2   E    47.72154     5.15176
     8.00000     1.81575
     1.00000     1.00000
 n=3   1   2   E    16.47985     5.10819
     8.00000     4.05391
     1.00000     1.00000
 n=3   2   1   E     9.50149     0.00018
     4.44687
     1.00000
%EndBlock PAO.Basis
LatticeConstant 5.43 Ang
%block LatticeVectors
1.0 0.0 0.0
0.0 1.0 0.0
0.0 0.0 1.0
%endblock LatticeVectors
AtomicCoordinatesFormat Fractional
%block AtomicCoordinatesAndAtomicSpecies
  0.000000000000000       0.000000000000000       0.000000000000000     1
  0.250000000000000       0.250000000000000       0.250000000000000     1
  0.500000000000000       0.500000000000000       0.000000000000000     1
  0.750000000000000       0.750000000000000       0.250000000000000     1
  0.500000000000000       0.000000000000000       0.500000000000000     1
  0.000000000000000       0.500000000000000       0.500000000000000     1
  0.750000000000000       0.250000000000000       0.750000000000000     1
  0.250000000000000       0.750000000000000       0.750000000000000     1
%endblock AtomicCoordinatesAndAtomicSpecies
************************** End of input data file *****************************

reinit: -----------------------------------------------------------------------
reinit: System Name: OMM_si
reinit: -----------------------------------------------------------------------
reinit: System Label: OMM_si                                                      
reinit: -----------------------------------------------------------------------

initatom: Reading input for the pseudopotentials and atomic orbitals ----------
 Species number:            1  Label: Si Atomic number:          14
Ground state valence configuration:   3s02  3p02
Reading pseudopotential information in formatted form from Si.psf

Valence configuration for pseudopotential generation:
3s( 2.00) rc: 1.89
3p( 2.00) rc: 1.89
3d( 0.00) rc: 1.89
4f( 0.00) rc: 1.89
For Si, standard SIESTA heuristics set lmxkb to 3
 (one more than the basis l, including polarization orbitals).
Use PS.lmax or PS.KBprojectors blocks to override.

<basis_specs>
===============================================================================
Si                   Z=  14    Mass=  28.090        Charge= 0.11629    
Lmxo=2 Lmxkb= 3    BasisType=split      Semic=F
L=0  Nsemic=0  Cnfigmx=3
          n=1  nzeta=2  polorb=0
            splnorm:   0.15000    
               vcte:    47.722    
               rinn:    5.1518    
               qcoe:    0.0000    
               qyuk:    0.0000    
               qwid:   0.10000E-01
                rcs:    8.0000      1.8157    
            lambdas:    1.0000      1.0000    
L=1  Nsemic=0  Cnfigmx=3
          n=1  nzeta=2  polorb=0
            splnorm:   0.15000    
               vcte:    16.480    
               rinn:    5.1082    
               qcoe:    0.0000    
               qyuk:    0.0000    
               qwid:   0.10000E-01
                rcs:    8.0000      4.0539    
            lambdas:    1.0000      1.0000    
L=2  Nsemic=0  Cnfigmx=3
          n=1  nzeta=1  polorb=0
            splnorm:   0.15000    
               vcte:    9.5015    
               rinn:   0.18000E-03
               qcoe:    0.0000    
               qyuk:    0.0000    
               qwid:   0.10000E-01
                rcs:    4.4469    
            lambdas:    1.0000    
-------------------------------------------------------------------------------
L=0  Nkbl=1  erefs: 0.17977+309
L=1  Nkbl=1  erefs: 0.17977+309
L=2  Nkbl=1  erefs: 0.17977+309
L=3  Nkbl=1  erefs: 0.17977+309
===============================================================================
</basis_specs>

atom: Called for Si                    (Z =  14)

read_vps: Pseudopotential generation method:
read_vps: ATM3      Troullier-Martins                       
Total valence charge:    4.00000

xc_check: Exchange-correlation functional:
xc_check: Ceperley-Alder
V l=0 = -2*Zval/r beyond r=  2.5494
V l=1 = -2*Zval/r beyond r=  2.5494
V l=2 = -2*Zval/r beyond r=  2.5494
V l=3 = -2*Zval/r beyond r=  2.5494
All V_l potentials equal beyond r=  1.8652
This should be close to max(r_c) in ps generation
All pots = -2*Zval/r beyond r=  2.5494
Using large-core scheme for Vlocal

atom: Estimated core radius    2.54944

atom: Including non-local core corrections could be a good idea
atom: Maximum radius for 4*pi*r*r*local-pseudopot. charge    2.85303
atom: Maximum radius for r*vlocal+2*Zval:    2.58151
GHOST: No ghost state for L =  0
GHOST: No ghost state for L =  1
GHOST: No ghost state for L =  2
GHOST: No ghost state for L =  3

KBgen: Kleinman-Bylander projectors: 
   l= 0   rc=  1.936440   el= -0.796617   Ekb=  4.661340   kbcos=  0.299756
   l= 1   rc=  1.936440   el= -0.307040   Ekb=  1.494238   kbcos=  0.301471
   l= 2   rc=  1.936440   el=  0.002313   Ekb= -2.808672   kbcos= -0.054903
   l= 3   rc=  1.936440   el=  0.003402   Ekb= -0.959059   kbcos= -0.005513

KBgen: Total number of  Kleinman-Bylander projectors:   16
atom: -------------------------------------------------------------------------

atom: SANKEY-TYPE ORBITALS:
atom: Selected multiple-zeta basis: split     

atom: basis set generated (by rescaling the valence charge)
atom: for a cation of charge   0.1163

SPLIT: Orbitals with angular momentum L= 0

SPLIT: Basis orbitals for state 3s

   izeta = 1
                 lambda =    1.000000
                     rc =    8.052001
                 energy =   -0.880603
                kinetic =    0.521474
    potential(screened) =   -1.402076
       potential(ionic) =   -3.764519

   izeta = 2
                 rmatch =    1.841990
              splitnorm =    1.106433
                 energy =    5.410922
                kinetic =    4.223643
    potential(screened) =    1.187279
       potential(ionic) =   -1.853088

SPLIT: Orbitals with angular momentum L= 1

SPLIT: Basis orbitals for state 3p

   izeta = 1
                 lambda =    1.000000
                     rc =    8.052001
                 energy =   -0.377399
                kinetic =    0.856566
    potential(screened) =   -1.233964
       potential(ionic) =   -3.404940

   izeta = 2
                 rmatch =    4.099641
              splitnorm =    0.346377
                 energy =   -0.117443
                kinetic =    1.651168
    potential(screened) =   -1.768612
       potential(ionic) =   -4.245213

SPLIT: Orbitals with angular momentum L= 2

SPLIT: Basis orbitals for state 3d

   izeta = 1
                 lambda =    1.000000
                     rc =    4.530823
                 energy =    0.710805
                kinetic =    3.090474
    potential(screened) =   -2.379669
       potential(ionic) =   -4.824413
atom: Total number of Sankey-type orbitals: 13

atm_pop: Valence configuration (for local Pseudopot. screening):
 3s( 2.00)                                                            
 3p( 2.00)                                                            
 3d( 0.00)                                                            
Vna: chval, zval:    4.00000   4.00000

Vna:  Cut-off radius for the neutral-atom potential:   8.052001

atom: _________________________________________________________________________

prinput: Basis input ----------------------------------------------------------

PAO.BasisType split     

%block ChemicalSpeciesLabel
    1   14 Si                      # Species index, atomic number, species label
%endblock ChemicalSpeciesLabel

%block PAO.Basis                 # Define Basis set
Si                    3   0.116            # Label, l-shells, ionic net charge
 n=3   0   2                         # n, l, Nzeta 
   8.052      1.842   
   1.000      1.000   
 n=3   1   2                         # n, l, Nzeta 
   8.052      4.100   
   1.000      1.000   
 n=3   2   1                         # n, l, Nzeta 
   4.531   
   1.000   
%endblock PAO.Basis

prinput: ----------------------------------------------------------------------

Dumping basis to NetCDF file Si.ion.nc
coor:   Atomic-coordinates input format  =     Fractional

siesta: Atomic coordinates (Bohr) and species
siesta:      0.00000   0.00000   0.00000  1        1
siesta:      2.56530   2.56530   2.56530  1        2
siesta:      5.13061   5.13061   0.00000  1        3
siesta:      7.69591   7.69591   2.56530  1        4
siesta:      5.13061   0.00000   5.13061  1        5
siesta:      0.00000   5.13061   5.13061  1        6
siesta:      7.69591   2.56530   7.69591  1        7
siesta:      2.56530   7.69591   7.69591  1        8

siesta: System type = bulk      

initatomlists: Number of atoms, orbitals, and projectors:      8   104   128

siesta: ******************** Simulation parameters ****************************
siesta:
siesta: The following are some of the parameters of the simulation.
siesta: A complete list of the parameters used, including default values,
siesta: can be found in file out.fdf
siesta:
redata: Non-Collinear-spin run           =     F
redata: SpinPolarized (Up/Down) run      =     F
redata: Number of spin components        =     1
redata: Long output                      =     F
redata: Number of Atomic Species         =        1
redata: Charge density info will appear in .RHO file
redata: Write Mulliken Pop.              =     NO
redata: Matel table size (NRTAB)         =     1024
redata: Mesh Cutoff                      =   100.0000 Ry
redata: Net charge of the system         =     0.0000 |e|
redata: Min. number of SCF Iter          =        0
redata: Max. number of SCF Iter          =       50
redata: Mix DM or H after convergence    =     F
redata: Recompute H after scf cycle      =     F
redata: Mixing is linear
redata: Mix DM in first SCF step ?       =     F
redata: Write Pulay info on disk?        =     F
redata: Discard 1st Pulay DM after  kick =     F
redata: New DM Mixing Weight             =     0.2500
redata: New DM Occupancy tolerance       = 0.000000000001
redata: No kicks to SCF
redata: DM Mixing Weight for Kicks       =     0.5000
redata: DM Tolerance for SCF             =     0.000100
redata: Require (free) Energy convergence in SCF =     F
redata: DM (free)Energy tolerance for SCF =     0.000010 eV
redata: Require Harris convergence for SCF =     F
redata: DM Harris energy tolerance for SCF =     0.000010 eV
redata: Using Saved Data (generic)   =     F
redata: Use continuation files for DM    =     F
redata: Neglect nonoverlap interactions  =     F
redata: Method of Calculation            =     Orbital Minimization Method
redata: Fix the spin of the system       =     F
redata: Dynamics option                  =     Single-point calculation
redata: ***********************************************************************
Total number of electrons:    32.000000
Total ionic charge:    32.000000

* ProcessorY, Blocksize:    2  13


* Orbital distribution balance (max,min):    13    13

 Kpoints in:            4 . Kpoints trimmed:            4

siesta: k-grid: Number of k-points =     4
siesta: k-grid: Cutoff (effective) =     5.430 Ang
siesta: k-grid: Supercell and displacements
siesta: k-grid:    2   0   0      0.500
siesta: k-grid:    0   2   0      0.500
siesta: k-grid:    0   0   2      0.500
Naive supercell factors:     4    4    4

superc: Internal auxiliary supercell:     4 x     4 x     4  =      64
superc: Number of atoms, orbitals, and projectors:    512   6656   8192

                     ====================================
                        Single-point calculation
                     ====================================

superc: Internal auxiliary supercell:     4 x     4 x     4  =      64
superc: Number of atoms, orbitals, and projectors:    512   6656   8192

outcell: Unit cell vectors (Ang):
        5.430000    0.000000    0.000000
        0.000000    5.430000    0.000000
        0.000000    0.000000    5.430000

outcell: Cell vector modules (Ang)   :    5.430000    5.430000    5.430000
outcell: Cell angles (23,13,12) (deg):     90.0000     90.0000     90.0000
outcell: Cell volume (Ang**3)        :    160.1030
New_DM. Step:     1
Initializing Density Matrix...
New grid distribution:   1
           1       1:   18    1:    9    1:    5
           2       1:   18    1:    9    6:   10
           3       1:   18    1:    9   11:   14
           4       1:   18    1:    9   15:   18
           5       1:   18   10:   18    1:    5
           6       1:   18   10:   18    6:   10
           7       1:   18   10:   18   11:   14
           8       1:   18   10:   18   15:   18

InitMesh: MESH =    36 x    36 x    36 =       46656
InitMesh: (bp) =    18 x    18 x    18 =        5832
InitMesh: Mesh cutoff (required, used) =   100.000   121.481 Ry
ExtMesh (bp) on 0 =    78 x    69 x    65 =      349830
New grid distribution:   2
           1       1:    9   10:   18   10:   18
           2      10:   18    1:    9    1:    9
           3      10:   18    1:    9   10:   18
           4      10:   18   10:   18    1:    9
           5       1:    9    1:    9   10:   18
           6       1:    9    1:    9    1:    9
           7      10:   18   10:   18   10:   18
           8       1:    9   10:   18    1:    9
New grid distribution:   3
           1       1:    9   10:   18   10:   18
           2      10:   18    1:    9    1:    9
           3      10:   18    1:    9   10:   18
           4      10:   18   10:   18    1:    9
           5       1:    9    1:    9   10:   18
           6       1:    9    1:    9    1:    9
           7      10:   18   10:   18   10:   18
           8       1:    9   10:   18    1:    9
Setting up quadratic distribution...
ExtMesh (bp) on 0 =    69 x    69 x    69 =      328509
PhiOnMesh: Number of (b)points on node 0 =                  729
PhiOnMesh: nlist on node 0 =                69169
+---------------------------------------------+
| OMM (Cholesky factorization)                |
+---------------------------------------------+
| k point      1 of      4                    |
+---------------------------------------------+
|             E_OMM            E_diff         |
|     1     1  6.9993890E-005  1.5368208E+000 |
|     1     2 -2.1955376E-004  3.8719966E+000 |
|     1     3 -2.4472849E+000  1.9996412E+000 |
|     1     4 -2.4474880E+000  8.2986678E-005 |
|     1     5 -6.1973758E+000  8.6754120E-001 |
|     1     6 -8.0364656E+000  2.5841089E-001 |
|     1     7 -9.3804974E+000  1.5433596E-001 |
|     1     8 -1.0305192E+001  9.3945856E-002 |
|     1     9 -1.0821227E+001  4.8852153E-002 |
|     1    10 -1.1218268E+001  3.6029922E-002 |
|     1    11 -1.1580475E+001  3.1774272E-002 |
|     1    12 -1.1824836E+001  2.0880861E-002 |
|     1    13 -1.1955778E+001  1.1012497E-002 |
|     1    14 -1.2022677E+001  5.5798637E-003 |
|     1    15 -1.2052250E+001  2.4567990E-003 |
|     1    16 -1.2071046E+001  1.5583030E-003 |
|     1    17 -1.2093516E+001  1.8597187E-003 |
|     1    18 -1.2104059E+001  8.7145858E-004 |
|     1    19 -1.2107271E+001  2.6531255E-004 |
|     1    20 -1.2108454E+001  9.7693251E-005 |
|     1    21 -1.2109509E+001  8.7173919E-005 |
|     1    22 -1.2110347E+001  6.9162871E-005 |
|     1    23 -1.2110743E+001  3.2743189E-005 |
|     1    24 -1.2110867E+001  1.0207256E-005 |
|     1    25 -1.2110915E+001  3.9373022E-006 |
|     1    26 -1.2110948E+001  2.7101251E-006 |
|     1    27 -1.2110966E+001  1.4945611E-006 |
|     1    28 -1.2110973E+001  6.0541277E-007 |
|     1    29 -1.2110976E+001  2.8319939E-007 |
|     1    30 -1.2110978E+001  1.1619024E-007 |
|     1    31 -1.2110978E+001  4.8280163E-008 |
|     1    32 -1.2110979E+001  1.8337216E-008 |
|     1    33 -1.2110979E+001  8.1161674E-009 |
|     1    34 -1.2110979E+001  5.2988348E-009 |
|     1    35 -1.2110979E+001  3.2134357E-009 |
|     1    36 -1.2110979E+001  1.5615517E-009 |
|     1    37 -1.2110979E+001  9.7125629E-010 |
+---------------------------------------------+
| minim: icg             =    37              |
| minim: 2*Tr[(2*I-S)*S] =    32.0000000      |
+---------------------------------------------+
| k point      2 of      4                    |
+---------------------------------------------+
|             E_OMM            E_diff         |
|     1     1 -1.0516252E+001  3.1143816E-001 |
|     1     2 -1.1388242E+001  7.9617479E-002 |
|     1     3 -1.1767244E+001  3.2735434E-002 |
|     1     4 -1.1915347E+001  1.2507334E-002 |
|     1     5 -1.2004829E+001  7.4817091E-003 |
|     1     6 -1.2052858E+001  3.9927753E-003 |
|     1     7 -1.2078375E+001  2.1149236E-003 |
|     1     8 -1.2094480E+001  1.3324302E-003 |
|     1     9 -1.2102709E+001  6.8019142E-004 |
|     1    10 -1.2106638E+001  3.2459492E-004 |
|     1    11 -1.2108571E+001  1.5961315E-004 |
|     1    12 -1.2109679E+001  9.1482723E-005 |
|     1    13 -1.2110259E+001  4.7928474E-005 |
|     1    14 -1.2110605E+001  2.8584196E-005 |
|     1    15 -1.2110793E+001  1.5542813E-005 |
|     1    16 -1.2110895E+001  8.4202989E-006 |
|     1    17 -1.2110943E+001  3.9007861E-006 |
|     1    18 -1.2110962E+001  1.6322115E-006 |
|     1    19 -1.2110971E+001  6.9998873E-007 |
|     1    20 -1.2110975E+001  3.1671992E-007 |
|     1    21 -1.2110977E+001  1.5772831E-007 |
|     1    22 -1.2110978E+001  9.1721501E-008 |
|     1    23 -1.2110978E+001  4.4662610E-008 |
|     1    24 -1.2110979E+001  2.1874992E-008 |
|     1    25 -1.2110979E+001  1.4432624E-008 |
|     1    26 -1.2110979E+001  7.5308253E-009 |
|     1    27 -1.2110979E+001  4.2649750E-009 |
|     1    28 -1.2110979E+001  2.0882332E-009 |
|     1    29 -1.2110979E+001  1.0562508E-009 |
|     1    30 -1.2110979E+001  4.2524790E-010 |
+---------------------------------------------+
| minim: icg             =    30              |
| minim: 2*Tr[(2*I-S)*S] =    32.0000000      |
+---------------------------------------------+
| k point      3 of      4                    |
+---------------------------------------------+
|             E_OMM            E_diff         |
|     1     1 -1.0511798E+001  3.0892165E-001 |
|     1     2 -1.1379223E+001  7.9249321E-002 |
|     1     3 -1.1762578E+001  3.3131005E-002 |
|     1     4 -1.1913390E+001  1.2739604E-002 |
|     1     5 -1.2002563E+001  7.4572316E-003 |
|     1     6 -1.2050159E+001  3.9576532E-003 |
|     1     7 -1.2076451E+001  2.1794575E-003 |
|     1     8 -1.2093371E+001  1.4001003E-003 |
|     1     9 -1.2102102E+001  7.2172713E-004 |
|     1    10 -1.2106349E+001  3.5086340E-004 |
|     1    11 -1.2108379E+001  1.6769814E-004 |
|     1    12 -1.2109574E+001  9.8660843E-005 |
|     1    13 -1.2110203E+001  5.1972619E-005 |
|     1    14 -1.2110579E+001  3.1008600E-005 |
|     1    15 -1.2110780E+001  1.6613914E-005 |
|     1    16 -1.2110889E+001  8.9918366E-006 |
|     1    17 -1.2110940E+001  4.2055339E-006 |
|     1    18 -1.2110961E+001  1.7521379E-006 |
|     1    19 -1.2110970E+001  7.6242610E-007 |
|     1    20 -1.2110974E+001  3.2803851E-007 |
|     1    21 -1.2110976E+001  1.7077502E-007 |
|     1    22 -1.2110978E+001  1.0083106E-007 |
|     1    23 -1.2110978E+001  5.0244688E-008 |
|     1    24 -1.2110979E+001  2.6020185E-008 |
|     1    25 -1.2110979E+001  1.5663730E-008 |
|     1    26 -1.2110979E+001  8.2772246E-009 |
|     1    27 -1.2110979E+001  4.6182457E-009 |
|     1    28 -1.2110979E+001  2.2522056E-009 |
|     1    29 -1.2110979E+001  1.1886035E-009 |
|     1    30 -1.2110979E+001  4.8559060E-010 |
+---------------------------------------------+
| minim: icg             =    30              |
| minim: 2*Tr[(2*I-S)*S] =    32.0000000      |
+---------------------------------------------+
| k point      4 of      4                    |
+---------------------------------------------+
|             E_OMM            E_diff         |
|     1     1 -1.0419824E+001  3.1057602E-001 |
|     1     2 -1.1318773E+001  8.2705375E-002 |
|     1     3 -1.1747055E+001  3.7135630E-002 |
|     1     4 -1.1921037E+001  1.4701825E-002 |
|     1     5 -1.2010040E+001  7.4382575E-003 |
|     1     6 -1.2054882E+001  3.7267739E-003 |
|     1     7 -1.2080644E+001  2.1347536E-003 |
|     1     8 -1.2096513E+001  1.3126993E-003 |
|     1     9 -1.2104249E+001  6.3932553E-004 |
|     1    10 -1.2107883E+001  3.0017728E-004 |
|     1    11 -1.2109404E+001  1.2565615E-004 |
|     1    12 -1.2110130E+001  5.9958748E-005 |
|     1    13 -1.2110478E+001  2.8751667E-005 |
|     1    14 -1.2110701E+001  1.8353219E-005 |
|     1    15 -1.2110833E+001  1.0909931E-005 |
|     1    16 -1.2110909E+001  6.2823033E-006 |
|     1    17 -1.2110946E+001  3.0630346E-006 |
|     1    18 -1.2110963E+001  1.4111931E-006 |
|     1    19 -1.2110972E+001  7.1340166E-007 |
|     1    20 -1.2110975E+001  2.9224330E-007 |
|     1    21 -1.2110977E+001  1.4917343E-007 |
|     1    22 -1.2110978E+001  8.2696669E-008 |
|     1    23 -1.2110978E+001  3.1468764E-008 |
|     1    24 -1.2110979E+001  1.7081255E-008 |
|     1    25 -1.2110979E+001  8.3384270E-009 |
|     1    26 -1.2110979E+001  4.2635522E-009 |
|     1    27 -1.2110979E+001  2.8046679E-009 |
|     1    28 -1.2110979E+001  1.7002908E-009 |
|     1    29 -1.2110979E+001  9.6554894E-010 |
+---------------------------------------------+
| minim: icg             =    29              |
| minim: 2*Tr[(2*I-S)*S] =    32.0000000      |
+---------------------------------------------+

siesta: Program's energy decomposition (eV):
siesta: Ebs     =      -329.559113
siesta: Eions   =      1523.208495
siesta: Ena     =       467.239233
siesta: Ekin    =       300.002386
siesta: Enl     =       141.881959
siesta: DEna    =         0.000000
siesta: DUscf   =         0.000000
siesta: DUext   =         0.000000
siesta: Exc     =      -256.750933
siesta: eta*DQ  =         0.000000
siesta: Emadel  =         0.000000
siesta: Emeta   =         0.000000
siesta: Emolmec =         0.000000
siesta: Ekinion =         0.000000
siesta: Eharris =      -863.049334
siesta: Etot    =      -870.835850
siesta: FreeEng =      -870.835850

siesta: iscf =    1
Eharris(eV) =       -863.0493  E_KS(eV) =       -870.8358  dDmax =  0.7791

timer: Routine,Calls,Time,% =    IterSCF     1       0.210  13.05
+---------------------------------------------+
| OMM (Cholesky factorization)                |
+---------------------------------------------+
| k point      1 of      4                    |
+---------------------------------------------+
|             E_OMM            E_diff         |
|     1     1 -1.1702711E+001  2.6211089E-004 |
|     1     2 -1.1703372E+001  5.6535276E-005 |
|     1     3 -1.1703504E+001  1.1256138E-005 |
|     1     4 -1.1703574E+001  5.9610735E-006 |
|     1     5 -1.1703596E+001  1.9391314E-006 |
|     1     6 -1.1703606E+001  8.0046619E-007 |
|     1     7 -1.1703611E+001  4.6324193E-007 |
|     1     8 -1.1703613E+001  1.5908061E-007 |
|     1     9 -1.1703614E+001  9.2320032E-008 |
|     1    10 -1.1703615E+001  2.9899494E-008 |
|     1    11 -1.1703615E+001  8.4267139E-009 |
|     1    12 -1.1703615E+001  4.1702977E-009 |
|     1    13 -1.1703615E+001  1.6567914E-009 |
|     1    14 -1.1703615E+001  9.3999645E-010 |
+---------------------------------------------+
| minim: icg             =    14              |
| minim: 2*Tr[(2*I-S)*S] =    32.0000000      |
+---------------------------------------------+
| k point      2 of      4                    |
+---------------------------------------------+
|             E_OMM            E_diff         |
|     1     1 -1.1702711E+001  2.6209731E-004 |
|     1     2 -1.1703372E+001  5.6496071E-005 |
|     1     3 -1.1703504E+001  1.1278075E-005 |
|     1     4 -1.1703574E+001  5.9678366E-006 |
|     1     5 -1.1703597E+001  1.9366090E-006 |
|     1     6 -1.1703606E+001  8.0231146E-007 |
|     1     7 -1.1703611E+001  4.6374098E-007 |
|     1     8 -1.1703613E+001  1.5875864E-007 |
|     1     9 -1.1703614E+001  9.2378540E-008 |
|     1    10 -1.1703615E+001  2.9985822E-008 |
|     1    11 -1.1703615E+001  8.2340074E-009 |
|     1    12 -1.1703615E+001  4.1890857E-009 |
|     1    13 -1.1703615E+001  1.6436498E-009 |
|     1    14 -1.1703615E+001  9.2365051E-010 |
+---------------------------------------------+
| minim: icg             =    14              |
| minim: 2*Tr[(2*I-S)*S] =    32.0000000      |
+---------------------------------------------+
| k point      3 of      4                    |
+---------------------------------------------+
|             E_OMM            E_diff         |
|     1     1 -1.1702711E+001  2.6209640E-004 |
|     1     2 -1.1703372E+001  5.6490112E-005 |
|     1     3 -1.1703504E+001  1.1282665E-005 |
|     1     4 -1.1703574E+001  5.9691307E-006 |
|     1     5 -1.1703597E+001  1.9363456E-006 |
|     1     6 -1.1703606E+001  8.0250384E-007 |
|     1     7 -1.1703611E+001  4.6379883E-007 |
|     1     8 -1.1703613E+001  1.5881605E-007 |
|     1     9 -1.1703614E+001  9.2292988E-008 |
|     1    10 -1.1703615E+001  2.9973216E-008 |
|     1    11 -1.1703615E+001  8.2303221E-009 |
|     1    12 -1.1703615E+001  4.1920021E-009 |
|     1    13 -1.1703615E+001  1.6432197E-009 |
|     1    14 -1.1703615E+001  9.2426824E-010 |
+---------------------------------------------+
| minim: icg             =    14              |
| minim: 2*Tr[(2*I-S)*S] =    32.0000000      |
+---------------------------------------------+
| k point      4 of      4                    |
+---------------------------------------------+
|             E_OMM            E_diff         |
|     1     1 -1.1702711E+001  2.6210325E-004 |
|     1     2 -1.1703372E+001  5.6527564E-005 |
|     1     3 -1.1703504E+001  1.1251915E-005 |
|     1     4 -1.1703574E+001  5.9586008E-006 |
|     1     5 -1.1703597E+001  1.9384150E-006 |
|     1     6 -1.1703606E+001  8.0072786E-007 |
|     1     7 -1.1703611E+001  4.6330642E-007 |
|     1     8 -1.1703613E+001  1.5887876E-007 |
|     1     9 -1.1703614E+001  9.2333899E-008 |
|     1    10 -1.1703615E+001  3.0024716E-008 |
|     1    11 -1.1703615E+001  8.3143915E-009 |
|     1    12 -1.1703615E+001  4.1546834E-009 |
|     1    13 -1.1703615E+001  1.6667924E-009 |
|     1    14 -1.1703615E+001  9.2301880E-010 |
+---------------------------------------------+
| minim: icg             =    14              |
| minim: 2*Tr[(2*I-S)*S] =    32.0000000      |
+---------------------------------------------+

siesta: iscf =    2
Eharris(eV) =       -862.6945  E_KS(eV) =       -862.5865  dDmax =  0.0611

+---------------------------------------------+
| OMM (Cholesky factorization)                |
+---------------------------------------------+
| k point      1 of      4                    |
+---------------------------------------------+
|             E_OMM            E_diff         |
|     1     1 -1.1733972E+001  1.7390689E-006 |
|     1     2 -1.1733975E+001  2.8311574E-007 |
|     1     3 -1.1733978E+001  2.3188374E-007 |
|     1     4 -1.1733979E+001  4.7952493E-008 |
|     1     5 -1.1733979E+001  1.1593844E-008 |
|     1     6 -1.1733979E+001  8.7563179E-009 |
|     1     7 -1.1733979E+001  3.0912968E-009 |
|     1     8 -1.1733979E+001  9.4741724E-010 |
+---------------------------------------------+
| minim: icg             =     8              |
| minim: 2*Tr[(2*I-S)*S] =    32.0000000      |
+---------------------------------------------+
| k point      2 of      4                    |
+---------------------------------------------+
|             E_OMM            E_diff         |
|     1     1 -1.1733972E+001  1.7390870E-006 |
|     1     2 -1.1733976E+001  2.8310554E-007 |
|     1     3 -1.1733978E+001  2.3187327E-007 |
|     1     4 -1.1733979E+001  4.7954972E-008 |
|     1     5 -1.1733979E+001  1.1589002E-008 |
|     1     6 -1.1733979E+001  8.7572732E-009 |
|     1     7 -1.1733979E+001  3.0958207E-009 |
|     1     8 -1.1733979E+001  9.4217429E-010 |
+---------------------------------------------+
| minim: icg             =     8              |
| minim: 2*Tr[(2*I-S)*S] =    32.0000000      |
+---------------------------------------------+
| k point      3 of      4                    |
+---------------------------------------------+
|             E_OMM            E_diff         |
|     1     1 -1.1733972E+001  1.7390747E-006 |
|     1     2 -1.1733976E+001  2.8311143E-007 |
|     1     3 -1.1733978E+001  2.3188304E-007 |
|     1     4 -1.1733979E+001  4.7955285E-008 |
|     1     5 -1.1733979E+001  1.1589078E-008 |
|     1     6 -1.1733979E+001  8.7577116E-009 |
|     1     7 -1.1733979E+001  3.0960037E-009 |
|     1     8 -1.1733979E+001  9.4212554E-010 |
+---------------------------------------------+
| minim: icg             =     8              |
| minim: 2*Tr[(2*I-S)*S] =    32.0000000      |
+---------------------------------------------+
| k point      4 of      4                    |
+---------------------------------------------+
|             E_OMM            E_diff         |
|     1     1 -1.1733972E+001  1.7390224E-006 |
|     1     2 -1.1733976E+001  2.8314377E-007 |
|     1     3 -1.1733978E+001  2.3191951E-007 |
|     1     4 -1.1733979E+001  4.7951657E-008 |
|     1     5 -1.1733979E+001  1.1592483E-008 |
|     1     6 -1.1733979E+001  8.7593351E-009 |
|     1     7 -1.1733979E+001  3.0923235E-009 |
|     1     8 -1.1733979E+001  9.4476268E-010 |
+---------------------------------------------+
| minim: icg             =     8              |
| minim: 2*Tr[(2*I-S)*S] =    32.0000000      |
+---------------------------------------------+

siesta: iscf =    3
Eharris(eV) =       -862.6798  E_KS(eV) =       -862.6113  dDmax =  0.0403

+---------------------------------------------+
| OMM (Cholesky factorization)                |
+---------------------------------------------+
| k point      1 of      4                    |
+---------------------------------------------+
|             E_OMM            E_diff         |
|     1     1 -1.1754193E+001  7.7255837E-007 |
|     1     2 -1.1754194E+001  1.2576088E-007 |
|     1     3 -1.1754196E+001  1.0308969E-007 |
|     1     4 -1.1754196E+001  2.1237140E-008 |
|     1     5 -1.1754196E+001  5.7022628E-009 |
|     1     6 -1.1754196E+001  4.5494977E-009 |
|     1     7 -1.1754196E+001  1.4389544E-009 |
|     1     8 -1.1754196E+001  5.1384383E-010 |
+---------------------------------------------+
| minim: icg             =     8              |
| minim: 2*Tr[(2*I-S)*S] =    32.0000000      |
+---------------------------------------------+
| k point      2 of      4                    |
+---------------------------------------------+
|             E_OMM            E_diff         |
|     1     1 -1.1754193E+001  7.7255008E-007 |
|     1     2 -1.1754194E+001  1.2576791E-007 |
|     1     3 -1.1754196E+001  1.0309674E-007 |
|     1     4 -1.1754196E+001  2.1235122E-008 |
|     1     5 -1.1754196E+001  5.7030584E-009 |
|     1     6 -1.1754196E+001  4.5521240E-009 |
|     1     7 -1.1754196E+001  1.4399187E-009 |
|     1     8 -1.1754196E+001  5.1231308E-010 |
+---------------------------------------------+
| minim: icg             =     8              |
| minim: 2*Tr[(2*I-S)*S] =    32.0000000      |
+---------------------------------------------+
| k point      3 of      4                    |
+---------------------------------------------+
|             E_OMM            E_diff         |
|     1     1 -1.1754193E+001  7.7254947E-007 |
|     1     2 -1.1754195E+001  1.2576893E-007 |
|     1     3 -1.1754196E+001  1.0309734E-007 |
|     1     4 -1.1754196E+001  2.1235332E-008 |
|     1     5 -1.1754196E+001  5.7031000E-009 |
|     1     6 -1.1754196E+001  4.5524472E-009 |
|     1     7 -1.1754196E+001  1.4401078E-009 |
|     1     8 -1.1754196E+001  5.1216422E-010 |
+---------------------------------------------+
| minim: icg             =     8              |
| minim: 2*Tr[(2*I-S)*S] =    32.0000000      |
+---------------------------------------------+
| k point      4 of      4                    |
+---------------------------------------------+
|             E_OMM            E_diff         |
|     1     1 -1.1754193E+001  7.7256060E-007 |
|     1     2 -1.1754195E+001  1.2576192E-007 |
|     1     3 -1.1754196E+001  1.0309161E-007 |
|     1     4 -1.1754196E+001  2.1237979E-008 |
|     1     5 -1.1754196E+001  5.7027775E-009 |
|     1     6 -1.1754196E+001  4.5495488E-009 |
|     1     7 -1.1754196E+001  1.4384261E-009 |
|     1     8 -1.1754196E+001  5.1473063E-010 |
+---------------------------------------------+
| minim: icg             =     8              |
| minim: 2*Tr[(2*I-S)*S] =    32.0000000      |
+---------------------------------------------+

siesta: iscf =    4
Eharris(eV) =       -862.6732  E_KS(eV) =       -862.6274  dDmax =  0.0266

+---------------------------------------------+
| OMM (Cholesky factorization)                |
+---------------------------------------------+
| k point      1 of      4                    |
+---------------------------------------------+
|             E_OMM            E_diff         |
|     1     1 -1.1767659E+001  3.4295276E-007 |
|     1     2 -1.1767659E+001  5.5478716E-008 |
|     1     3 -1.1767660E+001  4.5229713E-008 |
|     1     4 -1.1767660E+001  9.4186300E-009 |
|     1     5 -1.1767660E+001  2.4928792E-009 |
|     1     6 -1.1767660E+001  2.0123651E-009 |
|     1     7 -1.1767660E+001  6.3740990E-010 |
+---------------------------------------------+
| minim: icg             =     7              |
| minim: 2*Tr[(2*I-S)*S] =    32.0000000      |
+---------------------------------------------+
| k point      2 of      4                    |
+---------------------------------------------+
|             E_OMM            E_diff         |
|     1     1 -1.1767659E+001  3.4295787E-007 |
|     1     2 -1.1767659E+001  5.5478589E-008 |
|     1     3 -1.1767660E+001  4.5227891E-008 |
|     1     4 -1.1767660E+001  9.4193582E-009 |
|     1     5 -1.1767660E+001  2.4928499E-009 |
|     1     6 -1.1767660E+001  2.0124851E-009 |
|     1     7 -1.1767660E+001  6.3751481E-010 |
+---------------------------------------------+
| minim: icg             =     7              |
| minim: 2*Tr[(2*I-S)*S] =    32.0000000      |
+---------------------------------------------+
| k point      3 of      4                    |
+---------------------------------------------+
|             E_OMM            E_diff         |
|     1     1 -1.1767659E+001  3.4295749E-007 |
|     1     2 -1.1767659E+001  5.5478892E-008 |
|     1     3 -1.1767660E+001  4.5228069E-008 |
|     1     4 -1.1767660E+001  9.4194088E-009 |
|     1     5 -1.1767660E+001  2.4928854E-009 |
|     1     6 -1.1767660E+001  2.0125258E-009 |
|     1     7 -1.1767660E+001  6.3754560E-010 |
+---------------------------------------------+
| minim: icg             =     7              |
| minim: 2*Tr[(2*I-S)*S] =    32.0000000      |
+---------------------------------------------+
| k point      4 of      4                    |
+---------------------------------------------+
|             E_OMM            E_diff         |
|     1     1 -1.1767659E+001  3.4295328E-007 |
|     1     2 -1.1767659E+001  5.5479705E-008 |
|     1     3 -1.1767660E+001  4.5230699E-008 |
|     1     4 -1.1767660E+001  9.4192232E-009 |
|     1     5 -1.1767660E+001  2.4927327E-009 |
|     1     6 -1.1767660E+001  2.0124351E-009 |
|     1     7 -1.1767660E+001  6.3746756E-010 |
+---------------------------------------------+
| minim: icg             =     7              |
| minim: 2*Tr[(2*I-S)*S] =    32.0000000      |
+---------------------------------------------+

siesta: iscf =    5
Eharris(eV) =       -862.6703  E_KS(eV) =       -862.6384  dDmax =  0.0175

+---------------------------------------------+
| OMM (Cholesky factorization)                |
+---------------------------------------------+
| k point      1 of      4                    |
+---------------------------------------------+
|             E_OMM            E_diff         |
|     1     1 -1.1776630E+001  1.5155902E-007 |
|     1     2 -1.1776630E+001  2.4941329E-008 |
|     1     3 -1.1776631E+001  2.0531242E-008 |
|     1     4 -1.1776631E+001  4.4646378E-009 |
|     1     5 -1.1776631E+001  1.1243495E-009 |
|     1     6 -1.1776631E+001  9.0075807E-010 |
+---------------------------------------------+
| minim: icg             =     6              |
| minim: 2*Tr[(2*I-S)*S] =    32.0000000      |
+---------------------------------------------+
| k point      2 of      4                    |
+---------------------------------------------+
|             E_OMM            E_diff         |
|     1     1 -1.1776630E+001  1.5155957E-007 |
|     1     2 -1.1776630E+001  2.4941311E-008 |
|     1     3 -1.1776631E+001  2.0531396E-008 |
|     1     4 -1.1776631E+001  4.4646364E-009 |
|     1     5 -1.1776631E+001  1.1242993E-009 |
|     1     6 -1.1776631E+001  9.0089880E-010 |
+---------------------------------------------+
| minim: icg             =     6              |
| minim: 2*Tr[(2*I-S)*S] =    32.0000000      |
+---------------------------------------------+
| k point      3 of      4                    |
+---------------------------------------------+
|             E_OMM            E_diff         |
|     1     1 -1.1776630E+001  1.5155924E-007 |
|     1     2 -1.1776630E+001  2.4941495E-008 |
|     1     3 -1.1776631E+001  2.0531596E-008 |
|     1     4 -1.1776631E+001  4.4646818E-009 |
|     1     5 -1.1776631E+001  1.1243016E-009 |
|     1     6 -1.1776631E+001  9.0090785E-010 |
+---------------------------------------------+
| minim: icg             =     6              |
| minim: 2*Tr[(2*I-S)*S] =    32.0000000      |
+---------------------------------------------+
| k point      4 of      4                    |
+---------------------------------------------+
|             E_OMM            E_diff         |
|     1     1 -1.1776630E+001  1.5155933E-007 |
|     1     2 -1.1776630E+001  2.4941239E-008 |
|     1     3 -1.1776631E+001  2.0531549E-008 |
|     1     4 -1.1776631E+001  4.4646121E-009 |
|     1     5 -1.1776631E+001  1.1243426E-009 |
|     1     6 -1.1776631E+001  9.0099669E-010 |
+---------------------------------------------+
| minim: icg             =     6              |
| minim: 2*Tr[(2*I-S)*S] =    32.0000000      |
+---------------------------------------------+

siesta: iscf =    6
Eharris(eV) =       -862.6690  E_KS(eV) =       -862.6462  dDmax =  0.0115

+---------------------------------------------+
| OMM (Cholesky factorization)                |
+---------------------------------------------+
| k point      1 of      4                    |
+---------------------------------------------+
|             E_OMM            E_diff         |
|     1     1 -1.1782608E+001  6.7643098E-008 |
|     1     2 -1.1782609E+001  1.0980565E-008 |
|     1     3 -1.1782609E+001  8.8961847E-009 |
|     1     4 -1.1782609E+001  2.2167283E-009 |
|     1     5 -1.1782609E+001  5.7793713E-010 |
+---------------------------------------------+
| minim: icg             =     5              |
| minim: 2*Tr[(2*I-S)*S] =    32.0000000      |
+---------------------------------------------+
| k point      2 of      4                    |
+---------------------------------------------+
|             E_OMM            E_diff         |
|     1     1 -1.1782608E+001  6.7643446E-008 |
|     1     2 -1.1782609E+001  1.0980685E-008 |
|     1     3 -1.1782609E+001  8.8961798E-009 |
|     1     4 -1.1782609E+001  2.2168243E-009 |
|     1     5 -1.1782609E+001  5.7787804E-010 |
+---------------------------------------------+
| minim: icg             =     5              |
| minim: 2*Tr[(2*I-S)*S] =    32.0000000      |
+---------------------------------------------+
| k point      3 of      4                    |
+---------------------------------------------+
|             E_OMM            E_diff         |
|     1     1 -1.1782608E+001  6.7643295E-008 |
|     1     2 -1.1782609E+001  1.0980766E-008 |
|     1     3 -1.1782609E+001  8.8962532E-009 |
|     1     4 -1.1782609E+001  2.2168575E-009 |
|     1     5 -1.1782609E+001  5.7788075E-010 |
+---------------------------------------------+
| minim: icg             =     5              |
| minim: 2*Tr[(2*I-S)*S] =    32.0000000      |
+---------------------------------------------+
| k point      4 of      4                    |
+---------------------------------------------+
|             E_OMM            E_diff         |
|     1     1 -1.1782608E+001  6.7643356E-008 |
|     1     2 -1.1782609E+001  1.0980722E-008 |
|     1     3 -1.1782609E+001  8.8961632E-009 |
|     1     4 -1.1782609E+001  2.2167413E-009 |
|     1     5 -1.1782609E+001  5.7794316E-010 |
+---------------------------------------------+
| minim: icg             =     5              |
| minim: 2*Tr[(2*I-S)*S] =    32.0000000      |
+---------------------------------------------+

siesta: iscf =    7
Eharris(eV) =       -862.6684  E_KS(eV) =       -862.6518  dDmax =  0.0075

+---------------------------------------------+
| OMM (Cholesky factorization)                |
+---------------------------------------------+
| k point      1 of      4                    |
+---------------------------------------------+
|             E_OMM            E_diff         |
|     1     1 -1.1786594E+001  2.9654304E-008 |
|     1     2 -1.1786594E+001  5.1834327E-009 |
|     1     3 -1.1786594E+001  4.7647956E-009 |
|     1     4 -1.1786594E+001  9.2995897E-010 |
+---------------------------------------------+
| minim: icg             =     4              |
| minim: 2*Tr[(2*I-S)*S] =    32.0000000      |
+---------------------------------------------+
| k point      2 of      4                    |
+---------------------------------------------+
|             E_OMM            E_diff         |
|     1     1 -1.1786594E+001  2.9654415E-008 |
|     1     2 -1.1786594E+001  5.1835056E-009 |
|     1     3 -1.1786594E+001  4.7648528E-009 |
|     1     4 -1.1786594E+001  9.2999333E-010 |
+---------------------------------------------+
| minim: icg             =     4              |
| minim: 2*Tr[(2*I-S)*S] =    32.0000000      |
+---------------------------------------------+
| k point      3 of      4                    |
+---------------------------------------------+
|             E_OMM            E_diff         |
|     1     1 -1.1786594E+001  2.9654312E-008 |
|     1     2 -1.1786594E+001  5.1835587E-009 |
|     1     3 -1.1786594E+001  4.7649012E-009 |
|     1     4 -1.1786594E+001  9.3000463E-010 |
+---------------------------------------------+
| minim: icg             =     4              |
| minim: 2*Tr[(2*I-S)*S] =    32.0000000      |
+---------------------------------------------+
| k point      4 of      4                    |
+---------------------------------------------+
|             E_OMM            E_diff         |
|     1     1 -1.1786594E+001  2.9654672E-008 |
|     1     2 -1.1786594E+001  5.1832476E-009 |
|     1     3 -1.1786594E+001  4.7648679E-009 |
|     1     4 -1.1786594E+001  9.2995670E-010 |
+---------------------------------------------+
| minim: icg             =     4              |
| minim: 2*Tr[(2*I-S)*S] =    32.0000000      |
+---------------------------------------------+

siesta: iscf =    8
Eharris(eV) =       -862.6682  E_KS(eV) =       -862.6559  dDmax =  0.0050

+---------------------------------------------+
| OMM (Cholesky factorization)                |
+---------------------------------------------+
| k point      1 of      4                    |
+---------------------------------------------+
|             E_OMM            E_diff         |
|     1     1 -1.1789250E+001  1.2722930E-008 |
|     1     2 -1.1789250E+001  2.6156808E-009 |
|     1     3 -1.1789250E+001  2.5425578E-009 |
|     1     4 -1.1789250E+001  4.7386798E-010 |
+---------------------------------------------+
| minim: icg             =     4              |
| minim: 2*Tr[(2*I-S)*S] =    32.0000000      |
+---------------------------------------------+
| k point      2 of      4                    |
+---------------------------------------------+
|             E_OMM            E_diff         |
|     1     1 -1.1789250E+001  1.2722841E-008 |
|     1     2 -1.1789250E+001  2.6157603E-009 |
|     1     3 -1.1789250E+001  2.5426618E-009 |
|     1     4 -1.1789250E+001  4.7385864E-010 |
+---------------------------------------------+
| minim: icg             =     4              |
| minim: 2*Tr[(2*I-S)*S] =    32.0000000      |
+---------------------------------------------+
| k point      3 of      4                    |
+---------------------------------------------+
|             E_OMM            E_diff         |
|     1     1 -1.1789250E+001  1.2722798E-008 |
|     1     2 -1.1789250E+001  2.6157684E-009 |
|     1     3 -1.1789250E+001  2.5426889E-009 |
|     1     4 -1.1789250E+001  4.7386678E-010 |
+---------------------------------------------+
| minim: icg             =     4              |
| minim: 2*Tr[(2*I-S)*S] =    32.0000000      |
+---------------------------------------------+
| k point      4 of      4                    |
+---------------------------------------------+
|             E_OMM            E_diff         |
|     1     1 -1.1789250E+001  1.2722900E-008 |
|     1     2 -1.1789250E+001  2.6157138E-009 |
|     1     3 -1.1789250E+001  2.5426052E-009 |
|     1     4 -1.1789250E+001  4.7386527E-010 |
+---------------------------------------------+
| minim: icg             =     4              |
| minim: 2*Tr[(2*I-S)*S] =    32.0000000      |
+---------------------------------------------+

siesta: iscf =    9
Eharris(eV) =       -862.6681  E_KS(eV) =       -862.6590  dDmax =  0.0032

+---------------------------------------------+
| OMM (Cholesky factorization)                |
+---------------------------------------------+
| k point      1 of      4                    |
+---------------------------------------------+
|             E_OMM            E_diff         |
|     1     1 -1.1791018E+001  5.6020245E-009 |
|     1     2 -1.1791018E+001  1.0795908E-009 |
|     1     3 -1.1791018E+001  1.0956396E-009 |
|     1     4 -1.1791018E+001  2.1173490E-010 |
+---------------------------------------------+
| minim: icg             =     4              |
| minim: 2*Tr[(2*I-S)*S] =    32.0000000      |
+---------------------------------------------+
| k point      2 of      4                    |
+---------------------------------------------+
|             E_OMM            E_diff         |
|     1     1 -1.1791018E+001  5.6018678E-009 |
|     1     2 -1.1791018E+001  1.0796069E-009 |
|     1     3 -1.1791018E+001  1.0958399E-009 |
|     1     4 -1.1791018E+001  2.1161001E-010 |
+---------------------------------------------+
| minim: icg             =     4              |
| minim: 2*Tr[(2*I-S)*S] =    32.0000000      |
+---------------------------------------------+
| k point      3 of      4                    |
+---------------------------------------------+
|             E_OMM            E_diff         |
|     1     1 -1.1791018E+001  5.6018447E-009 |
|     1     2 -1.1791018E+001  1.0795903E-009 |
|     1     3 -1.1791018E+001  1.0958622E-009 |
|     1     4 -1.1791018E+001  2.1160398E-010 |
+---------------------------------------------+
| minim: icg             =     4              |
| minim: 2*Tr[(2*I-S)*S] =    32.0000000      |
+---------------------------------------------+
| k point      4 of      4                    |
+---------------------------------------------+
|             E_OMM            E_diff         |
|     1     1 -1.1791018E+001  5.6019796E-009 |
|     1     2 -1.1791018E+001  1.0796869E-009 |
|     1     3 -1.1791018E+001  1.0956582E-009 |
|     1     4 -1.1791018E+001  2.1172616E-010 |
+---------------------------------------------+
| minim: icg             =     4              |
| minim: 2*Tr[(2*I-S)*S] =    32.0000000      |
+---------------------------------------------+

siesta: iscf =   10
Eharris(eV) =       -862.6680  E_KS(eV) =       -862.6612  dDmax =  0.0021

+---------------------------------------------+
| OMM (Cholesky factorization)                |
+---------------------------------------------+
| k point      1 of      4                    |
+---------------------------------------------+
|             E_OMM            E_diff         |
|     1     1 -1.1792197E+001  2.4727000E-009 |
|     1     2 -1.1792197E+001  4.9392137E-010 |
+---------------------------------------------+
| minim: icg             =     2              |
| minim: 2*Tr[(2*I-S)*S] =    32.0000000      |
+---------------------------------------------+
| k point      2 of      4                    |
+---------------------------------------------+
|             E_OMM            E_diff         |
|     1     1 -1.1792197E+001  2.4724554E-009 |
|     1     2 -1.1792197E+001  4.9402681E-010 |
+---------------------------------------------+
| minim: icg             =     2              |
| minim: 2*Tr[(2*I-S)*S] =    32.0000000      |
+---------------------------------------------+
| k point      3 of      4                    |
+---------------------------------------------+
|             E_OMM            E_diff         |
|     1     1 -1.1792197E+001  2.4724342E-009 |
|     1     2 -1.1792197E+001  4.9401928E-010 |
+---------------------------------------------+
| minim: icg             =     2              |
| minim: 2*Tr[(2*I-S)*S] =    32.0000000      |
+---------------------------------------------+
| k point      4 of      4                    |
+---------------------------------------------+
|             E_OMM            E_diff         |
|     1     1 -1.1792197E+001  2.4726418E-009 |
|     1     2 -1.1792197E+001  4.9400814E-010 |
+---------------------------------------------+
| minim: icg             =     2              |
| minim: 2*Tr[(2*I-S)*S] =    32.0000000      |
+---------------------------------------------+

siesta: iscf =   11
Eharris(eV) =       -862.6680  E_KS(eV) =       -862.6629  dDmax =  0.0013

+---------------------------------------------+
| OMM (Cholesky factorization)                |
+---------------------------------------------+
| k point      1 of      4                    |
+---------------------------------------------+
|             E_OMM            E_diff         |
|     1     1 -1.1792999E+001  1.4278136E-009 |
|     1     2 -1.1792999E+001  1.0497783E-009 |
|     1     3 -1.1792999E+001  3.7449019E-010 |
+---------------------------------------------+
| minim: icg             =     3              |
| minim: 2*Tr[(2*I-S)*S] =    32.0000000      |
+---------------------------------------------+
| k point      2 of      4                    |
+---------------------------------------------+
|             E_OMM            E_diff         |
|     1     1 -1.1792999E+001  1.4285985E-009 |
|     1     2 -1.1792999E+001  1.0491934E-009 |
|     1     3 -1.1792999E+001  3.7445825E-010 |
+---------------------------------------------+
| minim: icg             =     3              |
| minim: 2*Tr[(2*I-S)*S] =    32.0000000      |
+---------------------------------------------+
| k point      3 of      4                    |
+---------------------------------------------+
|             E_OMM            E_diff         |
|     1     1 -1.1792999E+001  1.4286643E-009 |
|     1     2 -1.1792999E+001  1.0491386E-009 |
|     1     3 -1.1792999E+001  3.7446413E-010 |
+---------------------------------------------+
| minim: icg             =     3              |
| minim: 2*Tr[(2*I-S)*S] =    32.0000000      |
+---------------------------------------------+
| k point      4 of      4                    |
+---------------------------------------------+
|             E_OMM            E_diff         |
|     1     1 -1.1792999E+001  1.4278303E-009 |
|     1     2 -1.1792999E+001  1.0498383E-009 |
|     1     3 -1.1792999E+001  3.7446036E-010 |
+---------------------------------------------+
| minim: icg             =     3              |
| minim: 2*Tr[(2*I-S)*S] =    32.0000000      |
+---------------------------------------------+

siesta: iscf =   12
Eharris(eV) =       -862.6680  E_KS(eV) =       -862.6642  dDmax =  0.0009

+---------------------------------------------+
| OMM (Cholesky factorization)                |
+---------------------------------------------+
| k point      1 of      4                    |
+---------------------------------------------+
|             E_OMM            E_diff         |
|     1     1 -1.1793520E+001  4.8041008E-010 |
+---------------------------------------------+
| minim: icg             =     1              |
| minim: 2*Tr[(2*I-S)*S] =    32.0000000      |
+---------------------------------------------+
| k point      2 of      4                    |
+---------------------------------------------+
|             E_OMM            E_diff         |
|     1     1 -1.1793520E+001  4.8045828E-010 |
+---------------------------------------------+
| minim: icg             =     1              |
| minim: 2*Tr[(2*I-S)*S] =    32.0000000      |
+---------------------------------------------+
| k point      3 of      4                    |
+---------------------------------------------+
|             E_OMM            E_diff         |
|     1     1 -1.1793520E+001  4.8047801E-010 |
+---------------------------------------------+
| minim: icg             =     1              |
| minim: 2*Tr[(2*I-S)*S] =    32.0000000      |
+---------------------------------------------+
| k point      4 of      4                    |
+---------------------------------------------+
|             E_OMM            E_diff         |
|     1     1 -1.1793520E+001  4.8033175E-010 |
+---------------------------------------------+
| minim: icg             =     1              |
| minim: 2*Tr[(2*I-S)*S] =    32.0000000      |
+---------------------------------------------+

siesta: iscf =   13
Eharris(eV) =       -862.6680  E_KS(eV) =       -862.6651  dDmax =  0.0006

+---------------------------------------------+
| OMM (Cholesky factorization)                |
+---------------------------------------------+
| k point      1 of      4                    |
+---------------------------------------------+
|             E_OMM            E_diff         |
|     1     1 -1.1793886E+001  5.1291435E-010 |
+---------------------------------------------+
| minim: icg             =     1              |
| minim: 2*Tr[(2*I-S)*S] =    32.0000000      |
+---------------------------------------------+
| k point      2 of      4                    |
+---------------------------------------------+
|             E_OMM            E_diff         |
|     1     1 -1.1793886E+001  5.1290366E-010 |
+---------------------------------------------+
| minim: icg             =     1              |
| minim: 2*Tr[(2*I-S)*S] =    32.0000000      |
+---------------------------------------------+
| k point      3 of      4                    |
+---------------------------------------------+
|             E_OMM            E_diff         |
|     1     1 -1.1793886E+001  5.1286495E-010 |
+---------------------------------------------+
| minim: icg             =     1              |
| minim: 2*Tr[(2*I-S)*S] =    32.0000000      |
+---------------------------------------------+
| k point      4 of      4                    |
+---------------------------------------------+
|             E_OMM            E_diff         |
|     1     1 -1.1793886E+001  5.1308289E-010 |
+---------------------------------------------+
| minim: icg             =     1              |
| minim: 2*Tr[(2*I-S)*S] =    32.0000000      |
+---------------------------------------------+

siesta: iscf =   14
Eharris(eV) =       -862.6680  E_KS(eV) =       -862.6658  dDmax =  0.0004

+---------------------------------------------+
| OMM (Cholesky factorization)                |
+---------------------------------------------+
| k point      1 of      4                    |
+---------------------------------------------+
|             E_OMM            E_diff         |
|     1     1 -1.1794139E+001  4.6027477E-010 |
+---------------------------------------------+
| minim: icg             =     1              |
| minim: 2*Tr[(2*I-S)*S] =    32.0000000      |
+---------------------------------------------+
| k point      2 of      4                    |
+---------------------------------------------+
|             E_OMM            E_diff         |
|     1     1 -1.1794139E+001  4.6027356E-010 |
+---------------------------------------------+
| minim: icg             =     1              |
| minim: 2*Tr[(2*I-S)*S] =    32.0000000      |
+---------------------------------------------+
| k point      3 of      4                    |
+---------------------------------------------+
|             E_OMM            E_diff         |
|     1     1 -1.1794139E+001  4.6026453E-010 |
+---------------------------------------------+
| minim: icg             =     1              |
| minim: 2*Tr[(2*I-S)*S] =    32.0000000      |
+---------------------------------------------+
| k point      4 of      4                    |
+---------------------------------------------+
|             E_OMM            E_diff         |
|     1     1 -1.1794139E+001  4.6031468E-010 |
+---------------------------------------------+
| minim: icg             =     1              |
| minim: 2*Tr[(2*I-S)*S] =    32.0000000      |
+---------------------------------------------+

siesta: iscf =   15
Eharris(eV) =       -862.6680  E_KS(eV) =       -862.6664  dDmax =  0.0003

+---------------------------------------------+
| OMM (Cholesky factorization)                |
+---------------------------------------------+
| k point      1 of      4                    |
+---------------------------------------------+
|             E_OMM            E_diff         |
|     1     1 -1.1794314E+001  4.5904498E-010 |
+---------------------------------------------+
| minim: icg             =     1              |
| minim: 2*Tr[(2*I-S)*S] =    32.0000000      |
+---------------------------------------------+
| k point      2 of      4                    |
+---------------------------------------------+
|             E_OMM            E_diff         |
|     1     1 -1.1794314E+001  4.5900657E-010 |
+---------------------------------------------+
| minim: icg             =     1              |
| minim: 2*Tr[(2*I-S)*S] =    32.0000000      |
+---------------------------------------------+
| k point      3 of      4                    |
+---------------------------------------------+
|             E_OMM            E_diff         |
|     1     1 -1.1794314E+001  4.5900341E-010 |
+---------------------------------------------+
| minim: icg             =     1              |
| minim: 2*Tr[(2*I-S)*S] =    32.0000000      |
+---------------------------------------------+
| k point      4 of      4                    |
+---------------------------------------------+
|             E_OMM            E_diff         |
|     1     1 -1.1794314E+001  4.5905040E-010 |
+---------------------------------------------+
| minim: icg             =     1              |
| minim: 2*Tr[(2*I-S)*S] =    32.0000000      |
+---------------------------------------------+

siesta: iscf =   16
Eharris(eV) =       -862.6680  E_KS(eV) =       -862.6668  dDmax =  0.0001

+---------------------------------------------+
| OMM (Cholesky factorization)                |
+---------------------------------------------+
| k point      1 of      4                    |
+---------------------------------------------+
|             E_OMM            E_diff         |
|     1     1 -1.1794428E+001  3.4009884E-010 |
+---------------------------------------------+
| minim: icg             =     1              |
| minim: 2*Tr[(2*I-S)*S] =    32.0000000      |
+---------------------------------------------+
| k point      2 of      4                    |
+---------------------------------------------+
|             E_OMM            E_diff         |
|     1     1 -1.1794428E+001  3.4008438E-010 |
+---------------------------------------------+
| minim: icg             =     1              |
| minim: 2*Tr[(2*I-S)*S] =    32.0000000      |
+---------------------------------------------+
| k point      3 of      4                    |
+---------------------------------------------+
|             E_OMM            E_diff         |
|     1     1 -1.1794428E+001  3.4008317E-010 |
+---------------------------------------------+
| minim: icg             =     1              |
| minim: 2*Tr[(2*I-S)*S] =    32.0000000      |
+---------------------------------------------+
| k point      4 of      4                    |
+---------------------------------------------+
|             E_OMM            E_diff         |
|     1     1 -1.1794428E+001  3.4010335E-010 |
+---------------------------------------------+
| minim: icg             =     1              |
| minim: 2*Tr[(2*I-S)*S] =    32.0000000      |
+---------------------------------------------+

siesta: iscf =   17
Eharris(eV) =       -862.6680  E_KS(eV) =       -862.6671  dDmax =  0.0001

+---------------------------------------------+
| OMM (Cholesky factorization)                |
+---------------------------------------------+
| k point      1 of      4                    |
+---------------------------------------------+
|             E_OMM            E_diff         |
|     1     1 -1.1794503E+001  2.7338372E-010 |
+---------------------------------------------+
| minim: icg             =     1              |
| minim: 2*Tr[(2*I-S)*S] =    32.0000000      |
+---------------------------------------------+
| k point      2 of      4                    |
+---------------------------------------------+
|             E_OMM            E_diff         |
|     1     1 -1.1794503E+001  2.7336173E-010 |
+---------------------------------------------+
| minim: icg             =     1              |
| minim: 2*Tr[(2*I-S)*S] =    32.0000000      |
+---------------------------------------------+
| k point      3 of      4                    |
+---------------------------------------------+
|             E_OMM            E_diff         |
|     1     1 -1.1794503E+001  2.7336112E-010 |
+---------------------------------------------+
| minim: icg             =     1              |
| minim: 2*Tr[(2*I-S)*S] =    32.0000000      |
+---------------------------------------------+
| k point      4 of      4                    |
+---------------------------------------------+
|             E_OMM            E_diff         |
|     1     1 -1.1794503E+001  2.7338402E-010 |
+---------------------------------------------+
| minim: icg             =     1              |
| minim: 2*Tr[(2*I-S)*S] =    32.0000000      |
+---------------------------------------------+

siesta: iscf =   18
Eharris(eV) =       -862.6680  E_KS(eV) =       -862.6673  dDmax =  0.0000


SCF Convergence by dMax criterion
max |DM_out - DM_in|:     0.00004569
SCF cycle converged after   18 iterations

stepf: Fermi-Dirac step function

Using DM_out to compute the final energy and forces

siesta: E_KS(eV) =             -862.6680

siesta: E_KS - E_eggbox =      -862.6680

siesta: Atomic forces (eV/Ang):
----------------------------------------
   Tot   -0.000000    0.000000    0.000000
----------------------------------------
   Max    0.000000
   Res    0.000000    sqrt( Sum f_i^2 / 3N )
----------------------------------------
   Max    0.000000    constrained

Stress-tensor-Voigt (kbar):       18.13       18.13       18.13       -0.00        0.00       -0.00
(Free)E + p*V (eV/cell)     -864.4796
Target enthalpy (eV/cell)     -862.6680

siesta: Program's energy decomposition (eV):
siesta: Ebs     =      -320.947309
siesta: Eions   =      1523.208495
siesta: Ena     =       467.239233
siesta: Ekin    =       332.625613
siesta: Enl     =       108.756781
siesta: DEna    =        11.208448
siesta: DUscf   =         1.610343
siesta: DUext   =         0.000000
siesta: Exc     =      -260.899895
siesta: eta*DQ  =         0.000000
siesta: Emadel  =         0.000000
siesta: Emeta   =         0.000000
siesta: Emolmec =         0.000000
siesta: Ekinion =         0.000000
siesta: Eharris =      -862.667972
siesta: Etot    =      -862.667972
siesta: FreeEng =      -862.667972

siesta: Final energy (eV):
siesta:  Band Struct. =    -320.947309
siesta:       Kinetic =     332.625613
siesta:       Hartree =      59.910573
siesta:    Ext. field =       0.000000
siesta:   Exch.-corr. =    -260.899895
siesta:  Ion-electron =    -433.201337
siesta:       Ion-ion =    -561.102926
siesta:       Ekinion =       0.000000
siesta:         Total =    -862.667972

siesta: Stress tensor (static) (eV/Ang**3):
siesta:     0.011315   -0.000000   -0.000000
siesta:    -0.000000    0.011315    0.000000
siesta:    -0.000000    0.000000    0.011315

siesta: Cell volume =        160.103007 Ang**3

siesta: Pressure (static):
siesta:                Solid            Molecule  Units
siesta:          -0.00012324         -0.00012324  Ry/Bohr**3
siesta:          -0.01131530         -0.01131530  eV/Ang**3
siesta:         -18.12930006        -18.12930007  kBar
(Free)E+ p_basis*V_orbitals  =        -855.153599
(Free)Eharris+ p_basis*V_orbitals  =        -855.153599
>> End of run:  10-JUN-2018  21:51:59
Job completed
