
                           ***********************       
                           *  WELCOME TO SIESTA  *       
                           ***********************       

reinit: Reading from ../OMM_si.fdf

reinit: -----------------------------------------------------------------------
reinit: System Name: OMM_si
reinit: -----------------------------------------------------------------------
reinit: System Label: OMM_si
reinit: -----------------------------------------------------------------------
Siesta Version: siesta-4.1--731
Architecture  : x86_64-linux-n-62-18-14
Compiler flags: mpifort -m64 -fPIC -O3 -march=native -ftree-vectorize -fexpensive-optimizatioons -funroll-loops -fprefetch-loop-arrays -fno-second-underscore  -flto -fuse-linker-plugin
PP flags      : -I/zdata/groups/common/nicpa/2016-oct/generic/build-tools/1.0/include -I/zdatta/groups/common/nicpa/2016-oct/generic/gmp/6.1.0/include -I/zdata/groups/common/nicpa/2016-oct/generic/mpfr/3.1.4/include -I/zdata/groups/common/nicpa/2016-oct/generic/mpc/1.0.3/include -I/zdata/groups/common/nicpa/2016-oct/generic/isl/0.16.1/include -I/zdata/groups/common/nicpa/2016-oct/generic/gcc/6.2.0/include -I/zdata/groups/common/nicpa/2016-oct/generic/numactl/2.0.11/include -I/zdata/groups/common/nicpa/2016-oct/XeonE5-2665/zlib/1.2.8/gnu-6.2.0/include -I/zdata/groups/common/nicpa/2016-oct/XeonE5-2665/libxml2/2.9.4/gnu-6.2.0/include -I/zdata/groups/common/nicpa/2016-oct/XeonE5-2665/hwloc/1.11.4/gnu-6.2.0/include -I/zdata/groups/common/nicpa/2016-oct/XeonE5-2665/openmpi/2.0.1/gnu-6.2.0/include -I/zdata/groups/common/nicpa/2016-oct/XeonE5-2665/hdf5/1.8.17/gnu-6.2.0/include -I/zdata/groups/common/nicpa/2016-oct/XeonE5-2665/pnetcdf/1.7.0/gnu-6.2.0/include -I/zdata/groups/common/nicpa/2016-oct/XeonE5-2665/netcdf/4.4.1/gnu-6.2.0/include -I/zdata/groups/common/nicpa/2016-oct/XeonE5-2665/flook/0.7.0/gnu-6.2.0/include -I/zdata/groups/common/nicpa/2016-oct/XeonE5-2665/parmetis/4.0.3/gnu-6.2.0/include -I/zdata/groups/common/nicpa/2016-oct/XeonE5-2665/scalapack/204/gnu-6.2.0/include -I/zdata/groups/common/nicpa/2016-oct/XeonE5-2665/openblas/0.2.19/gnu-6.2.0/include -I/zdata/groups/common/nicpa/2016-oct/XeonE5-2665/mumps/5.0.2/gnu-6.2.0/include -I/zdata/groups/common/nicpa/2016-oct/XeonE5-2665/fftw/3.3.5/gnu-6.2.0/include -DMPI -DFC_HAVE_FLUSH -DFC_HAVE_ABORT -DCDF -DCDF4 -DSIESTA__METIS -DSIESTA__MUMPS -DTS_NOCHECKS -DNCDF -DNCDF_4 -DNCDF_PARALLEL -DSIESTA__FLOOK
Libraries     : -lnetcdff -lnetcdf -lpnetcdf -lhdf5_hl -lhdf5 -lz  -lzmumps -lmumps_common -llpord -lparmetis -lmetis -lscalapack -lopenblas  -lmetis -flto -fuse-linker-plugin  -L/zdata/groups/common/nicpa/2016-oct/XeonE5-2665/flook/0.7.0/gnu-6.2.0/lib -Wl,-rpath=/zdata/groups/common/nicpa/2016-oct/XeonE5-2665/flook/0.7.0/gnu-6.2.0/lib -lflookall -ldl
PARALLEL version
NetCDF support
NetCDF-4 support
NetCDF-4 MPI-IO support
METIS ordering support

* Running on 8 nodes in parallel
>> Start of run:   2-JUL-2017  11:57:52

initatom: Reading input for the pseudopotentials and atomic orbitals ----------
Species number:   1 Atomic number:   14 Label: Si

Ground state valence configuration:   3s02  3p02
Reading pseudopotential information in formatted form from Si.psf

Valence configuration for pseudopotential generation:
3s( 2.00) rc: 1.89
3p( 2.00) rc: 1.89
3d( 0.00) rc: 1.89
4f( 0.00) rc: 1.89
For Si, standard SIESTA heuristics set lmxkb to 3
 (one more than the basis l, including polarization orbitals).
Use PS.lmax or PS.KBprojectors blocks to override.

<basis_specs>
===============================================================================
Si                   Z=  14    Mass=  28.090        Charge= 0.11629    
Lmxo=2 Lmxkb= 3    BasisType=split      Semic=F
L=0  Nsemic=0  Cnfigmx=3
          n=1  nzeta=2  polorb=0
            splnorm:   0.15000    
               vcte:    47.722    
               rinn:    5.1518    
               qcoe:    0.0000    
               qyuk:    0.0000    
               qwid:   0.10000E-01
                rcs:    8.0000      1.8157    
            lambdas:    1.0000      1.0000    
L=1  Nsemic=0  Cnfigmx=3
          n=1  nzeta=2  polorb=0
            splnorm:   0.15000    
               vcte:    16.480    
               rinn:    5.1082    
               qcoe:    0.0000    
               qyuk:    0.0000    
               qwid:   0.10000E-01
                rcs:    8.0000      4.0539    
            lambdas:    1.0000      1.0000    
L=2  Nsemic=0  Cnfigmx=3
          n=1  nzeta=1  polorb=0
            splnorm:   0.15000    
               vcte:    9.5015    
               rinn:   0.18000E-03
               qcoe:    0.0000    
               qyuk:    0.0000    
               qwid:   0.10000E-01
                rcs:    4.4469    
            lambdas:    1.0000    
-------------------------------------------------------------------------------
L=0  Nkbl=1  erefs: 0.17977+309
L=1  Nkbl=1  erefs: 0.17977+309
L=2  Nkbl=1  erefs: 0.17977+309
L=3  Nkbl=1  erefs: 0.17977+309
===============================================================================
</basis_specs>

atom: Called for Si                    (Z =  14)

read_vps: Pseudopotential generation method:
read_vps: ATM3      Troullier-Martins                       
Total valence charge:    4.00000

xc_check: Exchange-correlation functional:
xc_check: Ceperley-Alder
V l=0 = -2*Zval/r beyond r=  2.5494
V l=1 = -2*Zval/r beyond r=  2.5494
V l=2 = -2*Zval/r beyond r=  2.5494
V l=3 = -2*Zval/r beyond r=  2.5494
All V_l potentials equal beyond r=  1.8652
This should be close to max(r_c) in ps generation
All pots = -2*Zval/r beyond r=  2.5494
Using large-core scheme for Vlocal

atom: Estimated core radius    2.54944

atom: Including non-local core corrections could be a good idea
atom: Maximum radius for 4*pi*r*r*local-pseudopot. charge    2.85303
atom: Maximum radius for r*vlocal+2*Zval:    2.58151
GHOST: No ghost state for L =  0
GHOST: No ghost state for L =  1
GHOST: No ghost state for L =  2
GHOST: No ghost state for L =  3

KBgen: Kleinman-Bylander projectors: 
   l= 0   rc=  1.936440   el= -0.796617   Ekb=  4.661340   kbcos=  0.299756
   l= 1   rc=  1.936440   el= -0.307040   Ekb=  1.494238   kbcos=  0.301471
   l= 2   rc=  1.936440   el=  0.002313   Ekb= -2.808672   kbcos= -0.054903
   l= 3   rc=  1.936440   el=  0.003402   Ekb= -0.959059   kbcos= -0.005513

KBgen: Total number of  Kleinman-Bylander projectors:   16
atom: -------------------------------------------------------------------------

atom: SANKEY-TYPE ORBITALS:
atom: Selected multiple-zeta basis: split     

atom: basis set generated (by rescaling the valence charge)
atom: for a cation of charge   0.1163

SPLIT: Orbitals with angular momentum L= 0

SPLIT: Basis orbitals for state 3s

   izeta = 1
                 lambda =    1.000000
                     rc =    8.052001
                 energy =   -0.880603
                kinetic =    0.521474
    potential(screened) =   -1.402076
       potential(ionic) =   -3.764519

   izeta = 2
                 rmatch =    1.841990
              splitnorm =    1.106433
                 energy =    5.410922
                kinetic =    4.223643
    potential(screened) =    1.187279
       potential(ionic) =   -1.853088

SPLIT: Orbitals with angular momentum L= 1

SPLIT: Basis orbitals for state 3p

   izeta = 1
                 lambda =    1.000000
                     rc =    8.052001
                 energy =   -0.377399
                kinetic =    0.856566
    potential(screened) =   -1.233964
       potential(ionic) =   -3.404940

   izeta = 2
                 rmatch =    4.099641
              splitnorm =    0.346377
                 energy =   -0.117443
                kinetic =    1.651168
    potential(screened) =   -1.768612
       potential(ionic) =   -4.245213

SPLIT: Orbitals with angular momentum L= 2

SPLIT: Basis orbitals for state 3d

   izeta = 1
                 lambda =    1.000000
                     rc =    4.530823
                 energy =    0.710805
                kinetic =    3.090474
    potential(screened) =   -2.379669
       potential(ionic) =   -4.824413
atom: Total number of Sankey-type orbitals: 13

atm_pop: Valence configuration (for local Pseudopot. screening):
 3s( 2.00)                                                            
 3p( 2.00)                                                            
 3d( 0.00)                                                            
Vna: chval, zval:    4.00000   4.00000

Vna:  Cut-off radius for the neutral-atom potential:   8.052001

atom: _________________________________________________________________________

prinput: Basis input ----------------------------------------------------------

PAO.BasisType split     

%block ChemicalSpeciesLabel
    1   14 Si                      # Species index, atomic number, species label
%endblock ChemicalSpeciesLabel

%block PAO.Basis                 # Define Basis set
Si                    3   0.116            # Label, l-shells, ionic net charge
 n=3   0   2                         # n, l, Nzeta 
   8.052      1.842   
   1.000      1.000   
 n=3   1   2                         # n, l, Nzeta 
   8.052      4.100   
   1.000      1.000   
 n=3   2   1                         # n, l, Nzeta 
   4.531   
   1.000   
%endblock PAO.Basis

prinput: ----------------------------------------------------------------------

Dumping basis to NetCDF file Si.ion.nc
coor:   Atomic-coordinates input format  =     Fractional

siesta: Atomic coordinates (Bohr) and species
siesta:      0.00000   0.00000   0.00000  1        1
siesta:      2.56530   2.56530   2.56530  1        2
siesta:      5.13061   5.13061   0.00000  1        3
siesta:      7.69591   7.69591   2.56530  1        4
siesta:      5.13061   0.00000   5.13061  1        5
siesta:      0.00000   5.13061   5.13061  1        6
siesta:      7.69591   2.56530   7.69591  1        7
siesta:      2.56530   7.69591   7.69591  1        8

siesta: System type = bulk      

initatomlists: Number of atoms, orbitals, and projectors:      8   104   128

siesta: ******************** Simulation parameters ****************************
siesta:
siesta: The following are some of the parameters of the simulation.
siesta: A complete list of the parameters used, including default values,
siesta: can be found in file out.fdf
siesta:
redata: Spin configuration                          = none
redata: Number of spin components                   = 1
redata: Time-Reversal Symmetry                      = T
redata: Spin-spiral                                 = F
redata: Long output                                 =   F
redata: Number of Atomic Species                    =        1
redata: Charge density info will appear in .RHO file
redata: Write Mulliken Pop.                         = NO
redata: Mesh Cutoff                                 =   100.0000 Ry
redata: Net charge of the system                    =     0.0000 |e|
redata: Min. number of SCF Iter                     =        0
redata: Max. number of SCF Iter                     =       50
redata: SCF mix quantity                            = Hamiltonian
redata: Mix DM or H after convergence               =   F
redata: Recompute H after scf cycle                 =   F
redata: Mix DM in first SCF step                    =   T
redata: Write Pulay info on disk                    =   F
redata: New DM Mixing Weight                        =     0.2500
redata: New DM Occupancy tolerance                  = 0.000000000001
redata: No kicks to SCF
redata: DM Mixing Weight for Kicks                  =     0.5000
redata: Require Harris convergence for SCF          =   F
redata: Harris energy tolerance for SCF             =     0.000100 eV
redata: Require DM convergence for SCF              =   T
redata: DM tolerance for SCF                        =     0.0001
redata: Require EDM convergence for SCF             =   F
redata: EDM tolerance for SCF                       =     0.001000 eV
redata: Require H convergence for SCF               =   T
redata: Hamiltonian tolerance for SCF               =     0.001000 eV
redata: Require (free) Energy convergence for SCF   =   F
redata: (free) Energy tolerance for SCF             =     0.000100 eV
redata: Using Saved Data (generic)                  =   F
redata: Use continuation files for DM               =   F
redata: Neglect nonoverlap interactions             =   F
redata: Method of Calculation                       = Orbital Minimization Method
redata: Fix the spin of the system                  =   F
redata: Dynamics option                             = Single-point calculation
mix.SCF: Pulay mixing                            = Pulay
mix.SCF:    Variant                              = stable
mix.SCF:    History steps                        = 2
mix.SCF:    Linear mixing weight                 =     0.250000
mix.SCF:    Mixing weight                        =     0.250000
mix.SCF:    SVD condition                        = 0.1000E-07
redata: Save all siesta data in one NC              =   F
redata: ***********************************************************************

%block SCF.Mixers
  Pulay
%endblock SCF.Mixers

%block SCF.Mixer.Pulay
  # Mixing method
  method pulay
  variant stable

  # Mixing options
  weight 0.2500
  weight.linear 0.2500
  history 2
%endblock SCF.Mixer.Pulay

DM_history_depth set to one: no extrapolation allowed by default for geometry relaxation
Size of DM history Fstack: 1
Total number of electrons:    32.000000
Total ionic charge:    32.000000

* ProcessorY, Blocksize:    2  13


* Orbital distribution balance (max,min):    13    13

 Kpoints in:            4 . Kpoints trimmed:            4

siesta: k-grid: Number of k-points =     4
siesta: k-grid: Cutoff (effective) =     5.430 Ang
siesta: k-grid: Supercell and displacements
siesta: k-grid:    2   0   0      0.500
siesta: k-grid:    0   2   0      0.500
siesta: k-grid:    0   0   2      0.500

superc: Internal auxiliary supercell:     5 x     5 x     5  =     125
superc: Number of atoms, orbitals, and projectors:   1000  13000  16000


                     ====================================
                        Single-point calculation
                     ====================================

superc: Internal auxiliary supercell:     5 x     5 x     5  =     125
superc: Number of atoms, orbitals, and projectors:   1000  13000  16000

outcell: Unit cell vectors (Ang):
        5.430000    0.000000    0.000000
        0.000000    5.430000    0.000000
        0.000000    0.000000    5.430000

outcell: Cell vector modules (Ang)   :    5.430000    5.430000    5.430000
outcell: Cell angles (23,13,12) (deg):     90.0000     90.0000     90.0000
outcell: Cell volume (Ang**3)        :    160.1030
<dSpData1D:S at geom step 0
  <sparsity:sparsity for geom step 0
    nrows_g=104 nrows=13 sparsity=.8015 nnzs=8669, refcount: 7>
  <dData1D:(new from dSpData1D) n=8669, refcount: 1>
refcount: 1>
new_DM -- step:     1
Initializing Density Matrix...
DM filled with atomic data:
<dSpData2D:DM initialized from atoms
  <sparsity:sparsity for geom step 0
    nrows_g=104 nrows=13 sparsity=.8015 nnzs=8669, refcount: 8>
  <dData2D:DM n=8669 m=1, refcount: 1>
refcount: 1>

No. of atoms with KB's overlaping orbs in proc 0. Max # of overlaps:      29     157
New grid distribution:   1
           1       1:   18    1:    9    1:    5
           2       1:   18    1:    9    6:   10
           3       1:   18    1:    9   11:   14
           4       1:   18    1:    9   15:   18
           5       1:   18   10:   18    1:    5
           6       1:   18   10:   18    6:   10
           7       1:   18   10:   18   11:   14
           8       1:   18   10:   18   15:   18

InitMesh: MESH =    36 x    36 x    36 =       46656
InitMesh: (bp) =    18 x    18 x    18 =        5832
InitMesh: Mesh cutoff (required, used) =   100.000   121.481 Ry
ExtMesh (bp) on 0 =    78 x    69 x    65 =      349830
New grid distribution:   2
           1       1:    9   10:   18   10:   18
           2      10:   18    1:    9    1:    9
           3      10:   18    1:    9   10:   18
           4      10:   18   10:   18    1:    9
           5       1:    9    1:    9   10:   18
           6       1:    9    1:    9    1:    9
           7      10:   18   10:   18   10:   18
           8       1:    9   10:   18    1:    9
New grid distribution:   3
           1       1:    9   10:   18   10:   18
           2      10:   18    1:    9    1:    9
           3      10:   18    1:    9   10:   18
           4      10:   18   10:   18    1:    9
           5       1:    9    1:    9   10:   18
           6       1:    9    1:    9    1:    9
           7      10:   18   10:   18   10:   18
           8       1:    9   10:   18    1:    9
Setting up quadratic distribution...
ExtMesh (bp) on 0 =    69 x    69 x    69 =      328509
PhiOnMesh: Number of (b)points on node 0 =                  729
PhiOnMesh: nlist on node 0 =                69169
+---------------------------------------------+
| OMM (Cholesky factorization)                |
+---------------------------------------------+
| k point      1 of      4                    |
+---------------------------------------------+
|             E_OMM            E_diff         |
|     1     1  7.0373512E-005  1.5401384E+000 |
|     1     2 -2.2827326E-004  3.7827391E+000 |
|     1     3 -2.0792815E+000  1.9995609E+000 |
|     1     4 -2.0794948E+000  1.0257044E-004 |
|     1     5 -5.5771440E+000  9.1362524E-001 |
|     1     6 -7.6438095E+000  3.1263487E-001 |
|     1     7 -9.3085315E+000  1.9640025E-001 |
|     1     8 -1.0266046E+001  9.7832460E-002 |
|     1     9 -1.0794901E+001  5.0221349E-002 |
|     1    10 -1.1193715E+001  3.6274630E-002 |
|     1    11 -1.1464234E+001  2.3878492E-002 |
|     1    12 -1.1635509E+001  1.4829179E-002 |
|     1    13 -1.1720143E+001  7.2474500E-003 |
|     1    14 -1.1787403E+001  5.7223397E-003 |
|     1    15 -1.1863861E+001  6.4654531E-003 |
|     1    16 -1.1902142E+001  3.2214855E-003 |
|     1    17 -1.1910433E+001  6.9642167E-004 |
|     1    18 -1.1914854E+001  3.7108581E-004 |
|     1    19 -1.1923501E+001  7.2543315E-004 |
|     1    20 -1.1938319E+001  1.2420536E-003 |
|     1    21 -1.1954136E+001  1.3239778E-003 |
|     1    22 -1.1979789E+001  2.1437027E-003 |
|     1    23 -1.2000940E+001  1.7639615E-003 |
|     1    24 -1.2036878E+001  2.9901381E-003 |
|     1    25 -1.2073970E+001  3.0767636E-003 |
|     1    26 -1.2095189E+001  1.7558725E-003 |
|     1    27 -1.2103818E+001  7.1321609E-004 |
|     1    28 -1.2106450E+001  2.1742772E-004 |
|     1    29 -1.2108486E+001  1.6809459E-004 |
|     1    30 -1.2109625E+001  9.4081052E-005 |
|     1    31 -1.2110108E+001  3.9878302E-005 |
|     1    32 -1.2110398E+001  2.3973172E-005 |
|     1    33 -1.2110625E+001  1.8710533E-005 |
|     1    34 -1.2110785E+001  1.3242092E-005 |
|     1    35 -1.2110872E+001  7.2131064E-006 |
|     1    36 -1.2110930E+001  4.7404236E-006 |
|     1    37 -1.2110968E+001  3.1677181E-006 |
|     1    38 -1.2110995E+001  2.2491833E-006 |
|     1    39 -1.2111005E+001  8.2108556E-007 |
|     1    40 -1.2111010E+001  4.1272471E-007 |
|     1    41 -1.2111014E+001  2.9631645E-007 |
|     1    42 -1.2111016E+001  1.6767464E-007 |
|     1    43 -1.2111017E+001  8.9246936E-008 |
|     1    44 -1.2111018E+001  6.1736501E-008 |
|     1    45 -1.2111018E+001  4.2749348E-008 |
|     1    46 -1.2111019E+001  2.6923100E-008 |
|     1    47 -1.2111019E+001  1.6495279E-008 |
|     1    48 -1.2111019E+001  9.2433202E-009 |
|     1    49 -1.2111019E+001  5.7141009E-009 |
|     1    50 -1.2111019E+001  3.6037688E-009 |
|     1    51 -1.2111019E+001  1.4724829E-009 |
|     1    52 -1.2111019E+001  1.0498711E-009 |
|     1    53 -1.2111019E+001  6.5951929E-010 |
+---------------------------------------------+
| minim: icg             =    53              |
| minim: 2*Tr[(2*I-S)*S] =    32.0000000      |
+---------------------------------------------+
| k point      2 of      4                    |
+---------------------------------------------+
|             E_OMM            E_diff         |
|     1     1 -1.0516280E+001  3.1143632E-001 |
|     1     2 -1.1388270E+001  7.9617174E-002 |
|     1     3 -1.1767267E+001  3.2734892E-002 |
|     1     4 -1.1915372E+001  1.2507547E-002 |
|     1     5 -1.2004859E+001  7.4820913E-003 |
|     1     6 -1.2052893E+001  3.9931999E-003 |
|     1     7 -1.2078413E+001  2.1151150E-003 |
|     1     8 -1.2094519E+001  1.3325711E-003 |
|     1     9 -1.2102749E+001  6.8023894E-004 |
|     1    10 -1.2106678E+001  3.2460545E-004 |
|     1    11 -1.2108611E+001  1.5961772E-004 |
|     1    12 -1.2109719E+001  9.1482250E-005 |
|     1    13 -1.2110299E+001  4.7930405E-005 |
|     1    14 -1.2110645E+001  2.8585951E-005 |
|     1    15 -1.2110834E+001  1.5544200E-005 |
|     1    16 -1.2110936E+001  8.4214361E-006 |
|     1    17 -1.2110983E+001  3.9013497E-006 |
|     1    18 -1.2111003E+001  1.6324743E-006 |
|     1    19 -1.2111011E+001  7.0010523E-007 |
|     1    20 -1.2111015E+001  3.1678598E-007 |
|     1    21 -1.2111017E+001  1.5775982E-007 |
|     1    22 -1.2111018E+001  9.1737228E-008 |
|     1    23 -1.2111019E+001  4.4671460E-008 |
|     1    24 -1.2111019E+001  2.1878980E-008 |
|     1    25 -1.2111019E+001  1.4435643E-008 |
|     1    26 -1.2111019E+001  7.5325727E-009 |
|     1    27 -1.2111019E+001  4.2660253E-009 |
|     1    28 -1.2111019E+001  2.0887968E-009 |
|     1    29 -1.2111019E+001  1.0564738E-009 |
|     1    30 -1.2111019E+001  4.2534285E-010 |
+---------------------------------------------+
| minim: icg             =    30              |
| minim: 2*Tr[(2*I-S)*S] =    32.0000000      |
+---------------------------------------------+
| k point      3 of      4                    |
+---------------------------------------------+
|             E_OMM            E_diff         |
|     1     1 -1.0511761E+001  3.0892229E-001 |
|     1     2 -1.1379218E+001  7.9252498E-002 |
|     1     3 -1.1762596E+001  3.3132906E-002 |
|     1     4 -1.1913418E+001  1.2740496E-002 |
|     1     5 -1.2002598E+001  7.4577636E-003 |
|     1     6 -1.2050197E+001  3.9578592E-003 |
|     1     7 -1.2076489E+001  2.1795412E-003 |
|     1     8 -1.2093410E+001  1.4001609E-003 |
|     1     9 -1.2102142E+001  7.2175213E-004 |
|     1    10 -1.2106389E+001  3.5088306E-004 |
|     1    11 -1.2108419E+001  1.6770879E-004 |
|     1    12 -1.2109614E+001  9.8660799E-005 |
|     1    13 -1.2110244E+001  5.1973809E-005 |
|     1    14 -1.2110619E+001  3.1008921E-005 |
|     1    15 -1.2110820E+001  1.6614537E-005 |
|     1    16 -1.2110929E+001  8.9929085E-006 |
|     1    17 -1.2110980E+001  4.2062242E-006 |
|     1    18 -1.2111001E+001  1.7524670E-006 |
|     1    19 -1.2111011E+001  7.6255480E-007 |
|     1    20 -1.2111015E+001  3.2808707E-007 |
|     1    21 -1.2111017E+001  1.7080371E-007 |
|     1    22 -1.2111018E+001  1.0084945E-007 |
|     1    23 -1.2111018E+001  5.0255463E-008 |
|     1    24 -1.2111019E+001  2.6026263E-008 |
|     1    25 -1.2111019E+001  1.5667150E-008 |
|     1    26 -1.2111019E+001  8.2787260E-009 |
|     1    27 -1.2111019E+001  4.6192432E-009 |
|     1    28 -1.2111019E+001  2.2527917E-009 |
|     1    29 -1.2111019E+001  1.1888713E-009 |
|     1    30 -1.2111019E+001  4.8570676E-010 |
+---------------------------------------------+
| minim: icg             =    30              |
| minim: 2*Tr[(2*I-S)*S] =    32.0000000      |
+---------------------------------------------+
| k point      4 of      4                    |
+---------------------------------------------+
|             E_OMM            E_diff         |
|     1     1 -1.0419851E+001  3.1057549E-001 |
|     1     2 -1.1318813E+001  8.2706259E-002 |
|     1     3 -1.1747094E+001  3.7135429E-002 |
|     1     4 -1.1921076E+001  1.4701768E-002 |
|     1     5 -1.2010079E+001  7.4382575E-003 |
|     1     6 -1.2054922E+001  3.7267654E-003 |
|     1     7 -1.2080684E+001  2.1347658E-003 |
|     1     8 -1.2096552E+001  1.3127099E-003 |
|     1     9 -1.2104289E+001  6.3934305E-004 |
|     1    10 -1.2107923E+001  3.0018585E-004 |
|     1    11 -1.2109444E+001  1.2565983E-004 |
|     1    12 -1.2110170E+001  5.9959899E-005 |
|     1    13 -1.2110519E+001  2.8752717E-005 |
|     1    14 -1.2110741E+001  1.8353324E-005 |
|     1    15 -1.2110873E+001  1.0910042E-005 |
|     1    16 -1.2110949E+001  6.2825764E-006 |
|     1    17 -1.2110986E+001  3.0632549E-006 |
|     1    18 -1.2111003E+001  1.4112872E-006 |
|     1    19 -1.2111012E+001  7.1345234E-007 |
|     1    20 -1.2111016E+001  2.9227718E-007 |
|     1    21 -1.2111017E+001  1.4919053E-007 |
|     1    22 -1.2111018E+001  8.2709502E-008 |
|     1    23 -1.2111019E+001  3.1474548E-008 |
|     1    24 -1.2111019E+001  1.7084319E-008 |
|     1    25 -1.2111019E+001  8.3402362E-009 |
|     1    26 -1.2111019E+001  4.2644664E-009 |
|     1    27 -1.2111019E+001  2.8052979E-009 |
|     1    28 -1.2111019E+001  1.7007187E-009 |
|     1    29 -1.2111019E+001  9.6573289E-010 |
+---------------------------------------------+
| minim: icg             =    29              |
| minim: 2*Tr[(2*I-S)*S] =    32.0000000      |
+---------------------------------------------+

siesta: Program's energy decomposition (eV):
siesta: Ebs     =      -318.366218
siesta: Eions   =      1523.208495
siesta: Ena     =       467.238590
siesta: Ekin    =       336.402170
siesta: Enl     =       110.116637
siesta: Eso     =         0.000000
siesta: Eldau   =         0.000000
siesta: DEna    =         6.906604
siesta: DUscf   =         1.925521
siesta: DUext   =         0.000000
siesta: Exc     =      -261.969198
siesta: eta*DQ  =         0.000000
siesta: Emadel  =         0.000000
siesta: Emeta   =         0.000000
siesta: Emolmec =         0.000000
siesta: Ekinion =         0.000000
siesta: Eharris =      -853.854698
siesta: Etot    =      -862.588171
siesta: FreeEng =      -862.588171

siesta: iscf =    1
Eharris(eV) =       -853.8547  E_KS(eV) =       -862.5882  dDmax =   0.779047

timer: Routine,Calls,Time,% = IterSCF        1       0.408  26.07
+---------------------------------------------+
| OMM (Cholesky factorization)                |
+---------------------------------------------+
| k point      1 of      4                    |
+---------------------------------------------+
|             E_OMM            E_diff         |
|     1     1 -1.2008367E+001  1.5839878E-005 |
|     1     2 -1.2008408E+001  3.4224686E-006 |
|     1     3 -1.2008417E+001  6.8187278E-007 |
|     1     4 -1.2008421E+001  3.5541224E-007 |
|     1     5 -1.2008422E+001  1.1373536E-007 |
|     1     6 -1.2008423E+001  4.5926002E-008 |
|     1     7 -1.2008423E+001  2.6385968E-008 |
|     1     8 -1.2008423E+001  8.8621715E-009 |
|     1     9 -1.2008423E+001  5.0855530E-009 |
|     1    10 -1.2008423E+001  1.6590221E-009 |
|     1    11 -1.2008423E+001  4.2094460E-010 |
+---------------------------------------------+
| minim: icg             =    11              |
| minim: 2*Tr[(2*I-S)*S] =    32.0000000      |
+---------------------------------------------+
| k point      2 of      4                    |
+---------------------------------------------+
|             E_OMM            E_diff         |
|     1     1 -1.2008367E+001  1.5840200E-005 |
|     1     2 -1.2008408E+001  3.4154208E-006 |
|     1     3 -1.2008417E+001  6.8673268E-007 |
|     1     4 -1.2008421E+001  3.5666322E-007 |
|     1     5 -1.2008422E+001  1.1310984E-007 |
|     1     6 -1.2008423E+001  4.6217001E-008 |
|     1     7 -1.2008423E+001  2.6416544E-008 |
|     1     8 -1.2008423E+001  8.7755724E-009 |
|     1     9 -1.2008423E+001  5.0889805E-009 |
|     1    10 -1.2008423E+001  1.6747677E-009 |
|     1    11 -1.2008423E+001  3.7526198E-010 |
+---------------------------------------------+
| minim: icg             =    11              |
| minim: 2*Tr[(2*I-S)*S] =    32.0000000      |
+---------------------------------------------+
| k point      3 of      4                    |
+---------------------------------------------+
|             E_OMM            E_diff         |
|     1     1 -1.2008367E+001  1.5839971E-005 |
|     1     2 -1.2008408E+001  3.4138159E-006 |
|     1     3 -1.2008417E+001  6.8797549E-007 |
|     1     4 -1.2008421E+001  3.5700388E-007 |
|     1     5 -1.2008422E+001  1.1304037E-007 |
|     1     6 -1.2008423E+001  4.6273181E-008 |
|     1     7 -1.2008423E+001  2.6429659E-008 |
|     1     8 -1.2008423E+001  8.7898458E-009 |
|     1     9 -1.2008423E+001  5.0684701E-009 |
|     1    10 -1.2008423E+001  1.6725423E-009 |
|     1    11 -1.2008423E+001  3.7514009E-010 |
+---------------------------------------------+
| minim: icg             =    11              |
| minim: 2*Tr[(2*I-S)*S] =    32.0000000      |
+---------------------------------------------+
| k point      4 of      4                    |
+---------------------------------------------+
|             E_OMM            E_diff         |
|     1     1 -1.2008367E+001  1.5841668E-005 |
|     1     2 -1.2008408E+001  3.4217013E-006 |
|     1     3 -1.2008417E+001  6.8146014E-007 |
|     1     4 -1.2008421E+001  3.5496043E-007 |
|     1     5 -1.2008422E+001  1.1345828E-007 |
|     1     6 -1.2008423E+001  4.5939461E-008 |
|     1     7 -1.2008423E+001  2.6353275E-008 |
|     1     8 -1.2008423E+001  8.7785524E-009 |
|     1     9 -1.2008423E+001  5.1057817E-009 |
|     1    10 -1.2008423E+001  1.6800334E-009 |
|     1    11 -1.2008423E+001  3.8828863E-010 |
+---------------------------------------------+
| minim: icg             =    11              |
| minim: 2*Tr[(2*I-S)*S] =    32.0000000      |
+---------------------------------------------+

siesta: iscf =    2
Eharris(eV) =       -862.6756  E_KS(eV) =       -862.6330  dDmax =   0.015221

+---------------------------------------------+
| OMM (Cholesky factorization)                |
+---------------------------------------------+
| k point      1 of      4                    |
+---------------------------------------------+
|             E_OMM            E_diff         |
|     1     1 -1.1799529E+001  6.7062783E-005 |
|     1     2 -1.1799692E+001  1.3862951E-005 |
|     1     3 -1.1799733E+001  3.4246406E-006 |
|     1     4 -1.1799753E+001  1.6862365E-006 |
|     1     5 -1.1799758E+001  4.9373104E-007 |
|     1     6 -1.1799761E+001  2.1655234E-007 |
|     1     7 -1.1799762E+001  1.1829504E-007 |
|     1     8 -1.1799763E+001  3.8222887E-008 |
|     1     9 -1.1799763E+001  2.6410589E-008 |
|     1    10 -1.1799763E+001  7.7189766E-009 |
|     1    11 -1.1799763E+001  1.8327919E-009 |
|     1    12 -1.1799763E+001  1.0533789E-009 |
|     1    13 -1.1799763E+001  3.7475619E-010 |
+---------------------------------------------+
| minim: icg             =    13              |
| minim: 2*Tr[(2*I-S)*S] =    32.0000000      |
+---------------------------------------------+
| k point      2 of      4                    |
+---------------------------------------------+
|             E_OMM            E_diff         |
|     1     1 -1.1799529E+001  6.7062360E-005 |
|     1     2 -1.1799692E+001  1.3859619E-005 |
|     1     3 -1.1799733E+001  3.4281447E-006 |
|     1     4 -1.1799753E+001  1.6866732E-006 |
|     1     5 -1.1799758E+001  4.9368113E-007 |
|     1     6 -1.1799761E+001  2.1674272E-007 |
|     1     7 -1.1799762E+001  1.1831804E-007 |
|     1     8 -1.1799763E+001  3.8219091E-008 |
|     1     9 -1.1799763E+001  2.6407417E-008 |
|     1    10 -1.1799763E+001  7.7275060E-009 |
|     1    11 -1.1799763E+001  1.8247570E-009 |
|     1    12 -1.1799763E+001  1.0523753E-009 |
|     1    13 -1.1799763E+001  3.7725428E-010 |
+---------------------------------------------+
| minim: icg             =    13              |
| minim: 2*Tr[(2*I-S)*S] =    32.0000000      |
+---------------------------------------------+
| k point      3 of      4                    |
+---------------------------------------------+
|             E_OMM            E_diff         |
|     1     1 -1.1799529E+001  6.7062396E-005 |
|     1     2 -1.1799692E+001  1.3859957E-005 |
|     1     3 -1.1799733E+001  3.4278278E-006 |
|     1     4 -1.1799753E+001  1.6866056E-006 |
|     1     5 -1.1799758E+001  4.9370053E-007 |
|     1     6 -1.1799761E+001  2.1671554E-007 |
|     1     7 -1.1799762E+001  1.1831990E-007 |
|     1     8 -1.1799763E+001  3.8223223E-008 |
|     1     9 -1.1799763E+001  2.6391961E-008 |
|     1    10 -1.1799763E+001  7.7269201E-009 |
|     1    11 -1.1799763E+001  1.8246014E-009 |
|     1    12 -1.1799763E+001  1.0522479E-009 |
|     1    13 -1.1799763E+001  3.7715281E-010 |
+---------------------------------------------+
| minim: icg             =    13              |
| minim: 2*Tr[(2*I-S)*S] =    32.0000000      |
+---------------------------------------------+
| k point      4 of      4                    |
+---------------------------------------------+
|             E_OMM            E_diff         |
|     1     1 -1.1799529E+001  6.7062447E-005 |
|     1     2 -1.1799692E+001  1.3860255E-005 |
|     1     3 -1.1799733E+001  3.4273379E-006 |
|     1     4 -1.1799753E+001  1.6866115E-006 |
|     1     5 -1.1799758E+001  4.9368240E-007 |
|     1     6 -1.1799761E+001  2.1670996E-007 |
|     1     7 -1.1799762E+001  1.1831065E-007 |
|     1     8 -1.1799763E+001  3.8219064E-008 |
|     1     9 -1.1799763E+001  2.6416874E-008 |
|     1    10 -1.1799763E+001  7.7326241E-009 |
|     1    11 -1.1799763E+001  1.8242547E-009 |
|     1    12 -1.1799763E+001  1.0505794E-009 |
|     1    13 -1.1799763E+001  3.7945354E-010 |
+---------------------------------------------+
| minim: icg             =    13              |
| minim: 2*Tr[(2*I-S)*S] =    32.0000000      |
+---------------------------------------------+

siesta: iscf =    3
Eharris(eV) =       -862.6971  E_KS(eV) =       -862.6696  dDmax =   0.030639

+---------------------------------------------+
| OMM (Cholesky factorization)                |
+---------------------------------------------+
| k point      1 of      4                    |
+---------------------------------------------+
|             E_OMM            E_diff         |
|     1     1 -1.1798816E+001  7.5508456E-009 |
|     1     2 -1.1798816E+001  2.8117741E-009 |
|     1     3 -1.1798816E+001  5.5930536E-010 |
+---------------------------------------------+
| minim: icg             =     3              |
| minim: 2*Tr[(2*I-S)*S] =    32.0000000      |
+---------------------------------------------+
| k point      2 of      4                    |
+---------------------------------------------+
|             E_OMM            E_diff         |
|     1     1 -1.1798816E+001  7.5466461E-009 |
|     1     2 -1.1798816E+001  2.8086163E-009 |
|     1     3 -1.1798816E+001  5.5819909E-010 |
+---------------------------------------------+
| minim: icg             =     3              |
| minim: 2*Tr[(2*I-S)*S] =    32.0000000      |
+---------------------------------------------+
| k point      3 of      4                    |
+---------------------------------------------+
|             E_OMM            E_diff         |
|     1     1 -1.1798816E+001  7.5466613E-009 |
|     1     2 -1.1798816E+001  2.8086608E-009 |
|     1     3 -1.1798816E+001  5.5822212E-010 |
+---------------------------------------------+
| minim: icg             =     3              |
| minim: 2*Tr[(2*I-S)*S] =    32.0000000      |
+---------------------------------------------+
| k point      4 of      4                    |
+---------------------------------------------+
|             E_OMM            E_diff         |
|     1     1 -1.1798816E+001  7.5456253E-009 |
|     1     2 -1.1798816E+001  2.8076434E-009 |
|     1     3 -1.1798816E+001  5.5801887E-010 |
+---------------------------------------------+
| minim: icg             =     3              |
| minim: 2*Tr[(2*I-S)*S] =    32.0000000      |
+---------------------------------------------+

siesta: iscf =    4
Eharris(eV) =       -862.6697  E_KS(eV) =       -862.6696  dDmax =   0.000356

+---------------------------------------------+
| OMM (Cholesky factorization)                |
+---------------------------------------------+
| k point      1 of      4                    |
+---------------------------------------------+
|             E_OMM            E_diff         |
|     1     1 -1.1795647E+001  5.7791677E-008 |
|     1     2 -1.1795647E+001  1.9839950E-008 |
|     1     3 -1.1795647E+001  3.9074371E-009 |
|     1     4 -1.1795647E+001  1.1442285E-009 |
|     1     5 -1.1795647E+001  6.2828922E-010 |
+---------------------------------------------+
| minim: icg             =     5              |
| minim: 2*Tr[(2*I-S)*S] =    32.0000000      |
+---------------------------------------------+
| k point      2 of      4                    |
+---------------------------------------------+
|             E_OMM            E_diff         |
|     1     1 -1.1795647E+001  5.7793675E-008 |
|     1     2 -1.1795647E+001  1.9840267E-008 |
|     1     3 -1.1795647E+001  3.9067865E-009 |
|     1     4 -1.1795647E+001  1.1435722E-009 |
|     1     5 -1.1795647E+001  6.2801138E-010 |
+---------------------------------------------+
| minim: icg             =     5              |
| minim: 2*Tr[(2*I-S)*S] =    32.0000000      |
+---------------------------------------------+
| k point      3 of      4                    |
+---------------------------------------------+
|             E_OMM            E_diff         |
|     1     1 -1.1795647E+001  5.7793633E-008 |
|     1     2 -1.1795647E+001  1.9840380E-008 |
|     1     3 -1.1795647E+001  3.9068951E-009 |
|     1     4 -1.1795647E+001  1.1436312E-009 |
|     1     5 -1.1795647E+001  6.2804647E-010 |
+---------------------------------------------+
| minim: icg             =     5              |
| minim: 2*Tr[(2*I-S)*S] =    32.0000000      |
+---------------------------------------------+
| k point      4 of      4                    |
+---------------------------------------------+
|             E_OMM            E_diff         |
|     1     1 -1.1795647E+001  5.7794837E-008 |
|     1     2 -1.1795647E+001  1.9839635E-008 |
|     1     3 -1.1795647E+001  3.9064326E-009 |
|     1     4 -1.1795647E+001  1.1431923E-009 |
|     1     5 -1.1795647E+001  6.2788382E-010 |
+---------------------------------------------+
| minim: icg             =     5              |
| minim: 2*Tr[(2*I-S)*S] =    32.0000000      |
+---------------------------------------------+

siesta: iscf =    5
Eharris(eV) =       -862.6697  E_KS(eV) =       -862.6697  dDmax =   0.001009

+---------------------------------------------+
| OMM (Cholesky factorization)                |
+---------------------------------------------+
| k point      1 of      4                    |
+---------------------------------------------+
|             E_OMM            E_diff         |
|     1     1 -1.1795255E+001  2.1290250E-010 |
+---------------------------------------------+
| minim: icg             =     1              |
| minim: 2*Tr[(2*I-S)*S] =    32.0000000      |
+---------------------------------------------+
| k point      2 of      4                    |
+---------------------------------------------+
|             E_OMM            E_diff         |
|     1     1 -1.1795255E+001  2.1287855E-010 |
+---------------------------------------------+
| minim: icg             =     1              |
| minim: 2*Tr[(2*I-S)*S] =    32.0000000      |
+---------------------------------------------+
| k point      3 of      4                    |
+---------------------------------------------+
|             E_OMM            E_diff         |
|     1     1 -1.1795255E+001  2.1288262E-010 |
+---------------------------------------------+
| minim: icg             =     1              |
| minim: 2*Tr[(2*I-S)*S] =    32.0000000      |
+---------------------------------------------+
| k point      4 of      4                    |
+---------------------------------------------+
|             E_OMM            E_diff         |
|     1     1 -1.1795255E+001  2.1288202E-010 |
+---------------------------------------------+
| minim: icg             =     1              |
| minim: 2*Tr[(2*I-S)*S] =    32.0000000      |
+---------------------------------------------+

siesta: iscf =    6
Eharris(eV) =       -862.6697  E_KS(eV) =       -862.6697  dDmax =   0.000035


SCF Convergence by DM+H criterion
max |DM_out - DM_in|         :     0.0000354689
max |H_out - H_in|      (eV) :     0.0009767263
SCF cycle converged after 6 iterations

stepf: Fermi-Dirac step function

Using DM_out to compute the final energy and forces
No. of atoms with KB's overlaping orbs in proc 0. Max # of overlaps:      29     157

siesta: E_KS(eV) =             -862.6697

siesta: E_KS - E_eggbox =      -862.6697

siesta: Atomic forces (eV/Ang):
----------------------------------------
   Tot    0.000000   -0.000000   -0.000000
----------------------------------------
   Max    0.000002
   Res    0.000001    sqrt( Sum f_i^2 / 3N )
----------------------------------------
   Max    0.000002    constrained

Stress-tensor-Voigt (kbar):       18.39       18.39       18.39        0.00        0.00       -0.00
(Free)E + p*V (eV/cell)     -864.5077
Target enthalpy (eV/cell)     -862.6697

siesta: Program's energy decomposition (eV):
siesta: Ebs     =      -320.942588
siesta: Eions   =      1523.208495
siesta: Ena     =       467.238590
siesta: Ekin    =       332.635368
siesta: Enl     =       108.758984
siesta: Eso     =         0.000000
siesta: Eldau   =         0.000000
siesta: DEna    =        11.197401
siesta: DUscf   =         1.611089
siesta: DUext   =         0.000000
siesta: Exc     =      -260.902608
siesta: eta*DQ  =         0.000000
siesta: Emadel  =         0.000000
siesta: Emeta   =         0.000000
siesta: Emolmec =         0.000000
siesta: Ekinion =         0.000000
siesta: Eharris =      -862.669671
siesta: Etot    =      -862.669672
siesta: FreeEng =      -862.669672

siesta: Final energy (eV):
siesta:  Band Struct. =    -320.942588
siesta:       Kinetic =     332.635368
siesta:       Hartree =      59.917999
siesta:       Eldau   =       0.000000
siesta:       Eso     =       0.000000
siesta:    Ext. field =       0.000000
siesta:   Exch.-corr. =    -260.902608
siesta:  Ion-electron =    -433.216861
siesta:       Ion-ion =    -561.103569
siesta:       Ekinion =       0.000000
siesta:         Total =    -862.669672
siesta:         Fermi =      -4.296754

siesta: Stress tensor (static) (eV/Ang**3):
siesta:     0.011480    0.000000   -0.000000
siesta:     0.000000    0.011480    0.000000
siesta:    -0.000000    0.000000    0.011480

siesta: Cell volume =        160.103007 Ang**3

siesta: Pressure (static):
siesta:                Solid            Molecule  Units
siesta:          -0.00012504         -0.00012504  Ry/Bohr**3
siesta:          -0.01148045         -0.01148046  eV/Ang**3
siesta:         -18.39390810        -18.39391871  kBar
(Free)E+ p_basis*V_orbitals  =        -855.155299
(Free)Eharris+ p_basis*V_orbitals  =        -855.155299
>> End of run:   2-JUL-2017  11:57:55
Job completed
