Siesta Version: trunk-433
Architecture  : gfortran-macosx64-openmpi
Compiler flags: /opt/openmpi-1.6.1-gfortran/bin/mpif90 -g -O2
PP flags      : -DCDF -DMPI -DMPI_TIMING 
PARALLEL version
NetCDF support

* Running on    4 nodes in parallel
>> Start of run:  26-MAR-2013  13:20:04

                           ***********************       
                           *  WELCOME TO SIESTA  *       
                           ***********************       

reinit: Reading from standard input
************************** Dump of input data file ****************************
SystemName          OMM_si
SystemLabel         OMM_si
NumberOfAtoms       8
NumberOfSpecies     1
SolutionMethod OMM
OMM.UseCholesky .true.
OMM.Use2D .true.
OMM.Eigenvalues .true.
OMM.LongOutput .true.
%block kgrid_Monkhorst_Pack
2 0 0 0.5
0 2 0 0.5
0 0 2 0.5
%endblock kgrid_Monkhorst_Pack
%block ChemicalSpeciesLabel
 1  14  Si
%endblock ChemicalSpeciesLabel
PAO.BasisType split
%Block PAO.Basis
Si   3      0.11629
 n=3   0   2   E    47.72154     5.15176
     8.00000     1.81575
     1.00000     1.00000
 n=3   1   2   E    16.47985     5.10819
     8.00000     4.05391
     1.00000     1.00000
 n=3   2   1   E     9.50149     0.00018
     4.44687
     1.00000
%EndBlock PAO.Basis
LatticeConstant 5.43 Ang
%block LatticeVectors
1.0 0.0 0.0
0.0 1.0 0.0
0.0 0.0 1.0
%endblock LatticeVectors
AtomicCoordinatesFormat Fractional
%block AtomicCoordinatesAndAtomicSpecies
  0.000000000000000       0.000000000000000       0.000000000000000     1
  0.250000000000000       0.250000000000000       0.250000000000000     1
  0.500000000000000       0.500000000000000       0.000000000000000     1
  0.750000000000000       0.750000000000000       0.250000000000000     1
  0.500000000000000       0.000000000000000       0.500000000000000     1
  0.000000000000000       0.500000000000000       0.500000000000000     1
  0.750000000000000       0.250000000000000       0.750000000000000     1
  0.250000000000000       0.750000000000000       0.750000000000000     1
%endblock AtomicCoordinatesAndAtomicSpecies
************************** End of input data file *****************************

reinit: -----------------------------------------------------------------------
reinit: System Name: OMM_si
reinit: -----------------------------------------------------------------------
reinit: System Label: OMM_si                                                      
reinit: -----------------------------------------------------------------------

initatom: Reading input for the pseudopotentials and atomic orbitals ----------
 Species number:            1  Label: Si Atomic number:          14
Ground state valence configuration:   3s02  3p02
Reading pseudopotential information in formatted form from Si.psf

Valence configuration for pseudopotential generation:
3s( 2.00) rc: 1.89
3p( 2.00) rc: 1.89
3d( 0.00) rc: 1.89
4f( 0.00) rc: 1.89
For Si, standard SIESTA heuristics set lmxkb to 3
 (one more than the basis l, including polarization orbitals).
Use PS.lmax or PS.KBprojectors blocks to override.

<basis_specs>
===============================================================================
Si                   Z=  14    Mass=  28.090        Charge= 0.11629    
Lmxo=2 Lmxkb= 3    BasisType=split      Semic=F
L=0  Nsemic=0  Cnfigmx=3
          n=1  nzeta=2  polorb=0
            splnorm:   0.15000    
               vcte:    47.722    
               rinn:    5.1518    
                rcs:    8.0000      1.8157    
            lambdas:    1.0000      1.0000    
L=1  Nsemic=0  Cnfigmx=3
          n=1  nzeta=2  polorb=0
            splnorm:   0.15000    
               vcte:    16.480    
               rinn:    5.1082    
                rcs:    8.0000      4.0539    
            lambdas:    1.0000      1.0000    
L=2  Nsemic=0  Cnfigmx=3
          n=1  nzeta=1  polorb=0
            splnorm:   0.15000    
               vcte:    9.5015    
               rinn:   0.18000E-03
                rcs:    4.4469    
            lambdas:    1.0000    
-------------------------------------------------------------------------------
L=0  Nkbl=1  erefs: 0.17977+309
L=1  Nkbl=1  erefs: 0.17977+309
L=2  Nkbl=1  erefs: 0.17977+309
L=3  Nkbl=1  erefs: 0.17977+309
===============================================================================
</basis_specs>

atom: Called for Si                    (Z =  14)

read_vps: Pseudopotential generation method:
read_vps: ATM3      Troullier-Martins                       
Total valence charge:    4.00000

xc_check: Exchange-correlation functional:
xc_check: Ceperley-Alder
V l=0 = -2*Zval/r beyond r=  2.5494
V l=1 = -2*Zval/r beyond r=  2.5494
V l=2 = -2*Zval/r beyond r=  2.5494
V l=3 = -2*Zval/r beyond r=  2.5494
All V_l potentials equal beyond r=  1.8652
This should be close to max(r_c) in ps generation
All pots = -2*Zval/r beyond r=  2.5494
Using large-core scheme for Vlocal

atom: Estimated core radius    2.54944

atom: Including non-local core corrections could be a good idea
atom: Maximum radius for 4*pi*r*r*local-pseudopot. charge    2.85303
atom: Maximum radius for r*vlocal+2*Zval:    2.58151
GHOST: No ghost state for L =  0
GHOST: No ghost state for L =  1
GHOST: No ghost state for L =  2
GHOST: No ghost state for L =  3

KBgen: Kleinman-Bylander projectors: 
   l= 0   rc=  1.936440   el= -0.796617   Ekb=  4.661340   kbcos=  0.299756
   l= 1   rc=  1.936440   el= -0.307040   Ekb=  1.494238   kbcos=  0.301471
   l= 2   rc=  1.936440   el=  0.002313   Ekb= -2.808672   kbcos= -0.054903
   l= 3   rc=  1.936440   el=  0.003402   Ekb= -0.959059   kbcos= -0.005513

KBgen: Total number of  Kleinman-Bylander projectors:   16
atom: -------------------------------------------------------------------------

atom: SANKEY-TYPE ORBITALS:
atom: Selected multiple-zeta basis: split     

atom: basis set generated (by rescaling the valence charge)
atom: for a cation of charge   0.1163

SPLIT: Orbitals with angular momentum L= 0

SPLIT: Basis orbitals for state 3s

   izeta = 1
                 lambda =    1.000000
                     rc =    8.052001
                 energy =   -0.880603
                kinetic =    0.521474
    potential(screened) =   -1.402076
       potential(ionic) =   -3.764519

   izeta = 2
                 rmatch =    1.841990
              splitnorm =    1.106433
                 energy =    5.410922
                kinetic =    4.223643
    potential(screened) =    1.187279
       potential(ionic) =   -1.853088

SPLIT: Orbitals with angular momentum L= 1

SPLIT: Basis orbitals for state 3p

   izeta = 1
                 lambda =    1.000000
                     rc =    8.052001
                 energy =   -0.377399
                kinetic =    0.856566
    potential(screened) =   -1.233964
       potential(ionic) =   -3.404940

   izeta = 2
                 rmatch =    4.099641
              splitnorm =    0.346377
                 energy =   -0.117443
                kinetic =    1.651168
    potential(screened) =   -1.768612
       potential(ionic) =   -4.245213

SPLIT: Orbitals with angular momentum L= 2

SPLIT: Basis orbitals for state 3d

   izeta = 1
                 lambda =    1.000000
                     rc =    4.530823
                 energy =    0.710805
                kinetic =    3.090474
    potential(screened) =   -2.379669
       potential(ionic) =   -4.824413
atom: Total number of Sankey-type orbitals: 13

atm_pop: Valence configuration (for local Pseudopot. screening):
 3s( 2.00)                                                            
 3p( 2.00)                                                            
 3d( 0.00)                                                            
Vna: chval, zval:    4.00000   4.00000

Vna:  Cut-off radius for the neutral-atom potential:   8.052001

atom: _________________________________________________________________________

prinput: Basis input ----------------------------------------------------------

PAO.BasisType split     

%block ChemicalSpeciesLabel
    1   14 Si                      # Species index, atomic number, species label
%endblock ChemicalSpeciesLabel

%block PAO.Basis                 # Define Basis set
Si                    3   0.116            # Label, l-shells, ionic net charge
 n=3   0   2                         # n, l, Nzeta 
   8.052      1.842   
   1.000      1.000   
 n=3   1   2                         # n, l, Nzeta 
   8.052      4.100   
   1.000      1.000   
 n=3   2   1                         # n, l, Nzeta 
   4.531   
   1.000   
%endblock PAO.Basis

prinput: ----------------------------------------------------------------------

Dumping basis to NetCDF file Si.ion.nc
coor:   Atomic-coordinates input format  =     Fractional

siesta: Atomic coordinates (Bohr) and species
siesta:      0.00000   0.00000   0.00000  1        1
siesta:      2.56530   2.56530   2.56530  1        2
siesta:      5.13061   5.13061   0.00000  1        3
siesta:      7.69591   7.69591   2.56530  1        4
siesta:      5.13061   0.00000   5.13061  1        5
siesta:      0.00000   5.13061   5.13061  1        6
siesta:      7.69591   2.56530   7.69591  1        7
siesta:      2.56530   7.69591   7.69591  1        8

siesta: System type = bulk      

initatomlists: Number of atoms, orbitals, and projectors:      8   104   128

siesta: ******************** Simulation parameters ****************************
siesta:
siesta: The following are some of the parameters of the simulation.
siesta: A complete list of the parameters used, including default values,
siesta: can be found in file out.fdf
siesta:
redata: Non-Collinear-spin run           =     F
redata: SpinPolarized (Up/Down) run      =     F
redata: Number of spin components        =     1
redata: Long output                      =     F
redata: Number of Atomic Species         =        1
redata: Charge density info will appear in .RHO file
redata: Write Mulliken Pop.              =     NO
redata: Mesh Cutoff                      =   100.0000  Ry
redata: Net charge of the system         =     0.0000 |e|
redata: Min. number of SCF Iter          =        0
redata: Max. number of SCF Iter          =       50
redata: Mixing is linear
redata: Mix DM in first SCF step ?       =     F
redata: Write Pulay info on disk?        =     F
redata: Discard 1st Pulay DM after  kick =     F
redata: New DM Mixing Weight             =     0.2500
redata: New DM Occupancy tolerance       = 0.000000000001
redata: No kicks to SCF
redata: DM Mixing Weight for Kicks       =     0.5000
redata: DM Tolerance for SCF             =     0.000100
redata: Require Energy convergence for SCF =     F
redata: DM Energy tolerance for SCF      =     0.000100 eV
redata: Require Harris convergence for SCF =     F
redata: DM Harris energy tolerance for SCF =     0.000100 eV
redata: Using Saved Data (generic)   =     F
redata: Use continuation files for DM    =     F
redata: Neglect nonoverlap interactions  =     F
redata: Method of Calculation            =     Orbital Minimization Method
redata: Fix the spin of the system       =     F
redata: Dynamics option                  =     Verlet MD run
redata: Initial MD time step             =        1
redata:   Final MD time step             =        1
redata: Length of MD time step           =     1.0000  fs
redata: Initial Temperature of MD run    =     0.0000  K
redata: Perform a MD quench              =     F
redata: ***********************************************************************
Total number of electrons:    32.000000
Total ionic charge:    32.000000

* ProcessorY, Blocksize:    2  24

 Kpoints in:            4 . Kpoints trimmed:            4

siesta: k-grid: Number of k-points =     4
siesta: k-grid: Cutoff (effective) =     5.430 Ang
siesta: k-grid: Supercell and displacements
siesta: k-grid:    2   0   0      0.500
siesta: k-grid:    0   2   0      0.500
siesta: k-grid:    0   0   2      0.500
Naive supercell factors:     4    4    4

superc: Internal auxiliary supercell:     4 x     4 x     4  =      64
superc: Number of atoms, orbitals, and projectors:    512   6656   8192

siesta:                 ==============================
                            Begin MD step =      1
                        ==============================

superc: Internal auxiliary supercell:     4 x     4 x     4  =      64
superc: Number of atoms, orbitals, and projectors:    512   6656   8192

outcell: Unit cell vectors (Ang):
        5.430000    0.000000    0.000000
        0.000000    5.430000    0.000000
        0.000000    0.000000    5.430000

outcell: Cell vector modules (Ang)   :    5.430000    5.430000    5.430000
outcell: Cell angles (23,13,12) (deg):     90.0000     90.0000     90.0000
outcell: Cell volume (Ang**3)        :    160.1030
New_DM. Step:     1
Initializing Density Matrix...
New grid distribution:   1
           1       1:   18    1:    9    1:    9
           2       1:   18    1:    9   10:   18
           3       1:   18   10:   18    1:    9
           4       1:   18   10:   18   10:   18

InitMesh: MESH =    36 x    36 x    36 =       46656
InitMesh: (bp) =    18 x    18 x    18 =        5832
InitMesh: Mesh cutoff (required, used) =   100.000   121.481 Ry
ExtMesh (bp) on 0 =    78 x    69 x    69 =      371358
New grid distribution:   2
           1       1:   18    1:    9    1:    9
           2       1:   18    1:    9   10:   18
           3       1:   18   10:   18    1:    9
           4       1:   18   10:   18   10:   18
New grid distribution:   3
           1       1:   18    1:    9    1:    9
           2       1:   18    1:    9   10:   18
           3       1:   18   10:   18    1:    9
           4       1:   18   10:   18   10:   18
Setting up quadratic distribution...
ExtMesh (bp) on 0 =    78 x    69 x    69 =      371358
PhiOnMesh: Number of (b)points on node 0 =                 1458
PhiOnMesh: nlist on node 0 =               137704
+---------------------------------------------+
| OMM (Cholesky factorization)                |
+---------------------------------------------+
| k point      1 of      4                    |
+---------------------------------------------+
|             E_OMM            E_diff         |
|     1     1  8.0280427E-005  1.4882722E+000 |
|     1     2 -2.1733040E-004  4.3430995E+000 |
|     1     3 -2.2874927E+000  1.9996200E+000 |
|     1     4 -2.2876976E+000  8.9543061E-005 |
|     1     5 -5.8106061E+000  8.7003618E-001 |
|     1     6 -7.9099517E+000  3.0601461E-001 |
|     1     7 -9.5408822E+000  1.8691720E-001 |
|     1     8 -1.0552295E+001  1.0067226E-001 |
|     1     9 -1.1112286E+001  5.1696485E-002 |
|     1    10 -1.1464241E+001  3.1178854E-002 |
|     1    11 -1.1650486E+001  1.6114802E-002 |
|     1    12 -1.1780573E+001  1.1103790E-002 |
|     1    13 -1.1946205E+001  1.3961580E-002 |
|     1    14 -1.2038755E+001  7.7174141E-003 |
|     1    15 -1.2077652E+001  3.2256952E-003 |
|     1    16 -1.2084615E+001  5.7638973E-004 |
|     1    17 -1.2094808E+001  8.4313523E-004 |
|     1    18 -1.2105046E+001  8.4609389E-004 |
|     1    19 -1.2108324E+001  2.7074140E-004 |
|     1    20 -1.2109492E+001  9.6449204E-005 |
|     1    21 -1.2110107E+001  5.0825306E-005 |
|     1    22 -1.2110560E+001  3.7362976E-005 |
|     1    23 -1.2110815E+001  2.1079140E-005 |
|     1    24 -1.2110934E+001  9.8400691E-006 |
|     1    25 -1.2110979E+001  3.7202698E-006 |
|     1    26 -1.2111001E+001  1.7775865E-006 |
|     1    27 -1.2111010E+001  7.9756298E-007 |
|     1    28 -1.2111015E+001  3.5371290E-007 |
|     1    29 -1.2111017E+001  1.9051613E-007 |
|     1    30 -1.2111018E+001  9.2825257E-008 |
|     1    31 -1.2111019E+001  4.6795526E-008 |
|     1    32 -1.2111019E+001  2.3947950E-008 |
|     1    33 -1.2111019E+001  1.2271933E-008 |
|     1    34 -1.2111019E+001  7.4592565E-009 |
|     1    35 -1.2111019E+001  3.9608546E-009 |
|     1    36 -1.2111019E+001  1.6367179E-009 |
|     1    37 -1.2111019E+001  1.0123423E-009 |
|     1    38 -1.2111019E+001  3.9495019E-010 |
+---------------------------------------------+
| minim: icg             =    38              |
| minim: 2*Tr[(2*I-S)*S] =    32.0000000      |
+---------------------------------------------+
| k point      2 of      4                    |
+---------------------------------------------+
|             E_OMM            E_diff         |
|     1     1 -1.0516293E+001  3.1143772E-001 |
|     1     2 -1.1388292E+001  7.9617864E-002 |
|     1     3 -1.1767284E+001  3.2734465E-002 |
|     1     4 -1.1915384E+001  1.2507009E-002 |
|     1     5 -1.2004866E+001  7.4817372E-003 |
|     1     6 -1.2052897E+001  3.9929231E-003 |
|     1     7 -1.2078415E+001  2.1149701E-003 |
|     1     8 -1.2094520E+001  1.3324593E-003 |
|     1     9 -1.2102750E+001  6.8020086E-004 |
|     1    10 -1.2106679E+001  3.2458555E-004 |
|     1    11 -1.2108611E+001  1.5960913E-004 |
|     1    12 -1.2109719E+001  9.1479354E-005 |
|     1    13 -1.2110299E+001  4.7928568E-005 |
|     1    14 -1.2110645E+001  2.8584365E-005 |
|     1    15 -1.2110834E+001  1.5543184E-005 |
|     1    16 -1.2110936E+001  8.4206928E-006 |
|     1    17 -1.2110983E+001  3.9010248E-006 |
|     1    18 -1.2111003E+001  1.6323364E-006 |
|     1    19 -1.2111011E+001  7.0005170E-007 |
|     1    20 -1.2111015E+001  3.1676764E-007 |
|     1    21 -1.2111017E+001  1.5775192E-007 |
|     1    22 -1.2111018E+001  9.1734258E-008 |
|     1    23 -1.2111019E+001  4.4670342E-008 |
|     1    24 -1.2111019E+001  2.1877909E-008 |
|     1    25 -1.2111019E+001  1.4434815E-008 |
|     1    26 -1.2111019E+001  7.5321917E-009 |
|     1    27 -1.2111019E+001  4.2658137E-009 |
|     1    28 -1.2111019E+001  2.0886598E-009 |
|     1    29 -1.2111019E+001  1.0564185E-009 |
|     1    30 -1.2111019E+001  4.2532451E-010 |
+---------------------------------------------+
| minim: icg             =    30              |
| minim: 2*Tr[(2*I-S)*S] =    32.0000000      |
+---------------------------------------------+
| k point      3 of      4                    |
+---------------------------------------------+
|             E_OMM            E_diff         |
|     1     1 -1.0511807E+001  3.0892219E-001 |
|     1     2 -1.1379255E+001  7.9251347E-002 |
|     1     3 -1.1762619E+001  3.3131609E-002 |
|     1     4 -1.1913431E+001  1.2739640E-002 |
|     1     5 -1.2002605E+001  7.4572186E-003 |
|     1     6 -1.2050200E+001  3.9575815E-003 |
|     1     7 -1.2076491E+001  2.1793868E-003 |
|     1     8 -1.2093411E+001  1.4000761E-003 |
|     1     9 -1.2102142E+001  7.2172265E-004 |
|     1    10 -1.2106389E+001  3.5086085E-004 |
|     1    11 -1.2108420E+001  1.6770021E-004 |
|     1    12 -1.2109614E+001  9.8658992E-005 |
|     1    13 -1.2110244E+001  5.1972839E-005 |
|     1    14 -1.2110619E+001  3.1007951E-005 |
|     1    15 -1.2110820E+001  1.6613909E-005 |
|     1    16 -1.2110929E+001  8.9922924E-006 |
|     1    17 -1.2110980E+001  4.2058523E-006 |
|     1    18 -1.2111001E+001  1.7523077E-006 |
|     1    19 -1.2111011E+001  7.6249779E-007 |
|     1    20 -1.2111015E+001  3.2807466E-007 |
|     1    21 -1.2111017E+001  1.7079753E-007 |
|     1    22 -1.2111018E+001  1.0084754E-007 |
|     1    23 -1.2111018E+001  5.0254487E-008 |
|     1    24 -1.2111019E+001  2.6024740E-008 |
|     1    25 -1.2111019E+001  1.5666436E-008 |
|     1    26 -1.2111019E+001  8.2785962E-009 |
|     1    27 -1.2111019E+001  4.6191009E-009 |
|     1    28 -1.2111019E+001  2.2526297E-009 |
|     1    29 -1.2111019E+001  1.1887987E-009 |
|     1    30 -1.2111019E+001  4.8568007E-010 |
+---------------------------------------------+
| minim: icg             =    30              |
| minim: 2*Tr[(2*I-S)*S] =    32.0000000      |
+---------------------------------------------+
| k point      4 of      4                    |
+---------------------------------------------+
|             E_OMM            E_diff         |
|     1     1 -1.0419851E+001  3.1057549E-001 |
|     1     2 -1.1318813E+001  8.2706259E-002 |
|     1     3 -1.1747094E+001  3.7135429E-002 |
|     1     4 -1.1921076E+001  1.4701768E-002 |
|     1     5 -1.2010079E+001  7.4382575E-003 |
|     1     6 -1.2054922E+001  3.7267654E-003 |
|     1     7 -1.2080684E+001  2.1347658E-003 |
|     1     8 -1.2096552E+001  1.3127099E-003 |
|     1     9 -1.2104289E+001  6.3934305E-004 |
|     1    10 -1.2107923E+001  3.0018586E-004 |
|     1    11 -1.2109444E+001  1.2565983E-004 |
|     1    12 -1.2110170E+001  5.9959899E-005 |
|     1    13 -1.2110519E+001  2.8752717E-005 |
|     1    14 -1.2110741E+001  1.8353324E-005 |
|     1    15 -1.2110873E+001  1.0910042E-005 |
|     1    16 -1.2110949E+001  6.2825765E-006 |
|     1    17 -1.2110986E+001  3.0632549E-006 |
|     1    18 -1.2111003E+001  1.4112872E-006 |
|     1    19 -1.2111012E+001  7.1345234E-007 |
|     1    20 -1.2111016E+001  2.9227718E-007 |
|     1    21 -1.2111017E+001  1.4919053E-007 |
|     1    22 -1.2111018E+001  8.2709501E-008 |
|     1    23 -1.2111019E+001  3.1474548E-008 |
|     1    24 -1.2111019E+001  1.7084320E-008 |
|     1    25 -1.2111019E+001  8.3402357E-009 |
|     1    26 -1.2111019E+001  4.2644671E-009 |
|     1    27 -1.2111019E+001  2.8052972E-009 |
|     1    28 -1.2111019E+001  1.7007191E-009 |
|     1    29 -1.2111019E+001  9.6573347E-010 |
+---------------------------------------------+
| minim: icg             =    29              |
| minim: 2*Tr[(2*I-S)*S] =    32.0000000      |
+---------------------------------------------+

siesta: Program's energy decomposition (eV):
siesta: Ebs     =      -329.560209
siesta: Eions   =      1523.208495
siesta: Ena     =       467.238590
siesta: Ekin    =       300.002387
siesta: Enl     =       141.881739
siesta: DEna    =         0.000000
siesta: DUscf   =         0.000000
siesta: DUext   =         0.000000
siesta: Exc     =      -256.750933
siesta: eta*DQ  =         0.000000
siesta: Emadel  =         0.000000
siesta: Emeta   =         0.000000
siesta: Emolmec =         0.000000
siesta: Ekinion =         0.000000
siesta: Eharris =      -863.051072
siesta: Etot    =      -870.836712
siesta: FreeEng =      -870.836712

siesta: iscf =    1
Eharris(eV) =       -863.0511  E_KS(eV) =       -870.8367  dDmax =  0.7790

timer: Routine,Calls,Time,% =    IterSCF     1       0.433  22.61
+---------------------------------------------+
| OMM (Cholesky factorization)                |
+---------------------------------------------+
| k point      1 of      4                    |
+---------------------------------------------+
|             E_OMM            E_diff         |
|     1     1 -1.1702717E+001  2.6214424E-004 |
|     1     2 -1.1703378E+001  5.6509886E-005 |
|     1     3 -1.1703510E+001  1.1276098E-005 |
|     1     4 -1.1703580E+001  5.9732079E-006 |
|     1     5 -1.1703603E+001  1.9358475E-006 |
|     1     6 -1.1703612E+001  8.0443912E-007 |
|     1     7 -1.1703618E+001  4.6450412E-007 |
|     1     8 -1.1703620E+001  1.5859791E-007 |
|     1     9 -1.1703621E+001  9.2461687E-008 |
|     1    10 -1.1703621E+001  3.0158516E-008 |
|     1    11 -1.1703621E+001  8.0607842E-009 |
|     1    12 -1.1703621E+001  4.1880818E-009 |
|     1    13 -1.1703621E+001  1.6492697E-009 |
|     1    14 -1.1703621E+001  9.0107601E-010 |
+---------------------------------------------+
| minim: icg             =    14              |
| minim: 2*Tr[(2*I-S)*S] =    32.0000000      |
+---------------------------------------------+
| k point      2 of      4                    |
+---------------------------------------------+
|             E_OMM            E_diff         |
|     1     1 -1.1702717E+001  2.6213499E-004 |
|     1     2 -1.1703378E+001  5.6500459E-005 |
|     1     3 -1.1703510E+001  1.1280067E-005 |
|     1     4 -1.1703580E+001  5.9687128E-006 |
|     1     5 -1.1703603E+001  1.9368542E-006 |
|     1     6 -1.1703612E+001  8.0241192E-007 |
|     1     7 -1.1703618E+001  4.6381246E-007 |
|     1     8 -1.1703620E+001  1.5877940E-007 |
|     1     9 -1.1703621E+001  9.2388928E-008 |
|     1    10 -1.1703621E+001  2.9992733E-008 |
|     1    11 -1.1703621E+001  8.2355771E-009 |
|     1    12 -1.1703621E+001  4.1900879E-009 |
|     1    13 -1.1703621E+001  1.6440414E-009 |
|     1    14 -1.1703621E+001  9.2385430E-010 |
+---------------------------------------------+
| minim: icg             =    14              |
| minim: 2*Tr[(2*I-S)*S] =    32.0000000      |
+---------------------------------------------+
| k point      3 of      4                    |
+---------------------------------------------+
|             E_OMM            E_diff         |
|     1     1 -1.1702717E+001  2.6213408E-004 |
|     1     2 -1.1703378E+001  5.6494540E-005 |
|     1     3 -1.1703510E+001  1.1284649E-005 |
|     1     4 -1.1703580E+001  5.9700023E-006 |
|     1     5 -1.1703603E+001  1.9365935E-006 |
|     1     6 -1.1703612E+001  8.0260453E-007 |
|     1     7 -1.1703618E+001  4.6387114E-007 |
|     1     8 -1.1703620E+001  1.5883721E-007 |
|     1     9 -1.1703621E+001  9.2303736E-008 |
|     1    10 -1.1703621E+001  2.9980159E-008 |
|     1    11 -1.1703621E+001  8.2318908E-009 |
|     1    12 -1.1703621E+001  4.1930006E-009 |
|     1    13 -1.1703621E+001  1.6436029E-009 |
|     1    14 -1.1703621E+001  9.2446368E-010 |
+---------------------------------------------+
| minim: icg             =    14              |
| minim: 2*Tr[(2*I-S)*S] =    32.0000000      |
+---------------------------------------------+
| k point      4 of      4                    |
+---------------------------------------------+
|             E_OMM            E_diff         |
|     1     1 -1.1702717E+001  2.6214085E-004 |
|     1     2 -1.1703379E+001  5.6532056E-005 |
|     1     3 -1.1703511E+001  1.1253899E-005 |
|     1     4 -1.1703580E+001  5.9594590E-006 |
|     1     5 -1.1703603E+001  1.9386622E-006 |
|     1     6 -1.1703612E+001  8.0082953E-007 |
|     1     7 -1.1703618E+001  4.6337923E-007 |
|     1     8 -1.1703620E+001  1.5890033E-007 |
|     1     9 -1.1703621E+001  9.2344741E-008 |
|     1    10 -1.1703621E+001  3.0031777E-008 |
|     1    11 -1.1703621E+001  8.3159313E-009 |
|     1    12 -1.1703621E+001  4.1556701E-009 |
|     1    13 -1.1703621E+001  1.6671557E-009 |
|     1    14 -1.1703621E+001  9.2319694E-010 |
+---------------------------------------------+
| minim: icg             =    14              |
| minim: 2*Tr[(2*I-S)*S] =    32.0000000      |
+---------------------------------------------+

siesta: iscf =    2
Eharris(eV) =       -862.6962  E_KS(eV) =       -862.5882  dDmax =  0.0611

+---------------------------------------------+
| OMM (Cholesky factorization)                |
+---------------------------------------------+
| k point      1 of      4                    |
+---------------------------------------------+
|             E_OMM            E_diff         |
|     1     1 -1.1733981E+001  1.7391735E-006 |
|     1     2 -1.1733984E+001  2.8316257E-007 |
|     1     3 -1.1733987E+001  2.3194469E-007 |
|     1     4 -1.1733987E+001  4.7960295E-008 |
|     1     5 -1.1733987E+001  1.1586169E-008 |
|     1     6 -1.1733987E+001  8.7617642E-009 |
|     1     7 -1.1733987E+001  3.1001408E-009 |
|     1     8 -1.1733987E+001  9.3691115E-010 |
+---------------------------------------------+
| minim: icg             =     8              |
| minim: 2*Tr[(2*I-S)*S] =    32.0000000      |
+---------------------------------------------+
| k point      2 of      4                    |
+---------------------------------------------+
|             E_OMM            E_diff         |
|     1     1 -1.1733981E+001  1.7392755E-006 |
|     1     2 -1.1733984E+001  2.8312219E-007 |
|     1     3 -1.1733987E+001  2.3188205E-007 |
|     1     4 -1.1733987E+001  4.7960804E-008 |
|     1     5 -1.1733987E+001  1.1590074E-008 |
|     1     6 -1.1733987E+001  8.7578630E-009 |
|     1     7 -1.1733987E+001  3.0961282E-009 |
|     1     8 -1.1733987E+001  9.4221919E-010 |
+---------------------------------------------+
| minim: icg             =     8              |
| minim: 2*Tr[(2*I-S)*S] =    32.0000000      |
+---------------------------------------------+
| k point      3 of      4                    |
+---------------------------------------------+
|             E_OMM            E_diff         |
|     1     1 -1.1733981E+001  1.7392634E-006 |
|     1     2 -1.1733984E+001  2.8312850E-007 |
|     1     3 -1.1733987E+001  2.3189212E-007 |
|     1     4 -1.1733987E+001  4.7961207E-008 |
|     1     5 -1.1733987E+001  1.1590189E-008 |
|     1     6 -1.1733987E+001  8.7583521E-009 |
|     1     7 -1.1733988E+001  3.0963571E-009 |
|     1     8 -1.1733988E+001  9.4218451E-010 |
+---------------------------------------------+
| minim: icg             =     8              |
| minim: 2*Tr[(2*I-S)*S] =    32.0000000      |
+---------------------------------------------+
| k point      4 of      4                    |
+---------------------------------------------+
|             E_OMM            E_diff         |
|     1     1 -1.1733981E+001  1.7392086E-006 |
|     1     2 -1.1733984E+001  2.8316135E-007 |
|     1     3 -1.1733987E+001  2.3192916E-007 |
|     1     4 -1.1733987E+001  4.7957667E-008 |
|     1     5 -1.1733987E+001  1.1593590E-008 |
|     1     6 -1.1733987E+001  8.7599571E-009 |
|     1     7 -1.1733988E+001  3.0926946E-009 |
|     1     8 -1.1733988E+001  9.4483255E-010 |
+---------------------------------------------+
| minim: icg             =     8              |
| minim: 2*Tr[(2*I-S)*S] =    32.0000000      |
+---------------------------------------------+

siesta: iscf =    3
Eharris(eV) =       -862.6815  E_KS(eV) =       -862.6130  dDmax =  0.0403

+---------------------------------------------+
| OMM (Cholesky factorization)                |
+---------------------------------------------+
| k point      1 of      4                    |
+---------------------------------------------+
|             E_OMM            E_diff         |
|     1     1 -1.1754203E+001  7.7262368E-007 |
|     1     2 -1.1754204E+001  1.2577839E-007 |
|     1     3 -1.1754205E+001  1.0310563E-007 |
|     1     4 -1.1754206E+001  2.1236053E-008 |
|     1     5 -1.1754206E+001  5.7038024E-009 |
|     1     6 -1.1754206E+001  4.5532329E-009 |
|     1     7 -1.1754206E+001  1.4402632E-009 |
|     1     8 -1.1754206E+001  5.1170014E-010 |
+---------------------------------------------+
| minim: icg             =     8              |
| minim: 2*Tr[(2*I-S)*S] =    32.0000000      |
+---------------------------------------------+
| k point      2 of      4                    |
+---------------------------------------------+
|             E_OMM            E_diff         |
|     1     1 -1.1754203E+001  7.7263767E-007 |
|     1     2 -1.1754204E+001  1.2577609E-007 |
|     1     3 -1.1754205E+001  1.0310129E-007 |
|     1     4 -1.1754206E+001  2.1237850E-008 |
|     1     5 -1.1754206E+001  5.7036200E-009 |
|     1     6 -1.1754206E+001  4.5524845E-009 |
|     1     7 -1.1754206E+001  1.4401102E-009 |
|     1     8 -1.1754206E+001  5.1234242E-010 |
+---------------------------------------------+
| minim: icg             =     8              |
| minim: 2*Tr[(2*I-S)*S] =    32.0000000      |
+---------------------------------------------+
| k point      3 of      4                    |
+---------------------------------------------+
|             E_OMM            E_diff         |
|     1     1 -1.1754203E+001  7.7263705E-007 |
|     1     2 -1.1754204E+001  1.2577731E-007 |
|     1     3 -1.1754206E+001  1.0310204E-007 |
|     1     4 -1.1754206E+001  2.1238089E-008 |
|     1     5 -1.1754206E+001  5.7036869E-009 |
|     1     6 -1.1754206E+001  4.5528371E-009 |
|     1     7 -1.1754206E+001  1.4403192E-009 |
|     1     8 -1.1754206E+001  5.1219764E-010 |
+---------------------------------------------+
| minim: icg             =     8              |
| minim: 2*Tr[(2*I-S)*S] =    32.0000000      |
+---------------------------------------------+
| k point      4 of      4                    |
+---------------------------------------------+
|             E_OMM            E_diff         |
|     1     1 -1.1754203E+001  7.7264691E-007 |
|     1     2 -1.1754204E+001  1.2577055E-007 |
|     1     3 -1.1754206E+001  1.0309661E-007 |
|     1     4 -1.1754206E+001  2.1240769E-008 |
|     1     5 -1.1754206E+001  5.7033632E-009 |
|     1     6 -1.1754206E+001  4.5499323E-009 |
|     1     7 -1.1754206E+001  1.4386497E-009 |
|     1     8 -1.1754206E+001  5.1476345E-010 |
+---------------------------------------------+
| minim: icg             =     8              |
| minim: 2*Tr[(2*I-S)*S] =    32.0000000      |
+---------------------------------------------+

siesta: iscf =    4
Eharris(eV) =       -862.6749  E_KS(eV) =       -862.6291  dDmax =  0.0266

+---------------------------------------------+
| OMM (Cholesky factorization)                |
+---------------------------------------------+
| k point      1 of      4                    |
+---------------------------------------------+
|             E_OMM            E_diff         |
|     1     1 -1.1767670E+001  3.4299879E-007 |
|     1     2 -1.1767670E+001  5.5481839E-008 |
|     1     3 -1.1767671E+001  4.5228797E-008 |
|     1     4 -1.1767671E+001  9.4209790E-009 |
|     1     5 -1.1767671E+001  2.4928416E-009 |
|     1     6 -1.1767671E+001  2.0125792E-009 |
|     1     7 -1.1767671E+001  6.3761492E-010 |
+---------------------------------------------+
| minim: icg             =     7              |
| minim: 2*Tr[(2*I-S)*S] =    32.0000000      |
+---------------------------------------------+
| k point      2 of      4                    |
+---------------------------------------------+
|             E_OMM            E_diff         |
|     1     1 -1.1767670E+001  3.4299831E-007 |
|     1     2 -1.1767670E+001  5.5482439E-008 |
|     1     3 -1.1767671E+001  4.5230120E-008 |
|     1     4 -1.1767671E+001  9.4205870E-009 |
|     1     5 -1.1767671E+001  2.4931121E-009 |
|     1     6 -1.1767671E+001  2.0126484E-009 |
|     1     7 -1.1767671E+001  6.3760299E-010 |
+---------------------------------------------+
| minim: icg             =     7              |
| minim: 2*Tr[(2*I-S)*S] =    32.0000000      |
+---------------------------------------------+
| k point      3 of      4                    |
+---------------------------------------------+
|             E_OMM            E_diff         |
|     1     1 -1.1767670E+001  3.4299793E-007 |
|     1     2 -1.1767670E+001  5.5482813E-008 |
|     1     3 -1.1767671E+001  4.5230350E-008 |
|     1     4 -1.1767671E+001  9.4206502E-009 |
|     1     5 -1.1767671E+001  2.4931567E-009 |
|     1     6 -1.1767671E+001  2.0127007E-009 |
|     1     7 -1.1767671E+001  6.3764088E-010 |
+---------------------------------------------+
| minim: icg             =     7              |
| minim: 2*Tr[(2*I-S)*S] =    32.0000000      |
+---------------------------------------------+
| k point      4 of      4                    |
+---------------------------------------------+
|             E_OMM            E_diff         |
|     1     1 -1.1767670E+001  3.4299312E-007 |
|     1     2 -1.1767670E+001  5.5483723E-008 |
|     1     3 -1.1767671E+001  4.5233097E-008 |
|     1     4 -1.1767671E+001  9.4204780E-009 |
|     1     5 -1.1767671E+001  2.4930053E-009 |
|     1     6 -1.1767671E+001  2.0126078E-009 |
|     1     7 -1.1767671E+001  6.3756616E-010 |
+---------------------------------------------+
| minim: icg             =     7              |
| minim: 2*Tr[(2*I-S)*S] =    32.0000000      |
+---------------------------------------------+

siesta: iscf =    5
Eharris(eV) =       -862.6720  E_KS(eV) =       -862.6401  dDmax =  0.0175

+---------------------------------------------+
| OMM (Cholesky factorization)                |
+---------------------------------------------+
| k point      1 of      4                    |
+---------------------------------------------+
|             E_OMM            E_diff         |
|     1     1 -1.1776641E+001  1.5157725E-007 |
|     1     2 -1.1776642E+001  2.4942626E-008 |
|     1     3 -1.1776642E+001  2.0532611E-008 |
|     1     4 -1.1776642E+001  4.4651988E-009 |
|     1     5 -1.1776642E+001  1.1241899E-009 |
|     1     6 -1.1776642E+001  9.0095102E-010 |
+---------------------------------------------+
| minim: icg             =     6              |
| minim: 2*Tr[(2*I-S)*S] =    32.0000000      |
+---------------------------------------------+
| k point      2 of      4                    |
+---------------------------------------------+
|             E_OMM            E_diff         |
|     1     1 -1.1776641E+001  1.5157813E-007 |
|     1     2 -1.1776642E+001  2.4943186E-008 |
|     1     3 -1.1776642E+001  2.0532467E-008 |
|     1     4 -1.1776642E+001  4.4652433E-009 |
|     1     5 -1.1776642E+001  1.1244184E-009 |
|     1     6 -1.1776642E+001  9.0095872E-010 |
+---------------------------------------------+
| minim: icg             =     6              |
| minim: 2*Tr[(2*I-S)*S] =    32.0000000      |
+---------------------------------------------+
| k point      3 of      4                    |
+---------------------------------------------+
|             E_OMM            E_diff         |
|     1     1 -1.1776641E+001  1.5157779E-007 |
|     1     2 -1.1776642E+001  2.4943402E-008 |
|     1     3 -1.1776642E+001  2.0532695E-008 |
|     1     4 -1.1776642E+001  4.4652953E-009 |
|     1     5 -1.1776642E+001  1.1244242E-009 |
|     1     6 -1.1776642E+001  9.0097335E-010 |
+---------------------------------------------+
| minim: icg             =     6              |
| minim: 2*Tr[(2*I-S)*S] =    32.0000000      |
+---------------------------------------------+
| k point      4 of      4                    |
+---------------------------------------------+
|             E_OMM            E_diff         |
|     1     1 -1.1776641E+001  1.5157758E-007 |
|     1     2 -1.1776642E+001  2.4943193E-008 |
|     1     3 -1.1776642E+001  2.0532700E-008 |
|     1     4 -1.1776642E+001  4.4652339E-009 |
|     1     5 -1.1776642E+001  1.1244652E-009 |
|     1     6 -1.1776642E+001  9.0105782E-010 |
+---------------------------------------------+
| minim: icg             =     6              |
| minim: 2*Tr[(2*I-S)*S] =    32.0000000      |
+---------------------------------------------+

siesta: iscf =    6
Eharris(eV) =       -862.6707  E_KS(eV) =       -862.6479  dDmax =  0.0115

+---------------------------------------------+
| OMM (Cholesky factorization)                |
+---------------------------------------------+
| k point      1 of      4                    |
+---------------------------------------------+
|             E_OMM            E_diff         |
|     1     1 -1.1782620E+001  6.7651676E-008 |
|     1     2 -1.1782620E+001  1.0981631E-008 |
|     1     3 -1.1782620E+001  8.8966466E-009 |
|     1     4 -1.1782620E+001  2.2171353E-009 |
|     1     5 -1.1782620E+001  5.7785454E-010 |
+---------------------------------------------+
| minim: icg             =     5              |
| minim: 2*Tr[(2*I-S)*S] =    32.0000000      |
+---------------------------------------------+
| k point      2 of      4                    |
+---------------------------------------------+
|             E_OMM            E_diff         |
|     1     1 -1.1782620E+001  6.7652029E-008 |
|     1     2 -1.1782620E+001  1.0981548E-008 |
|     1     3 -1.1782620E+001  8.8967024E-009 |
|     1     4 -1.1782620E+001  2.2171434E-009 |
|     1     5 -1.1782620E+001  5.7793882E-010 |
+---------------------------------------------+
| minim: icg             =     5              |
| minim: 2*Tr[(2*I-S)*S] =    32.0000000      |
+---------------------------------------------+
| k point      3 of      4                    |
+---------------------------------------------+
|             E_OMM            E_diff         |
|     1     1 -1.1782620E+001  6.7651869E-008 |
|     1     2 -1.1782620E+001  1.0981642E-008 |
|     1     3 -1.1782620E+001  8.8967858E-009 |
|     1     4 -1.1782620E+001  2.2171809E-009 |
|     1     5 -1.1782620E+001  5.7794455E-010 |
+---------------------------------------------+
| minim: icg             =     5              |
| minim: 2*Tr[(2*I-S)*S] =    32.0000000      |
+---------------------------------------------+
| k point      4 of      4                    |
+---------------------------------------------+
|             E_OMM            E_diff         |
|     1     1 -1.1782620E+001  6.7651783E-008 |
|     1     2 -1.1782620E+001  1.0981620E-008 |
|     1     3 -1.1782620E+001  8.8967246E-009 |
|     1     4 -1.1782620E+001  2.2170713E-009 |
|     1     5 -1.1782620E+001  5.7800802E-010 |
+---------------------------------------------+
| minim: icg             =     5              |
| minim: 2*Tr[(2*I-S)*S] =    32.0000000      |
+---------------------------------------------+

siesta: iscf =    7
Eharris(eV) =       -862.6701  E_KS(eV) =       -862.6535  dDmax =  0.0075

+---------------------------------------------+
| OMM (Cholesky factorization)                |
+---------------------------------------------+
| k point      1 of      4                    |
+---------------------------------------------+
|             E_OMM            E_diff         |
|     1     1 -1.1786606E+001  2.9658351E-008 |
|     1     2 -1.1786606E+001  5.1838132E-009 |
|     1     3 -1.1786606E+001  4.7650843E-009 |
|     1     4 -1.1786606E+001  9.3016313E-010 |
+---------------------------------------------+
| minim: icg             =     4              |
| minim: 2*Tr[(2*I-S)*S] =    32.0000000      |
+---------------------------------------------+
| k point      2 of      4                    |
+---------------------------------------------+
|             E_OMM            E_diff         |
|     1     1 -1.1786606E+001  2.9658279E-008 |
|     1     2 -1.1786606E+001  5.1839791E-009 |
|     1     3 -1.1786606E+001  4.7651625E-009 |
|     1     4 -1.1786606E+001  9.3014308E-010 |
+---------------------------------------------+
| minim: icg             =     4              |
| minim: 2*Tr[(2*I-S)*S] =    32.0000000      |
+---------------------------------------------+
| k point      3 of      4                    |
+---------------------------------------------+
|             E_OMM            E_diff         |
|     1     1 -1.1786606E+001  2.9658168E-008 |
|     1     2 -1.1786606E+001  5.1840389E-009 |
|     1     3 -1.1786606E+001  4.7652194E-009 |
|     1     4 -1.1786606E+001  9.3015740E-010 |
+---------------------------------------------+
| minim: icg             =     4              |
| minim: 2*Tr[(2*I-S)*S] =    32.0000000      |
+---------------------------------------------+
| k point      4 of      4                    |
+---------------------------------------------+
|             E_OMM            E_diff         |
|     1     1 -1.1786606E+001  2.9658453E-008 |
|     1     2 -1.1786606E+001  5.1837416E-009 |
|     1     3 -1.1786606E+001  4.7652015E-009 |
|     1     4 -1.1786606E+001  9.3010977E-010 |
+---------------------------------------------+
| minim: icg             =     4              |
| minim: 2*Tr[(2*I-S)*S] =    32.0000000      |
+---------------------------------------------+

siesta: iscf =    8
Eharris(eV) =       -862.6699  E_KS(eV) =       -862.6576  dDmax =  0.0050

+---------------------------------------------+
| OMM (Cholesky factorization)                |
+---------------------------------------------+
| k point      1 of      4                    |
+---------------------------------------------+
|             E_OMM            E_diff         |
|     1     1 -1.1789262E+001  1.2724413E-008 |
|     1     2 -1.1789262E+001  2.6159939E-009 |
|     1     3 -1.1789262E+001  2.5428200E-009 |
|     1     4 -1.1789262E+001  4.7391239E-010 |
+---------------------------------------------+
| minim: icg             =     4              |
| minim: 2*Tr[(2*I-S)*S] =    32.0000000      |
+---------------------------------------------+
| k point      2 of      4                    |
+---------------------------------------------+
|             E_OMM            E_diff         |
|     1     1 -1.1789262E+001  1.2724573E-008 |
|     1     2 -1.1789262E+001  2.6160061E-009 |
|     1     3 -1.1789262E+001  2.5428233E-009 |
|     1     4 -1.1789262E+001  4.7392866E-010 |
+---------------------------------------------+
| minim: icg             =     4              |
| minim: 2*Tr[(2*I-S)*S] =    32.0000000      |
+---------------------------------------------+
| k point      3 of      4                    |
+---------------------------------------------+
|             E_OMM            E_diff         |
|     1     1 -1.1789262E+001  1.2724526E-008 |
|     1     2 -1.1789262E+001  2.6160167E-009 |
|     1     3 -1.1789262E+001  2.5428547E-009 |
|     1     4 -1.1789262E+001  4.7393861E-010 |
+---------------------------------------------+
| minim: icg             =     4              |
| minim: 2*Tr[(2*I-S)*S] =    32.0000000      |
+---------------------------------------------+
| k point      4 of      4                    |
+---------------------------------------------+
|             E_OMM            E_diff         |
|     1     1 -1.1789262E+001  1.2724601E-008 |
|     1     2 -1.1789262E+001  2.6159617E-009 |
|     1     3 -1.1789262E+001  2.5427742E-009 |
|     1     4 -1.1789262E+001  4.7393785E-010 |
+---------------------------------------------+
| minim: icg             =     4              |
| minim: 2*Tr[(2*I-S)*S] =    32.0000000      |
+---------------------------------------------+

siesta: iscf =    9
Eharris(eV) =       -862.6698  E_KS(eV) =       -862.6607  dDmax =  0.0032

+---------------------------------------------+
| OMM (Cholesky factorization)                |
+---------------------------------------------+
| k point      1 of      4                    |
+---------------------------------------------+
|             E_OMM            E_diff         |
|     1     1 -1.1791031E+001  5.6025639E-009 |
|     1     2 -1.1791031E+001  1.0796292E-009 |
|     1     3 -1.1791031E+001  1.0960390E-009 |
|     1     4 -1.1791031E+001  2.1156971E-010 |
+---------------------------------------------+
| minim: icg             =     4              |
| minim: 2*Tr[(2*I-S)*S] =    32.0000000      |
+---------------------------------------------+
| k point      2 of      4                    |
+---------------------------------------------+
|             E_OMM            E_diff         |
|     1     1 -1.1791031E+001  5.6026492E-009 |
|     1     2 -1.1791031E+001  1.0797213E-009 |
|     1     3 -1.1791031E+001  1.0959225E-009 |
|     1     4 -1.1791031E+001  2.1164383E-010 |
+---------------------------------------------+
| minim: icg             =     4              |
| minim: 2*Tr[(2*I-S)*S] =    32.0000000      |
+---------------------------------------------+
| k point      3 of      4                    |
+---------------------------------------------+
|             E_OMM            E_diff         |
|     1     1 -1.1791031E+001  5.6026248E-009 |
|     1     2 -1.1791031E+001  1.0797043E-009 |
|     1     3 -1.1791031E+001  1.0959453E-009 |
|     1     4 -1.1791031E+001  2.1163750E-010 |
+---------------------------------------------+
| minim: icg             =     4              |
| minim: 2*Tr[(2*I-S)*S] =    32.0000000      |
+---------------------------------------------+
| k point      4 of      4                    |
+---------------------------------------------+
|             E_OMM            E_diff         |
|     1     1 -1.1791031E+001  5.6027456E-009 |
|     1     2 -1.1791031E+001  1.0798013E-009 |
|     1     3 -1.1791031E+001  1.0957405E-009 |
|     1     4 -1.1791031E+001  2.1176059E-010 |
+---------------------------------------------+
| minim: icg             =     4              |
| minim: 2*Tr[(2*I-S)*S] =    32.0000000      |
+---------------------------------------------+

siesta: iscf =   10
Eharris(eV) =       -862.6697  E_KS(eV) =       -862.6629  dDmax =  0.0021

+---------------------------------------------+
| OMM (Cholesky factorization)                |
+---------------------------------------------+
| k point      1 of      4                    |
+---------------------------------------------+
|             E_OMM            E_diff         |
|     1     1 -1.1792210E+001  2.4726953E-009 |
|     1     2 -1.1792210E+001  4.9405566E-010 |
+---------------------------------------------+
| minim: icg             =     2              |
| minim: 2*Tr[(2*I-S)*S] =    32.0000000      |
+---------------------------------------------+
| k point      2 of      4                    |
+---------------------------------------------+
|             E_OMM            E_diff         |
|     1     1 -1.1792210E+001  2.4728170E-009 |
|     1     2 -1.1792210E+001  4.9408323E-010 |
+---------------------------------------------+
| minim: icg             =     2              |
| minim: 2*Tr[(2*I-S)*S] =    32.0000000      |
+---------------------------------------------+
| k point      3 of      4                    |
+---------------------------------------------+
|             E_OMM            E_diff         |
|     1     1 -1.1792210E+001  2.4727950E-009 |
|     1     2 -1.1792210E+001  4.9407419E-010 |
+---------------------------------------------+
| minim: icg             =     2              |
| minim: 2*Tr[(2*I-S)*S] =    32.0000000      |
+---------------------------------------------+
| k point      4 of      4                    |
+---------------------------------------------+
|             E_OMM            E_diff         |
|     1     1 -1.1792210E+001  2.4729985E-009 |
|     1     2 -1.1792210E+001  4.9406289E-010 |
+---------------------------------------------+
| minim: icg             =     2              |
| minim: 2*Tr[(2*I-S)*S] =    32.0000000      |
+---------------------------------------------+

siesta: iscf =   11
Eharris(eV) =       -862.6697  E_KS(eV) =       -862.6646  dDmax =  0.0013

+---------------------------------------------+
| OMM (Cholesky factorization)                |
+---------------------------------------------+
| k point      1 of      4                    |
+---------------------------------------------+
|             E_OMM            E_diff         |
|     1     1 -1.1793012E+001  1.4293069E-009 |
|     1     2 -1.1793012E+001  1.0488266E-009 |
|     1     3 -1.1793012E+001  3.7451645E-010 |
+---------------------------------------------+
| minim: icg             =     3              |
| minim: 2*Tr[(2*I-S)*S] =    32.0000000      |
+---------------------------------------------+
| k point      2 of      4                    |
+---------------------------------------------+
|             E_OMM            E_diff         |
|     1     1 -1.1793012E+001  1.4288003E-009 |
|     1     2 -1.1793012E+001  1.0492753E-009 |
|     1     3 -1.1793012E+001  3.7450575E-010 |
+---------------------------------------------+
| minim: icg             =     3              |
| minim: 2*Tr[(2*I-S)*S] =    32.0000000      |
+---------------------------------------------+
| k point      3 of      4                    |
+---------------------------------------------+
|             E_OMM            E_diff         |
|     1     1 -1.1793012E+001  1.4288652E-009 |
|     1     2 -1.1793012E+001  1.0492215E-009 |
|     1     3 -1.1793012E+001  3.7451253E-010 |
+---------------------------------------------+
| minim: icg             =     3              |
| minim: 2*Tr[(2*I-S)*S] =    32.0000000      |
+---------------------------------------------+
| k point      4 of      4                    |
+---------------------------------------------+
|             E_OMM            E_diff         |
|     1     1 -1.1793012E+001  1.4280185E-009 |
|     1     2 -1.1793012E+001  1.0499315E-009 |
|     1     3 -1.1793012E+001  3.7450816E-010 |
+---------------------------------------------+
| minim: icg             =     3              |
| minim: 2*Tr[(2*I-S)*S] =    32.0000000      |
+---------------------------------------------+

siesta: iscf =   12
Eharris(eV) =       -862.6697  E_KS(eV) =       -862.6659  dDmax =  0.0009

+---------------------------------------------+
| OMM (Cholesky factorization)                |
+---------------------------------------------+
| k point      1 of      4                    |
+---------------------------------------------+
|             E_OMM            E_diff         |
|     1     1 -1.1793532E+001  4.8064076E-010 |
+---------------------------------------------+
| minim: icg             =     1              |
| minim: 2*Tr[(2*I-S)*S] =    32.0000000      |
+---------------------------------------------+
| k point      2 of      4                    |
+---------------------------------------------+
|             E_OMM            E_diff         |
|     1     1 -1.1793532E+001  4.8053051E-010 |
+---------------------------------------------+
| minim: icg             =     1              |
| minim: 2*Tr[(2*I-S)*S] =    32.0000000      |
+---------------------------------------------+
| k point      3 of      4                    |
+---------------------------------------------+
|             E_OMM            E_diff         |
|     1     1 -1.1793532E+001  4.8055084E-010 |
+---------------------------------------------+
| minim: icg             =     1              |
| minim: 2*Tr[(2*I-S)*S] =    32.0000000      |
+---------------------------------------------+
| k point      4 of      4                    |
+---------------------------------------------+
|             E_OMM            E_diff         |
|     1     1 -1.1793532E+001  4.8040113E-010 |
+---------------------------------------------+
| minim: icg             =     1              |
| minim: 2*Tr[(2*I-S)*S] =    32.0000000      |
+---------------------------------------------+

siesta: iscf =   13
Eharris(eV) =       -862.6697  E_KS(eV) =       -862.6668  dDmax =  0.0006

+---------------------------------------------+
| OMM (Cholesky factorization)                |
+---------------------------------------------+
| k point      1 of      4                    |
+---------------------------------------------+
|             E_OMM            E_diff         |
|     1     1 -1.1793899E+001  5.1277297E-010 |
+---------------------------------------------+
| minim: icg             =     1              |
| minim: 2*Tr[(2*I-S)*S] =    32.0000000      |
+---------------------------------------------+
| k point      2 of      4                    |
+---------------------------------------------+
|             E_OMM            E_diff         |
|     1     1 -1.1793899E+001  5.1297781E-010 |
+---------------------------------------------+
| minim: icg             =     1              |
| minim: 2*Tr[(2*I-S)*S] =    32.0000000      |
+---------------------------------------------+
| k point      3 of      4                    |
+---------------------------------------------+
|             E_OMM            E_diff         |
|     1     1 -1.1793899E+001  5.1293744E-010 |
+---------------------------------------------+
| minim: icg             =     1              |
| minim: 2*Tr[(2*I-S)*S] =    32.0000000      |
+---------------------------------------------+
| k point      4 of      4                    |
+---------------------------------------------+
|             E_OMM            E_diff         |
|     1     1 -1.1793899E+001  5.1315674E-010 |
+---------------------------------------------+
| minim: icg             =     1              |
| minim: 2*Tr[(2*I-S)*S] =    32.0000000      |
+---------------------------------------------+

siesta: iscf =   14
Eharris(eV) =       -862.6697  E_KS(eV) =       -862.6675  dDmax =  0.0004

+---------------------------------------------+
| OMM (Cholesky factorization)                |
+---------------------------------------------+
| k point      1 of      4                    |
+---------------------------------------------+
|             E_OMM            E_diff         |
|     1     1 -1.1794152E+001  4.6030831E-010 |
+---------------------------------------------+
| minim: icg             =     1              |
| minim: 2*Tr[(2*I-S)*S] =    32.0000000      |
+---------------------------------------------+
| k point      2 of      4                    |
+---------------------------------------------+
|             E_OMM            E_diff         |
|     1     1 -1.1794152E+001  4.6033813E-010 |
+---------------------------------------------+
| minim: icg             =     1              |
| minim: 2*Tr[(2*I-S)*S] =    32.0000000      |
+---------------------------------------------+
| k point      3 of      4                    |
+---------------------------------------------+
|             E_OMM            E_diff         |
|     1     1 -1.1794152E+001  4.6032849E-010 |
+---------------------------------------------+
| minim: icg             =     1              |
| minim: 2*Tr[(2*I-S)*S] =    32.0000000      |
+---------------------------------------------+
| k point      4 of      4                    |
+---------------------------------------------+
|             E_OMM            E_diff         |
|     1     1 -1.1794152E+001  4.6037774E-010 |
+---------------------------------------------+
| minim: icg             =     1              |
| minim: 2*Tr[(2*I-S)*S] =    32.0000000      |
+---------------------------------------------+

siesta: iscf =   15
Eharris(eV) =       -862.6697  E_KS(eV) =       -862.6681  dDmax =  0.0003

+---------------------------------------------+
| OMM (Cholesky factorization)                |
+---------------------------------------------+
| k point      1 of      4                    |
+---------------------------------------------+
|             E_OMM            E_diff         |
|     1     1 -1.1794327E+001  4.5904222E-010 |
+---------------------------------------------+
| minim: icg             =     1              |
| minim: 2*Tr[(2*I-S)*S] =    32.0000000      |
+---------------------------------------------+
| k point      2 of      4                    |
+---------------------------------------------+
|             E_OMM            E_diff         |
|     1     1 -1.1794327E+001  4.5906542E-010 |
+---------------------------------------------+
| minim: icg             =     1              |
| minim: 2*Tr[(2*I-S)*S] =    32.0000000      |
+---------------------------------------------+
| k point      3 of      4                    |
+---------------------------------------------+
|             E_OMM            E_diff         |
|     1     1 -1.1794327E+001  4.5906211E-010 |
+---------------------------------------------+
| minim: icg             =     1              |
| minim: 2*Tr[(2*I-S)*S] =    32.0000000      |
+---------------------------------------------+
| k point      4 of      4                    |
+---------------------------------------------+
|             E_OMM            E_diff         |
|     1     1 -1.1794327E+001  4.5910880E-010 |
+---------------------------------------------+
| minim: icg             =     1              |
| minim: 2*Tr[(2*I-S)*S] =    32.0000000      |
+---------------------------------------------+

siesta: iscf =   16
Eharris(eV) =       -862.6697  E_KS(eV) =       -862.6685  dDmax =  0.0001

+---------------------------------------------+
| OMM (Cholesky factorization)                |
+---------------------------------------------+
| k point      1 of      4                    |
+---------------------------------------------+
|             E_OMM            E_diff         |
|     1     1 -1.1794441E+001  3.4012257E-010 |
+---------------------------------------------+
| minim: icg             =     1              |
| minim: 2*Tr[(2*I-S)*S] =    32.0000000      |
+---------------------------------------------+
| k point      2 of      4                    |
+---------------------------------------------+
|             E_OMM            E_diff         |
|     1     1 -1.1794441E+001  3.4012754E-010 |
+---------------------------------------------+
| minim: icg             =     1              |
| minim: 2*Tr[(2*I-S)*S] =    32.0000000      |
+---------------------------------------------+
| k point      3 of      4                    |
+---------------------------------------------+
|             E_OMM            E_diff         |
|     1     1 -1.1794441E+001  3.4012618E-010 |
+---------------------------------------------+
| minim: icg             =     1              |
| minim: 2*Tr[(2*I-S)*S] =    32.0000000      |
+---------------------------------------------+
| k point      4 of      4                    |
+---------------------------------------------+
|             E_OMM            E_diff         |
|     1     1 -1.1794441E+001  3.4014606E-010 |
+---------------------------------------------+
| minim: icg             =     1              |
| minim: 2*Tr[(2*I-S)*S] =    32.0000000      |
+---------------------------------------------+

siesta: iscf =   17
Eharris(eV) =       -862.6697  E_KS(eV) =       -862.6688  dDmax =  0.0001

+---------------------------------------------+
| OMM (Cholesky factorization)                |
+---------------------------------------------+
| k point      1 of      4                    |
+---------------------------------------------+
|             E_OMM            E_diff         |
|     1     1 -1.1794516E+001  2.7338463E-010 |
+---------------------------------------------+
| minim: icg             =     1              |
| minim: 2*Tr[(2*I-S)*S] =    32.0000000      |
+---------------------------------------------+
| k point      2 of      4                    |
+---------------------------------------------+
|             E_OMM            E_diff         |
|     1     1 -1.1794516E+001  2.7339426E-010 |
+---------------------------------------------+
| minim: icg             =     1              |
| minim: 2*Tr[(2*I-S)*S] =    32.0000000      |
+---------------------------------------------+
| k point      3 of      4                    |
+---------------------------------------------+
|             E_OMM            E_diff         |
|     1     1 -1.1794516E+001  2.7339381E-010 |
+---------------------------------------------+
| minim: icg             =     1              |
| minim: 2*Tr[(2*I-S)*S] =    32.0000000      |
+---------------------------------------------+
| k point      4 of      4                    |
+---------------------------------------------+
|             E_OMM            E_diff         |
|     1     1 -1.1794516E+001  2.7341670E-010 |
+---------------------------------------------+
| minim: icg             =     1              |
| minim: 2*Tr[(2*I-S)*S] =    32.0000000      |
+---------------------------------------------+

siesta: iscf =   18
Eharris(eV) =       -862.6697  E_KS(eV) =       -862.6690  dDmax =  0.0000


stepf: Fermi-Dirac step function

siesta: E_KS(eV) =             -862.6697

siesta: E_KS - E_eggbox =      -862.6697

siesta: Atomic forces (eV/Ang):
----------------------------------------
   Tot    0.000000   -0.000000    0.000000
----------------------------------------
   Max    0.000000
   Res    0.000000    sqrt( Sum f_i^2 / 3N )
----------------------------------------
   Max    0.000000    constrained

Stress-tensor-Voigt (kbar):       18.38       18.38       18.38       -0.00        0.00       -0.00
(Free)E + p*V (eV/cell)     -864.5065
Target enthalpy (eV/cell)     -862.6697

siesta: Stress tensor (static) (eV/Ang**3):
         0.011473   -0.000000   -0.000000
        -0.000000    0.011473    0.000000
        -0.000000    0.000000    0.011473

siesta: Pressure (static):        -18.38160514  kBar

siesta: Stress tensor (total) (eV/Ang**3):
         0.011473   -0.000000   -0.000000
        -0.000000    0.011473    0.000000
        -0.000000    0.000000    0.011473

siesta: Pressure (total):        -18.38160514  kBar

siesta: Temp_ion =       0.000 K

siesta: Program's energy decomposition (eV):
siesta: Ebs     =      -320.947656
siesta: Eions   =      1523.208495
siesta: Ena     =       467.238590
siesta: Ekin    =       332.626248
siesta: Enl     =       108.756366
siesta: DEna    =        11.207291
siesta: DUscf   =         1.610412
siesta: DUext   =         0.000000
siesta: Exc     =      -260.900084
siesta: eta*DQ  =         0.000000
siesta: Emadel  =         0.000000
siesta: Emeta   =         0.000000
siesta: Emolmec =         0.000000
siesta: Ekinion =         0.000000
siesta: Eharris =      -862.669672
siesta: Etot    =      -862.669672
siesta: FreeEng =      -862.669672

siesta: Final energy (eV):
siesta:  Band Struct. =    -320.947656
siesta:       Kinetic =     332.626248
siesta:       Hartree =      59.911343
siesta:    Ext. field =       0.000000
siesta:   Exch.-corr. =    -260.900084
siesta:  Ion-electron =    -433.203611
siesta:       Ion-ion =    -561.103569
siesta:       Ekinion =       0.000000
siesta:         Total =    -862.669672

siesta: Stress tensor (static) (eV/Ang**3):
siesta:     0.011473   -0.000000   -0.000000
siesta:    -0.000000    0.011473    0.000000
siesta:    -0.000000    0.000000    0.011473

siesta: Cell volume =        160.103007 Ang**3

siesta: Pressure (static):
siesta:                Solid            Molecule  Units
siesta:          -0.00012495         -0.00012495  Ry/Bohr**3
siesta:          -0.01147277         -0.01147277  eV/Ang**3
siesta:         -18.38160514        -18.38160508  kBar
(Free)E+ p_basis*V_orbitals  =        -855.155299
(Free)Eharris+ p_basis*V_orbitals  =        -855.155971
>> End of run:  26-MAR-2013  13:20:13
