
                           ***********************       
                           *  WELCOME TO SIESTA  *       
                           ***********************       

reinit: Reading from ../OMM_h2o.fdf

reinit: -----------------------------------------------------------------------
reinit: System Name: OMM_h2o
reinit: -----------------------------------------------------------------------
reinit: System Label: OMM_h2o
reinit: -----------------------------------------------------------------------
Siesta Version: siesta-4.1--731
Architecture  : x86_64-linux-n-62-18-14
Compiler flags: mpifort -m64 -fPIC -O3 -march=native -ftree-vectorize -fexpensive-optimizatioons -funroll-loops -fprefetch-loop-arrays -fno-second-underscore  -flto -fuse-linker-plugin
PP flags      : -I/zdata/groups/common/nicpa/2016-oct/generic/build-tools/1.0/include -I/zdatta/groups/common/nicpa/2016-oct/generic/gmp/6.1.0/include -I/zdata/groups/common/nicpa/2016-oct/generic/mpfr/3.1.4/include -I/zdata/groups/common/nicpa/2016-oct/generic/mpc/1.0.3/include -I/zdata/groups/common/nicpa/2016-oct/generic/isl/0.16.1/include -I/zdata/groups/common/nicpa/2016-oct/generic/gcc/6.2.0/include -I/zdata/groups/common/nicpa/2016-oct/generic/numactl/2.0.11/include -I/zdata/groups/common/nicpa/2016-oct/XeonE5-2665/zlib/1.2.8/gnu-6.2.0/include -I/zdata/groups/common/nicpa/2016-oct/XeonE5-2665/libxml2/2.9.4/gnu-6.2.0/include -I/zdata/groups/common/nicpa/2016-oct/XeonE5-2665/hwloc/1.11.4/gnu-6.2.0/include -I/zdata/groups/common/nicpa/2016-oct/XeonE5-2665/openmpi/2.0.1/gnu-6.2.0/include -I/zdata/groups/common/nicpa/2016-oct/XeonE5-2665/hdf5/1.8.17/gnu-6.2.0/include -I/zdata/groups/common/nicpa/2016-oct/XeonE5-2665/pnetcdf/1.7.0/gnu-6.2.0/include -I/zdata/groups/common/nicpa/2016-oct/XeonE5-2665/netcdf/4.4.1/gnu-6.2.0/include -I/zdata/groups/common/nicpa/2016-oct/XeonE5-2665/flook/0.7.0/gnu-6.2.0/include -I/zdata/groups/common/nicpa/2016-oct/XeonE5-2665/parmetis/4.0.3/gnu-6.2.0/include -I/zdata/groups/common/nicpa/2016-oct/XeonE5-2665/scalapack/204/gnu-6.2.0/include -I/zdata/groups/common/nicpa/2016-oct/XeonE5-2665/openblas/0.2.19/gnu-6.2.0/include -I/zdata/groups/common/nicpa/2016-oct/XeonE5-2665/mumps/5.0.2/gnu-6.2.0/include -I/zdata/groups/common/nicpa/2016-oct/XeonE5-2665/fftw/3.3.5/gnu-6.2.0/include -DMPI -DFC_HAVE_FLUSH -DFC_HAVE_ABORT -DCDF -DCDF4 -DSIESTA__METIS -DSIESTA__MUMPS -DTS_NOCHECKS -DNCDF -DNCDF_4 -DNCDF_PARALLEL -DSIESTA__FLOOK
Libraries     : -lnetcdff -lnetcdf -lpnetcdf -lhdf5_hl -lhdf5 -lz  -lzmumps -lmumps_common -llpord -lparmetis -lmetis -lscalapack -lopenblas  -lmetis -flto -fuse-linker-plugin  -L/zdata/groups/common/nicpa/2016-oct/XeonE5-2665/flook/0.7.0/gnu-6.2.0/lib -Wl,-rpath=/zdata/groups/common/nicpa/2016-oct/XeonE5-2665/flook/0.7.0/gnu-6.2.0/lib -lflookall -ldl
PARALLEL version
NetCDF support
NetCDF-4 support
NetCDF-4 MPI-IO support
METIS ordering support

* Running on 8 nodes in parallel
>> Start of run:   2-JUL-2017  11:57:40

initatom: Reading input for the pseudopotentials and atomic orbitals ----------
Species number:   1 Atomic number:    8 Label: O
Species number:   2 Atomic number:    1 Label: H

Ground state valence configuration:   2s02  2p04
Reading pseudopotential information in formatted form from O.psf

Valence configuration for pseudopotential generation:
2s( 2.00) rc: 1.14
2p( 4.00) rc: 1.14
3d( 0.00) rc: 1.14
4f( 0.00) rc: 1.14
Ground state valence configuration:   1s01
Reading pseudopotential information in formatted form from H.psf

Valence configuration for pseudopotential generation:
1s( 1.00) rc: 1.25
2p( 0.00) rc: 1.25
3d( 0.00) rc: 1.25
4f( 0.00) rc: 1.25
remass: Read atomic mass for species    2 as      2.00000
For O, standard SIESTA heuristics set lmxkb to 3
 (one more than the basis l, including polarization orbitals).
Use PS.lmax or PS.KBprojectors blocks to override.
For H, standard SIESTA heuristics set lmxkb to 2
 (one more than the basis l, including polarization orbitals).
Use PS.lmax or PS.KBprojectors blocks to override.

<basis_specs>
===============================================================================
O                    Z=   8    Mass=  16.000        Charge=-0.24233    
Lmxo=2 Lmxkb= 3    BasisType=split      Semic=F
L=0  Nsemic=0  Cnfigmx=2
          n=1  nzeta=2  polorb=0
            splnorm:   0.15000    
               vcte:    23.361    
               rinn:    3.3972    
               qcoe:    0.0000    
               qyuk:    0.0000    
               qwid:   0.10000E-01
                rcs:    4.5077      2.6407    
            lambdas:    1.0000      1.0000    
L=1  Nsemic=0  Cnfigmx=2
          n=1  nzeta=2  polorb=0
            splnorm:   0.15000    
               vcte:    2.7833    
               rinn:    5.1425    
               qcoe:    0.0000    
               qyuk:    0.0000    
               qwid:   0.10000E-01
                rcs:    6.1500      2.5936    
            lambdas:    1.0000      1.0000    
L=2  Nsemic=0  Cnfigmx=3
          n=1  nzeta=1  polorb=0
            splnorm:   0.15000    
               vcte:    63.982    
               rinn:   0.16104    
               qcoe:    0.0000    
               qyuk:    0.0000    
               qwid:   0.10000E-01
                rcs:    3.5440    
            lambdas:    1.0000    
-------------------------------------------------------------------------------
L=0  Nkbl=1  erefs: 0.17977+309
L=1  Nkbl=1  erefs: 0.17977+309
L=2  Nkbl=1  erefs: 0.17977+309
L=3  Nkbl=1  erefs: 0.17977+309
===============================================================================
</basis_specs>

atom: Called for O                     (Z =   8)

read_vps: Pseudopotential generation method:
read_vps: ATM3      Troullier-Martins                       
Total valence charge:    6.00000

xc_check: Exchange-correlation functional:
xc_check: GGA Perdew, Burke & Ernzerhof 1996
xc_check: WARNING: Pseudopotential generated with LDA CA functional
V l=0 = -2*Zval/r beyond r=  1.1278
V l=1 = -2*Zval/r beyond r=  1.1278
V l=2 = -2*Zval/r beyond r=  1.1278
V l=3 = -2*Zval/r beyond r=  1.1138
All V_l potentials equal beyond r=  1.1278
This should be close to max(r_c) in ps generation
All pots = -2*Zval/r beyond r=  1.1278

VLOCAL1: 99.0% of the norm of Vloc inside     34.126 Ry
VLOCAL1: 99.9% of the norm of Vloc inside     77.774 Ry
atom: Maximum radius for 4*pi*r*r*local-pseudopot. charge    1.37759
atom: Maximum radius for r*vlocal+2*Zval:    1.18566
GHOST: No ghost state for L =  0
GHOST: No ghost state for L =  1
GHOST: No ghost state for L =  2
GHOST: No ghost state for L =  3

KBgen: Kleinman-Bylander projectors: 
   l= 0   rc=  1.294105   el= -1.764717   Ekb=  9.120606   kbcos=  0.329038
   l= 1   rc=  1.294105   el= -0.698441   Ekb= -8.119783   kbcos= -0.400859
   l= 2   rc=  1.448233   el=  0.002031   Ekb= -2.039067   kbcos= -0.003490
   l= 3   rc=  1.561052   el=  0.003153   Ekb= -0.799361   kbcos= -0.000345

KBgen: Total number of  Kleinman-Bylander projectors:   16
atom: -------------------------------------------------------------------------

atom: SANKEY-TYPE ORBITALS:
atom: Selected multiple-zeta basis: split     

atom: basis set generated (by rescaling the valence charge)
atom: for an anion of charge  -0.2423

SPLIT: Orbitals with angular momentum L= 0

SPLIT: Basis orbitals for state 2s

   izeta = 1
                 lambda =    1.000000
                     rc =    4.574469
                 energy =   -1.761757
                kinetic =    1.493608
    potential(screened) =   -3.255365
       potential(ionic) =  -11.068524

   izeta = 2
                 rmatch =    2.639108
              splitnorm =    0.146386
                 energy =   -1.557532
                kinetic =    2.331275
    potential(screened) =   -3.888807
       potential(ionic) =  -12.342285

SPLIT: Orbitals with angular momentum L= 1

SPLIT: Basis orbitals for state 2p

   izeta = 1
                 lambda =    1.000000
                     rc =    6.174996
                 energy =   -0.692030
                kinetic =    4.435302
    potential(screened) =   -5.127332
       potential(ionic) =  -12.547375

   izeta = 2
                 rmatch =    2.639108
              splitnorm =    0.202025
                 energy =   -0.455967
                kinetic =    7.214573
    potential(screened) =   -7.670539
       potential(ionic) =  -16.265562

SPLIT: Orbitals with angular momentum L= 2

SPLIT: Basis orbitals for state 3d

   izeta = 1
                 lambda =    1.000000
                     rc =    3.562532
                 energy =    3.652279
                kinetic =    6.499560
    potential(screened) =   -2.847281
       potential(ionic) =  -10.016478
atom: Total number of Sankey-type orbitals: 13

atm_pop: Valence configuration (for local Pseudopot. screening):
 2s( 2.00)                                                            
 2p( 4.00)                                                            
 3d( 0.00)                                                            
Vna: chval, zval:    6.00000   6.00000

Vna:  Cut-off radius for the neutral-atom potential:   6.174996

atom: _________________________________________________________________________

<basis_specs>
===============================================================================
H                    Z=   1    Mass=  2.0000        Charge= 0.46527    
Lmxo=1 Lmxkb= 2    BasisType=split      Semic=F
L=0  Nsemic=0  Cnfigmx=1
          n=1  nzeta=2  polorb=0
            splnorm:   0.15000    
               vcte:    99.931    
               rinn:    2.5993    
               qcoe:    0.0000    
               qyuk:    0.0000    
               qwid:   0.10000E-01
                rcs:    4.2036      1.8446    
            lambdas:    1.0000      1.0000    
L=1  Nsemic=0  Cnfigmx=2
          n=1  nzeta=1  polorb=0
            splnorm:   0.15000    
               vcte:    24.565    
               rinn:    2.2023    
               qcoe:    0.0000    
               qyuk:    0.0000    
               qwid:   0.10000E-01
                rcs:    3.5282    
            lambdas:    1.0000    
-------------------------------------------------------------------------------
L=0  Nkbl=1  erefs: 0.17977+309
L=1  Nkbl=1  erefs: 0.17977+309
L=2  Nkbl=1  erefs: 0.17977+309
===============================================================================
</basis_specs>

atom: Called for H                     (Z =   1)

read_vps: Pseudopotential generation method:
read_vps: ATM3      Troullier-Martins                       
Total valence charge:    1.00000

xc_check: Exchange-correlation functional:
xc_check: GGA Perdew, Burke & Ernzerhof 1996
xc_check: WARNING: Pseudopotential generated with LDA CA functional
V l=0 = -2*Zval/r beyond r=  1.2343
V l=1 = -2*Zval/r beyond r=  1.2189
V l=2 = -2*Zval/r beyond r=  1.2189
All V_l potentials equal beyond r=  1.2343
This should be close to max(r_c) in ps generation
All pots = -2*Zval/r beyond r=  1.2343

VLOCAL1: 99.0% of the norm of Vloc inside     28.493 Ry
VLOCAL1: 99.9% of the norm of Vloc inside     64.935 Ry
atom: Maximum radius for 4*pi*r*r*local-pseudopot. charge    1.45251
atom: Maximum radius for r*vlocal+2*Zval:    1.21892
GHOST: No ghost state for L =  0
GHOST: No ghost state for L =  1
GHOST: No ghost state for L =  2

KBgen: Kleinman-Bylander projectors: 
   l= 0   rc=  1.364359   el= -0.488086   Ekb= -2.002077   kbcos= -0.347561
   l= 1   rc=  1.434438   el=  0.001075   Ekb= -0.501617   kbcos= -0.021754
   l= 2   rc=  1.470814   el=  0.002010   Ekb= -0.190607   kbcos= -0.002284

KBgen: Total number of  Kleinman-Bylander projectors:    9
atom: -------------------------------------------------------------------------

atom: SANKEY-TYPE ORBITALS:
atom: Selected multiple-zeta basis: split     

atom: basis set generated (by rescaling the valence charge)
atom: for a cation of charge   0.4653

SPLIT: Orbitals with angular momentum L= 0

SPLIT: Basis orbitals for state 1s

   izeta = 1
                 lambda =    1.000000
                     rc =    4.260636
                 energy =   -0.875320
                kinetic =    1.357215
    potential(screened) =   -2.232536
       potential(ionic) =   -2.287165

   izeta = 2
                 rmatch =    1.865767
              splitnorm =    0.576232
                 energy =    0.481660
                kinetic =    4.349015
    potential(screened) =   -3.867355
       potential(ionic) =   -3.832494

SPLIT: Orbitals with angular momentum L= 1

SPLIT: Basis orbitals for state 2p

   izeta = 1
                 lambda =    1.000000
                     rc =    3.576223
                 energy =    0.823141
                kinetic =    2.007026
    potential(screened) =   -1.183885
       potential(ionic) =   -1.299268
atom: Total number of Sankey-type orbitals:  5

atm_pop: Valence configuration (for local Pseudopot. screening):
 1s( 1.00)                                                            
 2p( 0.00)                                                            
Vna: chval, zval:    1.00000   1.00000

Vna:  Cut-off radius for the neutral-atom potential:   4.260636

atom: _________________________________________________________________________

prinput: Basis input ----------------------------------------------------------

PAO.BasisType split     

%block ChemicalSpeciesLabel
    1    8 O                       # Species index, atomic number, species label
    2    1 H                       # Species index, atomic number, species label
%endblock ChemicalSpeciesLabel

%block PAO.Basis                 # Define Basis set
O                     3  -0.242            # Label, l-shells, ionic net charge
 n=2   0   2                         # n, l, Nzeta 
   4.574      2.639   
   1.000      1.000   
 n=2   1   2                         # n, l, Nzeta 
   6.175      2.639   
   1.000      1.000   
 n=3   2   1                         # n, l, Nzeta 
   3.563   
   1.000   
H                     2   0.465            # Label, l-shells, ionic net charge
 n=1   0   2                         # n, l, Nzeta 
   4.261      1.866   
   1.000      1.000   
 n=2   1   1                         # n, l, Nzeta 
   3.576   
   1.000   
%endblock PAO.Basis

prinput: ----------------------------------------------------------------------

Dumping basis to NetCDF file O.ion.nc
Dumping basis to NetCDF file H.ion.nc
coor:   Atomic-coordinates input format  =     Cartesian coordinates
coor:                                            (in Bohr units)

siesta: Atomic coordinates (Bohr) and species
siesta:      0.27172   3.11964  -1.74949  1        1
siesta:     -1.36110   3.20498  -2.66996  2        2
siesta:      0.24672   3.92660  -0.07154  2        3
siesta:      8.31165 -11.96330 -11.05793  1        4
siesta:      6.93178 -13.13890 -11.50463  2        5
siesta:      7.71716 -10.95200  -9.61223  2        6
siesta:      7.63490  11.61107   5.41948  1        7
siesta:      6.61216  10.63020   4.22238  2        8
siesta:      8.50839  10.27510   6.29966  2        9
siesta:      1.08830   4.86617   8.06019  1       10
siesta:      1.62142   4.84585   9.85759  2       11
siesta:      2.48979   4.31620   7.00421  2       12
siesta:      9.51435  28.71279  30.54132  1       13
siesta:     10.74195  29.84845  29.79871  2       14
siesta:      9.60069  29.48890  32.18631  2       15
siesta:      2.76543 -11.53468  12.77778  1       16
siesta:      2.63268  -9.94060  13.75052  2       17
siesta:      2.04449 -12.79848  13.93663  2       18
siesta:      0.80810  10.68042  16.61947  1       19
siesta:     -0.79932  10.74460  15.78025  2       20
siesta:      1.18639  12.29620  17.44540  2       21
siesta:     12.61487   4.45579   2.85589  1       22
siesta:     14.15680   5.47145   3.09179  2       23
siesta:     11.36137   5.39241   3.81533  2       24
siesta:     13.44025   3.19269  13.35816  1       25
siesta:     12.73166   1.71789  12.54906  2       26
siesta:     13.28645   4.42044  12.01790  2       27
siesta:      8.06073  13.47252  17.49502  1       28
siesta:      6.95936  14.89948  17.11902  2       29
siesta:      7.89527  13.32184  19.34574  2       30
siesta:     13.85978   7.65443   9.86605  1       31
siesta:     14.75836   8.50638  11.21380  2       32
siesta:     15.16355   6.66099   9.02860  2       33
siesta:      1.44329  14.92395   1.75417  1       34
siesta:      1.55478  14.90515   3.59082  2       35
siesta:     -0.13604  15.84343   1.41984  2       36
siesta:     13.86096  -0.82218   1.24280  1       37
siesta:     13.86338   0.98139   1.68847  2       38
siesta:     13.08602  -1.62793   2.69208  2       39
siesta:      5.35372  36.09093   9.64186  1       40
siesta:      6.15491  34.92835  10.79884  2       41
siesta:      3.93581  36.48455  10.73456  2       42
siesta:     13.71511   8.31849  15.36149  1       43
siesta:     13.98847   6.96565  16.57186  2       44
siesta:     12.53119   7.59992  14.07373  2       45
siesta:     12.83867  15.55749  -3.81565  1       46
siesta:     14.57558  15.11623  -3.53023  2       47
siesta:     12.27397  15.98540  -2.11504  2       48
siesta:     17.46138   7.41207   3.14528  1       49
siesta:     17.33263   8.42208   1.59500  2       50
siesta:     18.96646   7.87878   4.09725  2       51
siesta:      5.50009  17.82279  16.49897  1       52
siesta:      5.86368  19.62625  16.26417  2       53
siesta:      3.70564  17.70906  16.82243  2       54
siesta:      5.19555   8.43056  19.80560  1       55
siesta:      3.88907   8.92584  18.55190  2       56
siesta:      6.66503   8.16690  18.71622  2       57
siesta:     16.67371  17.94974   9.09568  1       58
siesta:     15.01537  18.48098   8.54473  2       59
siesta:     17.81168  19.27939   8.46651  2       60
siesta:      7.73497   5.09320  15.22553  1       61
siesta:      7.50713   5.99213  13.62192  2       62
siesta:      9.51930   4.57678  14.98807  2       63
siesta:      4.53826  19.85943   4.12455  1       64
siesta:      4.50765  18.39783   5.22514  2       65
siesta:      4.80207  19.11425   2.47029  2       66
siesta:     11.12928   1.75134   8.60988  1       67
siesta:     10.21632   3.16921   7.86024  2       68
siesta:     10.84270   0.36700   7.38394  2       69
siesta:     12.73461  13.29511   6.41447  1       70
siesta:     13.60241  11.81134   7.01490  2       71
siesta:     11.28981  12.60974   5.54077  2       72
siesta:     17.50535  12.56281  10.44685  1       73
siesta:     17.32168  14.43317  10.47082  2       74
siesta:     17.73442  12.28509   8.64631  2       75

siesta: System type = bulk      

initatomlists: Number of atoms, orbitals, and projectors:     75   575   850

siesta: ******************** Simulation parameters ****************************
siesta:
siesta: The following are some of the parameters of the simulation.
siesta: A complete list of the parameters used, including default values,
siesta: can be found in file out.fdf
siesta:
redata: Spin configuration                          = none
redata: Number of spin components                   = 1
redata: Time-Reversal Symmetry                      = T
redata: Spin-spiral                                 = F
redata: Long output                                 =   F
redata: Number of Atomic Species                    =        2
redata: Charge density info will appear in .RHO file
redata: Write Mulliken Pop.                         = NO
redata: Mesh Cutoff                                 =   150.0000 Ry
redata: Net charge of the system                    =     0.0000 |e|
redata: Min. number of SCF Iter                     =        0
redata: Max. number of SCF Iter                     =       50
redata: SCF mix quantity                            = Hamiltonian
redata: Mix DM or H after convergence               =   F
redata: Recompute H after scf cycle                 =   F
redata: Mix DM in first SCF step                    =   T
redata: Write Pulay info on disk                    =   F
redata: New DM Mixing Weight                        =     0.3000
redata: New DM Occupancy tolerance                  = 0.000000000001
redata: No kicks to SCF
redata: DM Mixing Weight for Kicks                  =     0.5000
redata: Require Harris convergence for SCF          =   F
redata: Harris energy tolerance for SCF             =     0.000100 eV
redata: Require DM convergence for SCF              =   T
redata: DM tolerance for SCF                        =     0.0001
redata: Require EDM convergence for SCF             =   F
redata: EDM tolerance for SCF                       =     0.001000 eV
redata: Require H convergence for SCF               =   T
redata: Hamiltonian tolerance for SCF               =     0.001000 eV
redata: Require (free) Energy convergence for SCF   =   F
redata: (free) Energy tolerance for SCF             =     0.000100 eV
redata: Using Saved Data (generic)                  =   F
redata: Use continuation files for DM               =   F
redata: Neglect nonoverlap interactions             =   F
redata: Method of Calculation                       = Orbital Minimization Method
redata: Fix the spin of the system                  =   F
redata: Dynamics option                             = Verlet MD run
redata: Initial MD time step                        =        1
redata:   Final MD time step                        =        2
redata: Length of MD time step                      =     0.5000 fs
redata: Initial Temperature of MD run               =     0.0000 K
redata: Perform a MD quench                         =   F
mix.SCF: Pulay mixing                            = Pulay
mix.SCF:    Variant                              = stable
mix.SCF:    History steps                        = 3
mix.SCF:    Linear mixing weight                 =     0.300000
mix.SCF:    Mixing weight                        =     0.300000
mix.SCF:    SVD condition                        = 0.1000E-07
redata: Save all siesta data in one NC              =   F
redata: ***********************************************************************

%block SCF.Mixers
  Pulay
%endblock SCF.Mixers

%block SCF.Mixer.Pulay
  # Mixing method
  method pulay
  variant stable

  # Mixing options
  weight 0.3000
  weight.linear 0.3000
  history 3
%endblock SCF.Mixer.Pulay

Size of DM history Fstack: 1
Total number of electrons:   200.000000
Total ionic charge:   200.000000

* ProcessorY, Blocksize:    2  24


* Orbital distribution balance (max,min):    72    71

 Kpoints in:            1 . Kpoints trimmed:            1

siesta: k-grid: Number of k-points =     1
siesta: k-grid: Cutoff (effective) =     4.703 Ang
siesta: k-grid: Supercell and displacements
siesta: k-grid:    1   0   0      0.000
siesta: k-grid:    0   1   0      0.000
siesta: k-grid:    0   0   1      0.000


                     ====================================
                        Begin MD step =      1
                     ====================================

outcell: Unit cell vectors (Ang):
        9.405075    0.000000    0.000000
        0.000000    9.405075    0.000000
        0.000000    0.000000    9.405075

outcell: Cell vector modules (Ang)   :    9.405075    9.405075    9.405075
outcell: Cell angles (23,13,12) (deg):     90.0000     90.0000     90.0000
outcell: Cell volume (Ang**3)        :    831.9300
 Folding of H and S is implicitly performed
<dSpData1D:S at geom step 1
  <sparsity:sparsity for geom step 1
    nrows_g=575 nrows=72 sparsity=.0531 nnzs=17554, refcount: 7>
  <dData1D:(new from dSpData1D) n=17554, refcount: 1>
refcount: 1>
new_DM -- step:     1
Initializing Density Matrix...
DM filled with atomic data:
<dSpData2D:DM initialized from atoms
  <sparsity:sparsity for geom step 1
    nrows_g=575 nrows=72 sparsity=.0531 nnzs=17554, refcount: 8>
  <dData2D:DM n=17554 m=1, refcount: 1>
refcount: 1>

No. of atoms with KB's overlaping orbs in proc 0. Max # of overlaps:      69      96
New grid distribution:   1
           1       1:   36    1:   18    1:    9
           2       1:   36    1:   18   10:   18
           3       1:   36    1:   18   19:   27
           4       1:   36    1:   18   28:   36
           5       1:   36   19:   36    1:    9
           6       1:   36   19:   36   10:   18
           7       1:   36   19:   36   19:   27
           8       1:   36   19:   36   28:   36

InitMesh: MESH =    72 x    72 x    72 =      373248
InitMesh: (bp) =    36 x    36 x    36 =       46656
InitMesh: Mesh cutoff (required, used) =   150.000   161.973 Ry
ExtMesh (bp) on 0 =    88 x    70 x    61 =      375760
New grid distribution:   2
           1       1:   18   17:   36    1:   19
           2      18:   36    1:   16    1:   19
           3       1:   17    1:   16    1:   19
           4      21:   36    1:   15   20:   36
           5      19:   36   17:   36    1:   19
           6       1:   20    1:   15   20:   36
           7      23:   36   16:   36   20:   36
           8       1:   22   16:   36   20:   36
New grid distribution:   3
           1       1:   18   19:   36   19:   36
           2      19:   36    1:   18    1:   18
           3      19:   36    1:   18   19:   36
           4      19:   36   19:   36    1:   18
           5       1:   18    1:   18   19:   36
           6       1:   18    1:   18    1:   18
           7      19:   36   19:   36   19:   36
           8       1:   18   19:   36    1:   18
Setting up quadratic distribution...
ExtMesh (bp) on 0 =    70 x    72 x    71 =      357840
PhiOnMesh: Number of (b)points on node 0 =                 6840
PhiOnMesh: nlist on node 0 =               202498

stepf: Fermi-Dirac step function

siesta: Program's energy decomposition (eV):
siesta: Ebs     =     -1386.329304
siesta: Eions   =     20396.361970
siesta: Ena     =      4788.911936
siesta: Ekin    =     10533.930310
siesta: Enl     =     -2018.882722
siesta: Eso     =         0.000000
siesta: Eldau   =         0.000000
siesta: DEna    =     -1645.891720
siesta: DUscf   =       312.362883
siesta: DUext   =         0.000000
siesta: Exc     =     -3170.960046
siesta: eta*DQ  =         0.000000
siesta: Emadel  =         0.000000
siesta: Emeta   =         0.000000
siesta: Emolmec =         0.000000
siesta: Ekinion =         0.000000
siesta: Eharris =    -11358.943640
siesta: Etot    =    -11596.891329
siesta: FreeEng =    -11596.891329

siesta: iscf =    1
Eharris(eV) =     -11358.9436  E_KS(eV) =     -11596.8913  dDmax =   0.952200

timer: Routine,Calls,Time,% = IterSCF        1       0.723  28.98

siesta: iscf =    2
Eharris(eV) =     -11823.7932  E_KS(eV) =     -11735.4264  dDmax =   0.521202

+---------------------------------------------+
| OMM (sparse algebra+preconditioning)        |
+---------------------------------------------+
|             E_OMM            E_diff         |
|     1     1 -1.1155267E+002  1.0710651E-003 |
|     1     2 -1.1157318E+002  1.8391161E-004 |
|     1     3 -1.1157984E+002  5.9663873E-005 |
|     1     4 -1.1158155E+002  1.5304225E-005 |
|     1     5 -1.1158185E+002  2.7174537E-006 |
|     1     6 -1.1158196E+002  9.3643958E-007 |
|     1     7 -1.1158200E+002  3.8471157E-007 |
|     1     8 -1.1158201E+002  9.6199659E-008 |
|     1     9 -1.1158201E+002  2.9742550E-008 |
|     1    10 -1.1158201E+002  9.0249581E-009 |
|     1    11 -1.1158201E+002  4.0746586E-009 |
|     1    12 -1.1158201E+002  1.2993587E-009 |
|     1    13 -1.1158201E+002  3.8205024E-010 |
+---------------------------------------------+
| minim: icg             =    13              |
| minim: 2*Tr[(2*I-S)*S] =   200.0000000      |
+---------------------------------------------+

siesta: iscf =    3
Eharris(eV) =     -11748.5707  E_KS(eV) =     -11745.2764  dDmax =   0.206128

+---------------------------------------------+
| OMM (sparse algebra+preconditioning)        |
+---------------------------------------------+
|             E_OMM            E_diff         |
|     1     1 -1.1261622E+002  2.3265021E-005 |
|     1     2 -1.1261666E+002  3.8574265E-006 |
|     1     3 -1.1261679E+002  1.1887522E-006 |
|     1     4 -1.1261683E+002  3.6362438E-007 |
|     1     5 -1.1261684E+002  9.0985614E-008 |
|     1     6 -1.1261685E+002  2.0917186E-008 |
|     1     7 -1.1261685E+002  6.8064199E-009 |
|     1     8 -1.1261685E+002  2.7209359E-009 |
|     1     9 -1.1261685E+002  6.3684759E-010 |
+---------------------------------------------+
| minim: icg             =     9              |
| minim: 2*Tr[(2*I-S)*S] =   200.0000000      |
+---------------------------------------------+

siesta: iscf =    4
Eharris(eV) =     -11745.3255  E_KS(eV) =     -11745.3461  dDmax =   0.044535

+---------------------------------------------+
| OMM (sparse algebra+preconditioning)        |
+---------------------------------------------+
|             E_OMM            E_diff         |
|     1     1 -1.1218125E+002  4.8084437E-006 |
|     1     2 -1.1218138E+002  1.0768477E-006 |
|     1     3 -1.1218140E+002  1.8813806E-007 |
|     1     4 -1.1218140E+002  7.5277869E-008 |
|     1     5 -1.1218141E+002  1.7678473E-008 |
|     1     6 -1.1218141E+002  5.0900706E-009 |
|     1     7 -1.1218141E+002  2.1395905E-009 |
|     1     8 -1.1218141E+002  7.9445282E-010 |
+---------------------------------------------+
| minim: icg             =     8              |
| minim: 2*Tr[(2*I-S)*S] =   200.0000000      |
+---------------------------------------------+

siesta: iscf =    5
Eharris(eV) =     -11745.4102  E_KS(eV) =     -11745.3919  dDmax =   0.012232

+---------------------------------------------+
| OMM (sparse algebra+preconditioning)        |
+---------------------------------------------+
|             E_OMM            E_diff         |
|     1     1 -1.1217610E+002  6.9676219E-008 |
|     1     2 -1.1217610E+002  6.7801987E-009 |
|     1     3 -1.1217610E+002  1.9629347E-009 |
|     1     4 -1.1217610E+002  9.0283516E-010 |
+---------------------------------------------+
| minim: icg             =     4              |
| minim: 2*Tr[(2*I-S)*S] =   200.0000000      |
+---------------------------------------------+

siesta: iscf =    6
Eharris(eV) =     -11745.3937  E_KS(eV) =     -11745.3929  dDmax =   0.003345

+---------------------------------------------+
| OMM (sparse algebra+preconditioning)        |
+---------------------------------------------+
|             E_OMM            E_diff         |
|     1     1 -1.1215694E+002  6.8175734E-008 |
|     1     2 -1.1215694E+002  6.5298277E-009 |
|     1     3 -1.1215694E+002  1.8474185E-009 |
|     1     4 -1.1215694E+002  1.0178219E-009 |
|     1     5 -1.1215694E+002  3.2087353E-010 |
+---------------------------------------------+
| minim: icg             =     5              |
| minim: 2*Tr[(2*I-S)*S] =   200.0000000      |
+---------------------------------------------+

siesta: iscf =    7
Eharris(eV) =     -11745.3937  E_KS(eV) =     -11745.3933  dDmax =   0.003216

+---------------------------------------------+
| OMM (sparse algebra+preconditioning)        |
+---------------------------------------------+
|             E_OMM            E_diff         |
|     1     1 -1.1214169E+002  7.7709111E-009 |
|     1     2 -1.1214169E+002  9.4795324E-010 |
+---------------------------------------------+
| minim: icg             =     2              |
| minim: 2*Tr[(2*I-S)*S] =   200.0000000      |
+---------------------------------------------+

siesta: iscf =    8
Eharris(eV) =     -11745.3934  E_KS(eV) =     -11745.3933  dDmax =   0.000820

+---------------------------------------------+
| OMM (sparse algebra)                        |
+---------------------------------------------+
|             E_OMM            E_diff         |
|     1     1 -1.1213787E+002  2.6569455E-010 |
+---------------------------------------------+
| minim: icg             =     1              |
| minim: 2*Tr[(2*I-S)*S] =   200.0000000      |
+---------------------------------------------+

siesta: iscf =    9
Eharris(eV) =     -11745.3933  E_KS(eV) =     -11745.3933  dDmax =   0.000018

+---------------------------------------------+
| OMM (sparse algebra)                        |
+---------------------------------------------+
|             E_OMM            E_diff         |
|     1     1 -1.1213616E+002  3.9111743E-010 |
+---------------------------------------------+
| minim: icg             =     1              |
| minim: 2*Tr[(2*I-S)*S] =   200.0000000      |
+---------------------------------------------+

siesta: iscf =   10
Eharris(eV) =     -11745.3933  E_KS(eV) =     -11745.3933  dDmax =   0.000015


SCF Convergence by DM+H criterion
max |DM_out - DM_in|         :     0.0000154396
max |H_out - H_in|      (eV) :     0.0003711578
SCF cycle converged after 10 iterations

Using DM_out to compute the final energy and forces
No. of atoms with KB's overlaping orbs in proc 0. Max # of overlaps:      69      96

siesta: E_KS(eV) =           -11745.3933

siesta: E_KS - E_eggbox =    -11745.3933

siesta: Atomic forces (eV/Ang):
----------------------------------------
   Tot    0.170695    0.178786   -0.069926
----------------------------------------
   Max    1.215220
   Res    0.407486    sqrt( Sum f_i^2 / 3N )
----------------------------------------
   Max    1.215220    constrained

Stress-tensor-Voigt (kbar):        5.71        9.85       15.42        1.40        6.64        1.24
(Free)E + p*V (eV/cell)   -11750.7542
Target enthalpy (eV/cell)   -11745.3933

siesta: Stress tensor (static) (eV/Ang**3):
         0.003563    0.000876    0.000771
         0.000877    0.006146    0.004147
         0.000771    0.004146    0.009622

siesta: Pressure (static):        -10.32428033  kBar

siesta: Stress tensor (total) (eV/Ang**3):
         0.003563    0.000876    0.000771
         0.000877    0.006146    0.004147
         0.000771    0.004146    0.009622

siesta: Pressure (total):        -10.32428033  kBar

siesta: Temp_ion =       0.000 K

                     ====================================
                        Begin MD step =      2
                     ====================================

outcell: Unit cell vectors (Ang):
        9.405075    0.000000    0.000000
        0.000000    9.405075    0.000000
        0.000000    0.000000    9.405075

outcell: Cell vector modules (Ang)   :    9.405075    9.405075    9.405075
outcell: Cell angles (23,13,12) (deg):     90.0000     90.0000     90.0000
outcell: Cell volume (Ang**3)        :    831.9300
 Folding of H and S is implicitly performed
<dSpData1D:S at geom step 2
  <sparsity:sparsity for geom step 2
    nrows_g=575 nrows=72 sparsity=.0531 nnzs=17557, refcount: 7>
  <dData1D:(new from dSpData1D) n=17557, refcount: 1>
refcount: 1>
new_DM -- step:     2
Re-using DM from previous geometries...
Number of DMs in history: 1
 DM extrapolation coefficients: 
1   1.00000
New DM after history re-use:
<dSpData2D:SpM extrapolated using coords
  <sparsity:sparsity for geom step 2
    nrows_g=575 nrows=72 sparsity=.0531 nnzs=17557, refcount: 8>
  <dData2D:(temp array for extrapolation) n=17557 m=1, refcount: 1>
refcount: 1>
No. of atoms with KB's overlaping orbs in proc 0. Max # of overlaps:      69      96
New grid distribution:   1
           1       1:   36    1:   18    1:    9
           2       1:   36    1:   18   10:   18
           3       1:   36    1:   18   19:   27
           4       1:   36    1:   18   28:   36
           5       1:   36   19:   36    1:    9
           6       1:   36   19:   36   10:   18
           7       1:   36   19:   36   19:   27
           8       1:   36   19:   36   28:   36

InitMesh: MESH =    72 x    72 x    72 =      373248
InitMesh: (bp) =    36 x    36 x    36 =       46656
InitMesh: Mesh cutoff (required, used) =   150.000   161.973 Ry
ExtMesh (bp) on 0 =    88 x    70 x    61 =      375760
New grid distribution:   2
           1       1:   18   17:   36    1:   19
           2      18:   36    1:   16    1:   19
           3       1:   17    1:   16    1:   19
           4      21:   36    1:   15   20:   36
           5      19:   36   17:   36    1:   19
           6       1:   20    1:   15   20:   36
           7      23:   36   16:   36   20:   36
           8       1:   22   16:   36   20:   36
New grid distribution:   3
           1       1:   18   19:   36   19:   36
           2      19:   36    1:   18    1:   18
           3      19:   36    1:   18   19:   36
           4      19:   36   19:   36    1:   18
           5       1:   18    1:   18   19:   36
           6       1:   18    1:   18    1:   18
           7      19:   36   19:   36   19:   36
           8       1:   18   19:   36    1:   18
Setting up quadratic distribution...
ExtMesh (bp) on 0 =    70 x    72 x    71 =      357840
PhiOnMesh: Number of (b)points on node 0 =                 6840
PhiOnMesh: nlist on node 0 =               202497

siesta: iscf =    1
Eharris(eV) =     -11745.3904  E_KS(eV) =     -11745.4069  dDmax =   0.006725

+---------------------------------------------+
| OMM (sparse algebra+preconditioning)        |
+---------------------------------------------+
|             E_OMM            E_diff         |
|     1     1 -1.1213144E+002  1.0789080E-008 |
|     1     2 -1.1213144E+002  2.1184009E-009 |
|     1     3 -1.1213144E+002  6.0151075E-010 |
+---------------------------------------------+
| minim: icg             =     3              |
| minim: 2*Tr[(2*I-S)*S] =   200.0000000      |
+---------------------------------------------+

siesta: iscf =    2
Eharris(eV) =     -11745.4068  E_KS(eV) =     -11745.4069  dDmax =   0.001408

+---------------------------------------------+
| OMM (sparse algebra+preconditioning)        |
+---------------------------------------------+
|             E_OMM            E_diff         |
|     1     1 -1.1213930E+002  3.4330455E-009 |
|     1     2 -1.1213930E+002  5.6372051E-010 |
+---------------------------------------------+
| minim: icg             =     2              |
| minim: 2*Tr[(2*I-S)*S] =   200.0000000      |
+---------------------------------------------+

siesta: iscf =    3
Eharris(eV) =     -11745.4069  E_KS(eV) =     -11745.4069  dDmax =   0.000777

+---------------------------------------------+
| OMM (sparse algebra+preconditioning)        |
+---------------------------------------------+
|             E_OMM            E_diff         |
|     1     1 -1.1214148E+002  5.1279879E-010 |
+---------------------------------------------+
| minim: icg             =     1              |
| minim: 2*Tr[(2*I-S)*S] =   200.0000000      |
+---------------------------------------------+

siesta: iscf =    4
Eharris(eV) =     -11745.4069  E_KS(eV) =     -11745.4069  dDmax =   0.000095

+---------------------------------------------+
| OMM (sparse algebra)                        |
+---------------------------------------------+
|             E_OMM            E_diff         |
|     1     1 -1.1214074E+002  1.3178181E-010 |
+---------------------------------------------+
| minim: icg             =     1              |
| minim: 2*Tr[(2*I-S)*S] =   200.0000000      |
+---------------------------------------------+

siesta: iscf =    5
Eharris(eV) =     -11745.4069  E_KS(eV) =     -11745.4069  dDmax =   0.000020

+---------------------------------------------+
| OMM (sparse algebra)                        |
+---------------------------------------------+
|             E_OMM            E_diff         |
|     1     1 -1.1213966E+002  2.0848352E-011 |
+---------------------------------------------+
| minim: icg             =     1              |
| minim: 2*Tr[(2*I-S)*S] =   200.0000000      |
+---------------------------------------------+

siesta: iscf =    6
Eharris(eV) =     -11745.4069  E_KS(eV) =     -11745.4069  dDmax =   0.000009


SCF Convergence by DM+H criterion
max |DM_out - DM_in|         :     0.0000091032
max |H_out - H_in|      (eV) :     0.0002185181
SCF cycle converged after 6 iterations

Using DM_out to compute the final energy and forces
No. of atoms with KB's overlaping orbs in proc 0. Max # of overlaps:      69      96

siesta: E_KS(eV) =           -11745.4069

siesta: Atomic forces (eV/Ang):
----------------------------------------
   Tot    0.170736    0.179467   -0.069356
----------------------------------------
   Max    1.196519
   Res    0.399715    sqrt( Sum f_i^2 / 3N )
----------------------------------------
   Max    1.196519    constrained

Stress-tensor-Voigt (kbar):        5.70        9.76       15.21        1.37        6.53        1.23
(Free)E + p*V (eV/cell)   -11750.7152
Target enthalpy (eV/cell)   -11745.4069

siesta: Stress tensor (static) (eV/Ang**3):
         0.003555    0.000853    0.000767
         0.000853    0.006094    0.004076
         0.000767    0.004076    0.009493

siesta: Pressure (static):        -10.22320518  kBar

siesta: Stress tensor (total) (eV/Ang**3):
         0.003555    0.000853    0.000767
         0.000853    0.006094    0.004076
         0.000767    0.004076    0.009493

siesta: Pressure (total):        -10.22320518  kBar

siesta: Temp_ion =       1.405 K

siesta: Program's energy decomposition (eV):
siesta: Ebs     =     -2851.506311
siesta: Eions   =     20396.361970
siesta: Ena     =      4788.911134
siesta: Ekin    =      8836.999480
siesta: Enl     =     -1599.536332
siesta: Eso     =         0.000000
siesta: Eldau   =         0.000000
siesta: DEna    =      -547.627563
siesta: DUscf   =        58.711713
siesta: DUext   =         0.000000
siesta: Exc     =     -2886.503370
siesta: eta*DQ  =         0.000000
siesta: Emadel  =         0.000000
siesta: Emeta   =         0.000000
siesta: Emolmec =         0.000000
siesta: Ekinion =         0.013442
siesta: Eharris =    -11745.393466
siesta: Etot    =    -11745.393466
siesta: FreeEng =    -11745.393466

siesta: Final energy (eV):
siesta:  Band Struct. =   -2851.506311
siesta:       Kinetic =    8836.999480
siesta:       Hartree =    5978.017088
siesta:       Eldau   =       0.000000
siesta:       Eso     =       0.000000
siesta:    Ext. field =       0.000000
siesta:   Exch.-corr. =   -2886.503370
siesta:  Ion-electron =  -19899.749100
siesta:       Ion-ion =   -3774.171006
siesta:       Ekinion =       0.013442
siesta:         Total =  -11745.393466
siesta:         Fermi =      -2.826996

siesta: Atomic forces (eV/Ang):
siesta:      1    0.396750   -0.124563    0.412314
siesta:      2   -0.100806   -0.012438    0.518638
siesta:      3   -0.467862   -0.158823   -0.818348
siesta:      4   -0.440139    0.097768    0.364917
siesta:      5    0.237617    0.476613   -0.066818
siesta:      6    0.160330   -0.665606   -0.536421
siesta:      7    0.064514    0.057170   -0.225498
siesta:      8   -0.216730   -0.092314   -0.173192
siesta:      9    0.004541   -0.034718    0.247464
siesta:     10   -0.085827   -0.335394    0.238332
siesta:     11    0.329544    0.715871   -0.603667
siesta:     12   -0.085380    0.095360    0.121107
siesta:     13    0.417956    0.106562   -0.301115
siesta:     14    0.133493   -0.081882   -0.712325
siesta:     15   -0.684347   -0.176134    0.975029
siesta:     16    0.058907    0.598471    0.453227
siesta:     17   -0.073291   -0.576357   -0.700337
siesta:     18    0.003140    0.059828    0.285906
siesta:     19    0.731131   -0.614036    0.351017
siesta:     20   -0.494928    0.106858   -0.299695
siesta:     21   -0.298012    0.010939   -0.006395
siesta:     22    0.651264    0.546517   -0.152389
siesta:     23   -0.141848   -0.277397    0.180466
siesta:     24   -0.154905   -0.247875    0.032152
siesta:     25   -0.212128    0.398910    0.376933
siesta:     26    0.046410   -0.846474    0.104794
siesta:     27    0.250416    0.542554   -0.402385
siesta:     28   -0.002295   -0.217117    1.177323
siesta:     29    0.140150    0.215939   -0.276277
siesta:     30    0.295978   -0.118014   -0.788734
siesta:     31    0.151059   -0.397236   -0.150259
siesta:     32    0.168788    0.307644   -0.032592
siesta:     33    0.073084    0.122611   -0.125077
siesta:     34   -0.154123    0.443893    0.216790
siesta:     35   -0.032928   -0.101060   -0.395320
siesta:     36   -0.151225   -0.075165    0.122696
siesta:     37    0.430397    0.343397    0.319046
siesta:     38   -0.334835   -0.265683   -0.096760
siesta:     39    0.065112   -0.179201    0.101163
siesta:     40   -0.612030   -0.116267    0.623191
siesta:     41    0.767272   -0.299193   -0.316432
siesta:     42   -0.280190    0.356274   -0.364698
siesta:     43   -0.389887   -0.387085   -0.623094
siesta:     44   -0.274346   -0.004264   -0.247392
siesta:     45    0.649446    0.812746    1.146547
siesta:     46   -0.336142    0.021001   -0.100436
siesta:     47    0.225798   -0.034393   -0.160828
siesta:     48    0.011891   -0.054351    0.017214
siesta:     49   -0.663655   -0.315351   -0.221779
siesta:     50    0.725832    0.333324    0.422316
siesta:     51   -0.316883   -0.097249   -0.477750
siesta:     52   -0.168943    0.547252    0.260128
siesta:     53    0.211580   -0.095508   -0.341585
siesta:     54   -0.259202   -0.014953   -0.179570
siesta:     55   -0.328429    0.423813   -0.948944
siesta:     56    0.528409   -0.107366    0.616843
siesta:     57   -0.199417   -0.201248    0.141090
siesta:     58    0.709627   -0.249525   -0.148127
siesta:     59   -0.360316    0.071289    0.105509
siesta:     60   -0.543766   -0.057055    0.140258
siesta:     61    1.196519    0.027872   -0.722505
siesta:     62   -0.642742   -0.084718    0.534029
siesta:     63   -0.579375   -0.141770    0.540262
siesta:     64   -0.047231   -0.109151    0.466400
siesta:     65    0.135692    0.069597    0.336439
siesta:     66    0.190618    0.142226   -0.260575
siesta:     67    0.205220   -1.033120   -1.020072
siesta:     68    0.018092    0.250034    0.127016
siesta:     69    0.161125    0.586411    0.919631
siesta:     70    0.197169    0.280726   -0.280839
siesta:     71    0.179887   -0.120501    0.326219
siesta:     72   -0.517917    0.042595   -0.129447
siesta:     73   -0.054369    0.870240   -0.302437
siesta:     74   -0.071868   -0.635414   -0.088887
siesta:     75    0.024292   -0.146871    0.407240
siesta: ----------------------------------------
siesta:    Tot    0.170736    0.179467   -0.069356

siesta: Stress tensor (static) (eV/Ang**3):
siesta:     0.003555    0.000853    0.000767
siesta:     0.000853    0.006094    0.004076
siesta:     0.000767    0.004076    0.009493

siesta: Cell volume =        831.929999 Ang**3

siesta: Pressure (static):
siesta:                Solid            Molecule  Units
siesta:          -0.00006949         -0.00006324  Ry/Bohr**3
siesta:          -0.00638075         -0.00580651  eV/Ang**3
siesta:         -10.22320518         -9.30316292  kBar
(Free)E+ p_basis*V_orbitals  =      -11732.383781
(Free)Eharris+ p_basis*V_orbitals  =      -11732.383781
>> End of run:   2-JUL-2017  11:57:52
Job completed
