Siesta Version: siesta-4.0--527
Architecture  : x86_64-linux-n-62-18-14
Compiler flags: mpifort -m64 -fPIC -O3 -march=native -ftree-vectorize -fexpensive-optimizatioons -funroll-loops -fprefetch-loop-arrays -fno-second-underscore 
PP flags      : -I/zdata/groups/common/nicpa/2016-oct/generic/build-tools/1.0/include -I/zdatta/groups/common/nicpa/2016-oct/generic/gmp/6.1.0/include -I/zdata/groups/common/nicpa/2016-oct/generic/mpfr/3.1.4/include -I/zdata/groups/common/nicpa/2016-oct/generic/mpc/1.0.3/include -I/zdata/groups/common/nicpa/2016-oct/generic/isl/0.16.1/include -I/zdata/groups/common/nicpa/2016-oct/generic/gcc/6.2.0/include -I/zdata/groups/common/nicpa/2016-oct/generic/numactl/2.0.11/include -I/zdata/groups/common/nicpa/2016-oct/XeonE5-2665/zlib/1.2.8/gnu-6.2.0/include -I/zdata/groups/common/nicpa/2016-oct/XeonE5-2665/libxml2/2.9.4/gnu-6.2.0/include -I/zdata/groups/common/nicpa/2016-oct/XeonE5-2665/hwloc/1.11.4/gnu-6.2.0/include -I/zdata/groups/common/nicpa/2016-oct/XeonE5-2665/openmpi/2.0.1/gnu-6.2.0/include -I/zdata/groups/common/nicpa/2016-oct/XeonE5-2665/hdf5/1.8.17/gnu-6.2.0/include -I/zdata/groups/common/nicpa/2016-oct/XeonE5-2665/pnetcdf/1.7.0/gnu-6.2.0/include -I/zdata/groups/common/nicpa/2016-oct/XeonE5-2665/netcdf/4.4.1/gnu-6.2.0/include -I/zdata/groups/common/nicpa/2016-oct/XeonE5-2665/flook/0.7.0/gnu-6.2.0/include -I/zdata/groups/common/nicpa/2016-oct/XeonE5-2665/parmetis/4.0.3/gnu-6.2.0/include -I/zdata/groups/common/nicpa/2016-oct/XeonE5-2665/scalapack/204/gnu-6.2.0/include -I/zdata/groups/common/nicpa/2016-oct/XeonE5-2665/openblas/0.2.19/gnu-6.2.0/include -I/zdata/groups/common/nicpa/2016-oct/XeonE5-2665/mumps/5.0.2/gnu-6.2.0/include -I/zdata/groups/common/nicpa/2016-oct/XeonE5-2665/fftw/3.3.5/gnu-6.2.0/include -DMPI -DFC_HAVE_FLUSH -DFC_HAVE_ABORT -DCDF  -DSIESTA__METIS -DSIESTA__MUMPS -DTS_NOCHECKS -DSIESTA__FLOOK  
PARALLEL version
NetCDF support

* Running on    8 nodes in parallel
>> Start of run:   2-JUL-2017  12:02:28

                           ***********************       
                           *  WELCOME TO SIESTA  *       
                           ***********************       

reinit: Reading from standard input
************************** Dump of input data file ****************************
SystemName          OMM_si
SystemLabel         OMM_si
NumberOfAtoms       8
NumberOfSpecies     1
SolutionMethod OMM
OMM.UseCholesky .true.
OMM.Use2D .true.
OMM.Eigenvalues .true.
OMM.LongOutput .true.
%block kgrid_Monkhorst_Pack
2 0 0 0.5
0 2 0 0.5
0 0 2 0.5
%endblock kgrid_Monkhorst_Pack
%block ChemicalSpeciesLabel
 1  14  Si
%endblock ChemicalSpeciesLabel
PAO.BasisType split
%Block PAO.Basis
Si   3      0.11629
 n=3   0   2   E    47.72154     5.15176
     8.00000     1.81575
     1.00000     1.00000
 n=3   1   2   E    16.47985     5.10819
     8.00000     4.05391
     1.00000     1.00000
 n=3   2   1   E     9.50149     0.00018
     4.44687
     1.00000
%EndBlock PAO.Basis
LatticeConstant 5.43 Ang
%block LatticeVectors
1.0 0.0 0.0
0.0 1.0 0.0
0.0 0.0 1.0
%endblock LatticeVectors
AtomicCoordinatesFormat Fractional
%block AtomicCoordinatesAndAtomicSpecies
  0.000000000000000       0.000000000000000       0.000000000000000     1
  0.250000000000000       0.250000000000000       0.250000000000000     1
  0.500000000000000       0.500000000000000       0.000000000000000     1
  0.750000000000000       0.750000000000000       0.250000000000000     1
  0.500000000000000       0.000000000000000       0.500000000000000     1
  0.000000000000000       0.500000000000000       0.500000000000000     1
  0.750000000000000       0.250000000000000       0.750000000000000     1
  0.250000000000000       0.750000000000000       0.750000000000000     1
%endblock AtomicCoordinatesAndAtomicSpecies
************************** End of input data file *****************************

reinit: -----------------------------------------------------------------------
reinit: System Name: OMM_si
reinit: -----------------------------------------------------------------------
reinit: System Label: OMM_si                                                      
reinit: -----------------------------------------------------------------------

initatom: Reading input for the pseudopotentials and atomic orbitals ----------
 Species number:            1  Label: Si Atomic number:          14
Ground state valence configuration:   3s02  3p02
Reading pseudopotential information in formatted form from Si.psf

Valence configuration for pseudopotential generation:
3s( 2.00) rc: 1.89
3p( 2.00) rc: 1.89
3d( 0.00) rc: 1.89
4f( 0.00) rc: 1.89
For Si, standard SIESTA heuristics set lmxkb to 3
 (one more than the basis l, including polarization orbitals).
Use PS.lmax or PS.KBprojectors blocks to override.

<basis_specs>
===============================================================================
Si                   Z=  14    Mass=  28.090        Charge= 0.11629    
Lmxo=2 Lmxkb= 3    BasisType=split      Semic=F
L=0  Nsemic=0  Cnfigmx=3
          n=1  nzeta=2  polorb=0
            splnorm:   0.15000    
               vcte:    47.722    
               rinn:    5.1518    
               qcoe:    0.0000    
               qyuk:    0.0000    
               qwid:   0.10000E-01
                rcs:    8.0000      1.8157    
            lambdas:    1.0000      1.0000    
L=1  Nsemic=0  Cnfigmx=3
          n=1  nzeta=2  polorb=0
            splnorm:   0.15000    
               vcte:    16.480    
               rinn:    5.1082    
               qcoe:    0.0000    
               qyuk:    0.0000    
               qwid:   0.10000E-01
                rcs:    8.0000      4.0539    
            lambdas:    1.0000      1.0000    
L=2  Nsemic=0  Cnfigmx=3
          n=1  nzeta=1  polorb=0
            splnorm:   0.15000    
               vcte:    9.5015    
               rinn:   0.18000E-03
               qcoe:    0.0000    
               qyuk:    0.0000    
               qwid:   0.10000E-01
                rcs:    4.4469    
            lambdas:    1.0000    
-------------------------------------------------------------------------------
L=0  Nkbl=1  erefs: 0.17977+309
L=1  Nkbl=1  erefs: 0.17977+309
L=2  Nkbl=1  erefs: 0.17977+309
L=3  Nkbl=1  erefs: 0.17977+309
===============================================================================
</basis_specs>

atom: Called for Si                    (Z =  14)

read_vps: Pseudopotential generation method:
read_vps: ATM3      Troullier-Martins                       
Total valence charge:    4.00000

xc_check: Exchange-correlation functional:
xc_check: Ceperley-Alder
V l=0 = -2*Zval/r beyond r=  2.5494
V l=1 = -2*Zval/r beyond r=  2.5494
V l=2 = -2*Zval/r beyond r=  2.5494
V l=3 = -2*Zval/r beyond r=  2.5494
All V_l potentials equal beyond r=  1.8652
This should be close to max(r_c) in ps generation
All pots = -2*Zval/r beyond r=  2.5494
Using large-core scheme for Vlocal

atom: Estimated core radius    2.54944

atom: Including non-local core corrections could be a good idea
atom: Maximum radius for 4*pi*r*r*local-pseudopot. charge    2.85303
atom: Maximum radius for r*vlocal+2*Zval:    2.58151
GHOST: No ghost state for L =  0
GHOST: No ghost state for L =  1
GHOST: No ghost state for L =  2
GHOST: No ghost state for L =  3

KBgen: Kleinman-Bylander projectors: 
   l= 0   rc=  1.936440   el= -0.796617   Ekb=  4.661340   kbcos=  0.299756
   l= 1   rc=  1.936440   el= -0.307040   Ekb=  1.494238   kbcos=  0.301471
   l= 2   rc=  1.936440   el=  0.002313   Ekb= -2.808672   kbcos= -0.054903
   l= 3   rc=  1.936440   el=  0.003402   Ekb= -0.959059   kbcos= -0.005513

KBgen: Total number of  Kleinman-Bylander projectors:   16
atom: -------------------------------------------------------------------------

atom: SANKEY-TYPE ORBITALS:
atom: Selected multiple-zeta basis: split     

atom: basis set generated (by rescaling the valence charge)
atom: for a cation of charge   0.1163

SPLIT: Orbitals with angular momentum L= 0

SPLIT: Basis orbitals for state 3s

   izeta = 1
                 lambda =    1.000000
                     rc =    8.052001
                 energy =   -0.880603
                kinetic =    0.521474
    potential(screened) =   -1.402076
       potential(ionic) =   -3.764519

   izeta = 2
                 rmatch =    1.841990
              splitnorm =    1.106433
                 energy =    5.410922
                kinetic =    4.223643
    potential(screened) =    1.187279
       potential(ionic) =   -1.853088

SPLIT: Orbitals with angular momentum L= 1

SPLIT: Basis orbitals for state 3p

   izeta = 1
                 lambda =    1.000000
                     rc =    8.052001
                 energy =   -0.377399
                kinetic =    0.856566
    potential(screened) =   -1.233964
       potential(ionic) =   -3.404940

   izeta = 2
                 rmatch =    4.099641
              splitnorm =    0.346377
                 energy =   -0.117443
                kinetic =    1.651168
    potential(screened) =   -1.768612
       potential(ionic) =   -4.245213

SPLIT: Orbitals with angular momentum L= 2

SPLIT: Basis orbitals for state 3d

   izeta = 1
                 lambda =    1.000000
                     rc =    4.530823
                 energy =    0.710805
                kinetic =    3.090474
    potential(screened) =   -2.379669
       potential(ionic) =   -4.824413
atom: Total number of Sankey-type orbitals: 13

atm_pop: Valence configuration (for local Pseudopot. screening):
 3s( 2.00)                                                            
 3p( 2.00)                                                            
 3d( 0.00)                                                            
Vna: chval, zval:    4.00000   4.00000

Vna:  Cut-off radius for the neutral-atom potential:   8.052001

atom: _________________________________________________________________________

prinput: Basis input ----------------------------------------------------------

PAO.BasisType split     

%block ChemicalSpeciesLabel
    1   14 Si                      # Species index, atomic number, species label
%endblock ChemicalSpeciesLabel

%block PAO.Basis                 # Define Basis set
Si                    3   0.116            # Label, l-shells, ionic net charge
 n=3   0   2                         # n, l, Nzeta 
   8.052      1.842   
   1.000      1.000   
 n=3   1   2                         # n, l, Nzeta 
   8.052      4.100   
   1.000      1.000   
 n=3   2   1                         # n, l, Nzeta 
   4.531   
   1.000   
%endblock PAO.Basis

prinput: ----------------------------------------------------------------------

Dumping basis to NetCDF file Si.ion.nc
coor:   Atomic-coordinates input format  =     Fractional

siesta: Atomic coordinates (Bohr) and species
siesta:      0.00000   0.00000   0.00000  1        1
siesta:      2.56530   2.56530   2.56530  1        2
siesta:      5.13061   5.13061   0.00000  1        3
siesta:      7.69591   7.69591   2.56530  1        4
siesta:      5.13061   0.00000   5.13061  1        5
siesta:      0.00000   5.13061   5.13061  1        6
siesta:      7.69591   2.56530   7.69591  1        7
siesta:      2.56530   7.69591   7.69591  1        8

siesta: System type = bulk      

initatomlists: Number of atoms, orbitals, and projectors:      8   104   128

siesta: ******************** Simulation parameters ****************************
siesta:
siesta: The following are some of the parameters of the simulation.
siesta: A complete list of the parameters used, including default values,
siesta: can be found in file out.fdf
siesta:
redata: Non-Collinear-spin run           =     F
redata: SpinPolarized (Up/Down) run      =     F
redata: Number of spin components        =     1
redata: Long output                      =     F
redata: Number of Atomic Species         =        1
redata: Charge density info will appear in .RHO file
redata: Write Mulliken Pop.              =     NO
redata: Mesh Cutoff                      =   100.0000  Ry
redata: Net charge of the system         =     0.0000 |e|
redata: Min. number of SCF Iter          =        0
redata: Max. number of SCF Iter          =       50
redata: Mix DM or H after convergence    =     F
redata: Recompute H after scf cycle      =     F
redata: Mixing is linear
redata: Mix DM in first SCF step ?       =     F
redata: Write Pulay info on disk?        =     F
redata: Discard 1st Pulay DM after  kick =     F
redata: New DM Mixing Weight             =     0.2500
redata: New DM Occupancy tolerance       = 0.000000000001
redata: No kicks to SCF
redata: DM Mixing Weight for Kicks       =     0.5000
redata: DM Tolerance for SCF             =     0.000100
redata: Require (free) Energy convergence in SCF =     F
redata: DM (free)Energy tolerance for SCF =     0.000010 eV
redata: Require Harris convergence for SCF =     F
redata: DM Harris energy tolerance for SCF =     0.000010 eV
redata: Using Saved Data (generic)   =     F
redata: Use continuation files for DM    =     F
redata: Neglect nonoverlap interactions  =     F
redata: Method of Calculation            =     Orbital Minimization Method
redata: Fix the spin of the system       =     F
redata: Dynamics option                  =     Single-point calculation
redata: ***********************************************************************
Total number of electrons:    32.000000
Total ionic charge:    32.000000

* ProcessorY, Blocksize:    2  13


* Orbital distribution balance (max,min):    13    13

 Kpoints in:            4 . Kpoints trimmed:            4

siesta: k-grid: Number of k-points =     4
siesta: k-grid: Cutoff (effective) =     5.430 Ang
siesta: k-grid: Supercell and displacements
siesta: k-grid:    2   0   0      0.500
siesta: k-grid:    0   2   0      0.500
siesta: k-grid:    0   0   2      0.500
Naive supercell factors:     4    4    4

superc: Internal auxiliary supercell:     4 x     4 x     4  =      64
superc: Number of atoms, orbitals, and projectors:    512   6656   8192

                     ====================================
                        Single-point calculation
                     ====================================

superc: Internal auxiliary supercell:     4 x     4 x     4  =      64
superc: Number of atoms, orbitals, and projectors:    512   6656   8192

outcell: Unit cell vectors (Ang):
        5.430000    0.000000    0.000000
        0.000000    5.430000    0.000000
        0.000000    0.000000    5.430000

outcell: Cell vector modules (Ang)   :    5.430000    5.430000    5.430000
outcell: Cell angles (23,13,12) (deg):     90.0000     90.0000     90.0000
outcell: Cell volume (Ang**3)        :    160.1030
New_DM. Step:     1
Initializing Density Matrix...
New grid distribution:   1
           1       1:   18    1:    9    1:    5
           2       1:   18    1:    9    6:   10
           3       1:   18    1:    9   11:   14
           4       1:   18    1:    9   15:   18
           5       1:   18   10:   18    1:    5
           6       1:   18   10:   18    6:   10
           7       1:   18   10:   18   11:   14
           8       1:   18   10:   18   15:   18

InitMesh: MESH =    36 x    36 x    36 =       46656
InitMesh: (bp) =    18 x    18 x    18 =        5832
InitMesh: Mesh cutoff (required, used) =   100.000   121.481 Ry
ExtMesh (bp) on 0 =    78 x    69 x    65 =      349830
New grid distribution:   2
           1       1:    9   10:   18   10:   18
           2      10:   18    1:    9    1:    9
           3      10:   18    1:    9   10:   18
           4      10:   18   10:   18    1:    9
           5       1:    9    1:    9   10:   18
           6       1:    9    1:    9    1:    9
           7      10:   18   10:   18   10:   18
           8       1:    9   10:   18    1:    9
New grid distribution:   3
           1       1:    9   10:   18   10:   18
           2      10:   18    1:    9    1:    9
           3      10:   18    1:    9   10:   18
           4      10:   18   10:   18    1:    9
           5       1:    9    1:    9   10:   18
           6       1:    9    1:    9    1:    9
           7      10:   18   10:   18   10:   18
           8       1:    9   10:   18    1:    9
Setting up quadratic distribution...
ExtMesh (bp) on 0 =    69 x    69 x    69 =      328509
PhiOnMesh: Number of (b)points on node 0 =                  729
PhiOnMesh: nlist on node 0 =                69169
+---------------------------------------------+
| OMM (Cholesky factorization)                |
+---------------------------------------------+
| k point      1 of      4                    |
+---------------------------------------------+
|             E_OMM            E_diff         |
|     1     1  7.8860684E-005  1.5093857E+000 |
|     1     2 -2.3384079E-004  4.0353757E+000 |
|     1     3 -2.3177733E+000  1.9995965E+000 |
|     1     4 -2.3179925E+000  9.4556540E-005 |
|     1     5 -5.9098238E+000  8.7309469E-001 |
|     1     6 -7.7917795E+000  2.7470590E-001 |
|     1     7 -9.3182562E+000  1.7843057E-001 |
|     1     8 -1.0372228E+001  1.0705391E-001 |
|     1     9 -1.1118579E+001  6.9457728E-002 |
|     1    10 -1.1549000E+001  3.7976783E-002 |
|     1    11 -1.1835254E+001  2.4482598E-002 |
|     1    12 -1.2002566E+001  1.4037553E-002 |
|     1    13 -1.2064006E+001  5.1058111E-003 |
|     1    14 -1.2081947E+001  1.4860723E-003 |
|     1    15 -1.2092443E+001  8.6835215E-004 |
|     1    16 -1.2104182E+001  9.7030157E-004 |
|     1    17 -1.2108583E+001  3.6355452E-004 |
|     1    18 -1.2109568E+001  8.1289572E-005 |
|     1    19 -1.2110041E+001  3.9077005E-005 |
|     1    20 -1.2110530E+001  4.0419076E-005 |
|     1    21 -1.2110813E+001  2.3312995E-005 |
|     1    22 -1.2110912E+001  8.2317649E-006 |
|     1    23 -1.2110959E+001  3.8254026E-006 |
|     1    24 -1.2110988E+001  2.4008298E-006 |
|     1    25 -1.2111004E+001  1.3389009E-006 |
|     1    26 -1.2111011E+001  6.2303394E-007 |
|     1    27 -1.2111016E+001  3.6809698E-007 |
|     1    28 -1.2111018E+001  1.6352307E-007 |
|     1    29 -1.2111019E+001  5.8335600E-008 |
|     1    30 -1.2111019E+001  2.4092394E-008 |
|     1    31 -1.2111019E+001  1.0553999E-008 |
|     1    32 -1.2111019E+001  5.1069365E-009 |
|     1    33 -1.2111019E+001  2.3107133E-009 |
|     1    34 -1.2111019E+001  1.1259660E-009 |
|     1    35 -1.2111019E+001  6.8569700E-010 |
+---------------------------------------------+
| minim: icg             =    35              |
| minim: 2*Tr[(2*I-S)*S] =    32.0000000      |
+---------------------------------------------+
| k point      2 of      4                    |
+---------------------------------------------+
|             E_OMM            E_diff         |
|     1     1 -1.0516284E+001  3.1143776E-001 |
|     1     2 -1.1388280E+001  7.9617812E-002 |
|     1     3 -1.1767276E+001  3.2734755E-002 |
|     1     4 -1.1915379E+001  1.2507307E-002 |
|     1     5 -1.2004863E+001  7.4818756E-003 |
|     1     6 -1.2052895E+001  3.9930499E-003 |
|     1     7 -1.2078415E+001  2.1150408E-003 |
|     1     8 -1.2094520E+001  1.3324984E-003 |
|     1     9 -1.2102750E+001  6.8021133E-004 |
|     1    10 -1.2106679E+001  3.2458834E-004 |
|     1    11 -1.2108611E+001  1.5960915E-004 |
|     1    12 -1.2109719E+001  9.1479143E-005 |
|     1    13 -1.2110299E+001  4.7928414E-005 |
|     1    14 -1.2110645E+001  2.8584527E-005 |
|     1    15 -1.2110834E+001  1.5543214E-005 |
|     1    16 -1.2110936E+001  8.4207700E-006 |
|     1    17 -1.2110983E+001  3.9011188E-006 |
|     1    18 -1.2111003E+001  1.6323744E-006 |
|     1    19 -1.2111011E+001  7.0006563E-007 |
|     1    20 -1.2111015E+001  3.1677109E-007 |
|     1    21 -1.2111017E+001  1.5775143E-007 |
|     1    22 -1.2111018E+001  9.1733464E-008 |
|     1    23 -1.2111019E+001  4.4670024E-008 |
|     1    24 -1.2111019E+001  2.1877508E-008 |
|     1    25 -1.2111019E+001  1.4434837E-008 |
|     1    26 -1.2111019E+001  7.5321805E-009 |
|     1    27 -1.2111019E+001  4.2658046E-009 |
|     1    28 -1.2111019E+001  2.0886975E-009 |
|     1    29 -1.2111019E+001  1.0564249E-009 |
|     1    30 -1.2111019E+001  4.2532437E-010 |
+---------------------------------------------+
| minim: icg             =    30              |
| minim: 2*Tr[(2*I-S)*S] =    32.0000000      |
+---------------------------------------------+
| k point      3 of      4                    |
+---------------------------------------------+
|             E_OMM            E_diff         |
|     1     1 -1.0511791E+001  3.0892185E-001 |
|     1     2 -1.1379243E+001  7.9251761E-002 |
|     1     3 -1.1762610E+001  3.3131969E-002 |
|     1     4 -1.1913426E+001  1.2739977E-002 |
|     1     5 -1.2002602E+001  7.4574143E-003 |
|     1     6 -1.2050199E+001  3.9577079E-003 |
|     1     7 -1.2076490E+001  2.1794361E-003 |
|     1     8 -1.2093411E+001  1.4001016E-003 |
|     1     9 -1.2102142E+001  7.2173736E-004 |
|     1    10 -1.2106389E+001  3.5086779E-004 |
|     1    11 -1.2108419E+001  1.6770220E-004 |
|     1    12 -1.2109614E+001  9.8660310E-005 |
|     1    13 -1.2110244E+001  5.1973313E-005 |
|     1    14 -1.2110619E+001  3.1008013E-005 |
|     1    15 -1.2110820E+001  1.6614019E-005 |
|     1    16 -1.2110929E+001  8.9925392E-006 |
|     1    17 -1.2110980E+001  4.2060201E-006 |
|     1    18 -1.2111001E+001  1.7523279E-006 |
|     1    19 -1.2111011E+001  7.6251022E-007 |
|     1    20 -1.2111015E+001  3.2807992E-007 |
|     1    21 -1.2111017E+001  1.7079514E-007 |
|     1    22 -1.2111018E+001  1.0084646E-007 |
|     1    23 -1.2111018E+001  5.0255190E-008 |
|     1    24 -1.2111019E+001  2.6024679E-008 |
|     1    25 -1.2111019E+001  1.5666441E-008 |
|     1    26 -1.2111019E+001  8.2785595E-009 |
|     1    27 -1.2111019E+001  4.6190858E-009 |
|     1    28 -1.2111019E+001  2.2526209E-009 |
|     1    29 -1.2111019E+001  1.1888091E-009 |
|     1    30 -1.2111019E+001  4.8568564E-010 |
+---------------------------------------------+
| minim: icg             =    30              |
| minim: 2*Tr[(2*I-S)*S] =    32.0000000      |
+---------------------------------------------+
| k point      4 of      4                    |
+---------------------------------------------+
|             E_OMM            E_diff         |
|     1     1 -1.0419851E+001  3.1057549E-001 |
|     1     2 -1.1318813E+001  8.2706259E-002 |
|     1     3 -1.1747094E+001  3.7135429E-002 |
|     1     4 -1.1921076E+001  1.4701768E-002 |
|     1     5 -1.2010079E+001  7.4382575E-003 |
|     1     6 -1.2054922E+001  3.7267654E-003 |
|     1     7 -1.2080684E+001  2.1347659E-003 |
|     1     8 -1.2096552E+001  1.3127099E-003 |
|     1     9 -1.2104289E+001  6.3934305E-004 |
|     1    10 -1.2107923E+001  3.0018586E-004 |
|     1    11 -1.2109444E+001  1.2565983E-004 |
|     1    12 -1.2110170E+001  5.9959899E-005 |
|     1    13 -1.2110519E+001  2.8752717E-005 |
|     1    14 -1.2110741E+001  1.8353324E-005 |
|     1    15 -1.2110873E+001  1.0910042E-005 |
|     1    16 -1.2110949E+001  6.2825765E-006 |
|     1    17 -1.2110986E+001  3.0632549E-006 |
|     1    18 -1.2111003E+001  1.4112872E-006 |
|     1    19 -1.2111012E+001  7.1345234E-007 |
|     1    20 -1.2111016E+001  2.9227718E-007 |
|     1    21 -1.2111017E+001  1.4919053E-007 |
|     1    22 -1.2111018E+001  8.2709503E-008 |
|     1    23 -1.2111019E+001  3.1474548E-008 |
|     1    24 -1.2111019E+001  1.7084320E-008 |
|     1    25 -1.2111019E+001  8.3402362E-009 |
|     1    26 -1.2111019E+001  4.2644665E-009 |
|     1    27 -1.2111019E+001  2.8052979E-009 |
|     1    28 -1.2111019E+001  1.7007184E-009 |
|     1    29 -1.2111019E+001  9.6573303E-010 |
+---------------------------------------------+
| minim: icg             =    29              |
| minim: 2*Tr[(2*I-S)*S] =    32.0000000      |
+---------------------------------------------+

siesta: Program's energy decomposition (eV):
siesta: Ebs     =      -329.560209
siesta: Eions   =      1523.208495
siesta: Ena     =       467.238590
siesta: Ekin    =       300.002387
siesta: Enl     =       141.881739
siesta: DEna    =         0.000000
siesta: DUscf   =         0.000000
siesta: DUext   =         0.000000
siesta: Exc     =      -256.750933
siesta: eta*DQ  =         0.000000
siesta: Emadel  =         0.000000
siesta: Emeta   =         0.000000
siesta: Emolmec =         0.000000
siesta: Ekinion =         0.000000
siesta: Eharris =      -863.051072
siesta: Etot    =      -870.836712
siesta: FreeEng =      -870.836712

siesta: iscf =    1
Eharris(eV) =       -863.0511  E_KS(eV) =       -870.8367  dDmax =  0.7791

timer: Routine,Calls,Time,% =    IterSCF     1       0.283  15.31
+---------------------------------------------+
| OMM (Cholesky factorization)                |
+---------------------------------------------+
| k point      1 of      4                    |
+---------------------------------------------+
|             E_OMM            E_diff         |
|     1     1 -1.1702719E+001  2.6211497E-004 |
|     1     2 -1.1703380E+001  5.6518347E-005 |
|     1     3 -1.1703512E+001  1.1264698E-005 |
|     1     4 -1.1703582E+001  5.9633482E-006 |
|     1     5 -1.1703605E+001  1.9394958E-006 |
|     1     6 -1.1703614E+001  8.0007216E-007 |
|     1     7 -1.1703620E+001  4.6341386E-007 |
|     1     8 -1.1703621E+001  1.5909050E-007 |
|     1     9 -1.1703622E+001  9.2129025E-008 |
|     1    10 -1.1703623E+001  2.9936778E-008 |
|     1    11 -1.1703623E+001  8.3470521E-009 |
|     1    12 -1.1703623E+001  4.1731787E-009 |
|     1    13 -1.1703623E+001  1.6544993E-009 |
|     1    14 -1.1703623E+001  9.3309579E-010 |
+---------------------------------------------+
| minim: icg             =    14              |
| minim: 2*Tr[(2*I-S)*S] =    32.0000000      |
+---------------------------------------------+
| k point      2 of      4                    |
+---------------------------------------------+
|             E_OMM            E_diff         |
|     1     1 -1.1702719E+001  2.6213216E-004 |
|     1     2 -1.1703380E+001  5.6499853E-005 |
|     1     3 -1.1703512E+001  1.1279961E-005 |
|     1     4 -1.1703582E+001  5.9686624E-006 |
|     1     5 -1.1703605E+001  1.9368359E-006 |
|     1     6 -1.1703614E+001  8.0240726E-007 |
|     1     7 -1.1703620E+001  4.6380866E-007 |
|     1     8 -1.1703621E+001  1.5877781E-007 |
|     1     9 -1.1703623E+001  9.2388826E-008 |
|     1    10 -1.1703623E+001  2.9992542E-008 |
|     1    11 -1.1703623E+001  8.2354973E-009 |
|     1    12 -1.1703623E+001  4.1900476E-009 |
|     1    13 -1.1703623E+001  1.6440156E-009 |
|     1    14 -1.1703623E+001  9.2383715E-010 |
+---------------------------------------------+
| minim: icg             =    14              |
| minim: 2*Tr[(2*I-S)*S] =    32.0000000      |
+---------------------------------------------+
| k point      3 of      4                    |
+---------------------------------------------+
|             E_OMM            E_diff         |
|     1     1 -1.1702719E+001  2.6213114E-004 |
|     1     2 -1.1703380E+001  5.6493793E-005 |
|     1     3 -1.1703512E+001  1.1284575E-005 |
|     1     4 -1.1703582E+001  5.9699637E-006 |
|     1     5 -1.1703605E+001  1.9365619E-006 |
|     1     6 -1.1703614E+001  8.0259890E-007 |
|     1     7 -1.1703620E+001  4.6386331E-007 |
|     1     8 -1.1703622E+001  1.5883366E-007 |
|     1     9 -1.1703623E+001  9.2302288E-008 |
|     1    10 -1.1703623E+001  2.9979692E-008 |
|     1    11 -1.1703623E+001  8.2317764E-009 |
|     1    12 -1.1703623E+001  4.1929531E-009 |
|     1    13 -1.1703623E+001  1.6435894E-009 |
|     1    14 -1.1703623E+001  9.2445731E-010 |
+---------------------------------------------+
| minim: icg             =    14              |
| minim: 2*Tr[(2*I-S)*S] =    32.0000000      |
+---------------------------------------------+
| k point      4 of      4                    |
+---------------------------------------------+
|             E_OMM            E_diff         |
|     1     1 -1.1702719E+001  2.6213813E-004 |
|     1     2 -1.1703381E+001  5.6531524E-005 |
|     1     3 -1.1703513E+001  1.1253789E-005 |
|     1     4 -1.1703582E+001  5.9594096E-006 |
|     1     5 -1.1703605E+001  1.9386515E-006 |
|     1     6 -1.1703614E+001  8.0082604E-007 |
|     1     7 -1.1703620E+001  4.6337815E-007 |
|     1     8 -1.1703622E+001  1.5890000E-007 |
|     1     9 -1.1703623E+001  9.2345265E-008 |
|     1    10 -1.1703623E+001  3.0031753E-008 |
|     1    11 -1.1703623E+001  8.3158524E-009 |
|     1    12 -1.1703623E+001  4.1556222E-009 |
|     1    13 -1.1703623E+001  1.6671178E-009 |
|     1    14 -1.1703623E+001  9.2317174E-010 |
+---------------------------------------------+
| minim: icg             =    14              |
| minim: 2*Tr[(2*I-S)*S] =    32.0000000      |
+---------------------------------------------+

siesta: iscf =    2
Eharris(eV) =       -862.6962  E_KS(eV) =       -862.5882  dDmax =  0.0611

+---------------------------------------------+
| OMM (Cholesky factorization)                |
+---------------------------------------------+
| k point      1 of      4                    |
+---------------------------------------------+
|             E_OMM            E_diff         |
|     1     1 -1.1733982E+001  1.7391692E-006 |
|     1     2 -1.1733985E+001  2.8312253E-007 |
|     1     3 -1.1733988E+001  2.3188933E-007 |
|     1     4 -1.1733988E+001  4.7956740E-008 |
|     1     5 -1.1733989E+001  1.1592579E-008 |
|     1     6 -1.1733989E+001  8.7570880E-009 |
|     1     7 -1.1733989E+001  3.0926203E-009 |
|     1     8 -1.1733989E+001  9.4548538E-010 |
+---------------------------------------------+
| minim: icg             =     8              |
| minim: 2*Tr[(2*I-S)*S] =    32.0000000      |
+---------------------------------------------+
| k point      2 of      4                    |
+---------------------------------------------+
|             E_OMM            E_diff         |
|     1     1 -1.1733982E+001  1.7391998E-006 |
|     1     2 -1.1733985E+001  2.8311045E-007 |
|     1     3 -1.1733988E+001  2.3187234E-007 |
|     1     4 -1.1733988E+001  4.7958815E-008 |
|     1     5 -1.1733989E+001  1.1589612E-008 |
|     1     6 -1.1733989E+001  8.7575246E-009 |
|     1     7 -1.1733989E+001  3.0960379E-009 |
|     1     8 -1.1733989E+001  9.4219274E-010 |
+---------------------------------------------+
| minim: icg             =     8              |
| minim: 2*Tr[(2*I-S)*S] =    32.0000000      |
+---------------------------------------------+
| k point      3 of      4                    |
+---------------------------------------------+
|             E_OMM            E_diff         |
|     1     1 -1.1733982E+001  1.7391857E-006 |
|     1     2 -1.1733985E+001  2.8311528E-007 |
|     1     3 -1.1733988E+001  2.3188141E-007 |
|     1     4 -1.1733988E+001  4.7958903E-008 |
|     1     5 -1.1733989E+001  1.1589570E-008 |
|     1     6 -1.1733989E+001  8.7578260E-009 |
|     1     7 -1.1733989E+001  3.0961092E-009 |
|     1     8 -1.1733989E+001  9.4210479E-010 |
+---------------------------------------------+
| minim: icg             =     8              |
| minim: 2*Tr[(2*I-S)*S] =    32.0000000      |
+---------------------------------------------+
| k point      4 of      4                    |
+---------------------------------------------+
|             E_OMM            E_diff         |
|     1     1 -1.1733982E+001  1.7391349E-006 |
|     1     2 -1.1733985E+001  2.8315061E-007 |
|     1     3 -1.1733988E+001  2.3192023E-007 |
|     1     4 -1.1733989E+001  4.7955884E-008 |
|     1     5 -1.1733989E+001  1.1593231E-008 |
|     1     6 -1.1733989E+001  8.7597472E-009 |
|     1     7 -1.1733989E+001  3.0927005E-009 |
|     1     8 -1.1733989E+001  9.4484062E-010 |
+---------------------------------------------+
| minim: icg             =     8              |
| minim: 2*Tr[(2*I-S)*S] =    32.0000000      |
+---------------------------------------------+

siesta: iscf =    3
Eharris(eV) =       -862.6815  E_KS(eV) =       -862.6130  dDmax =  0.0403

+---------------------------------------------+
| OMM (Cholesky factorization)                |
+---------------------------------------------+
| k point      1 of      4                    |
+---------------------------------------------+
|             E_OMM            E_diff         |
|     1     1 -1.1754204E+001  7.7260938E-007 |
|     1     2 -1.1754205E+001  1.2576507E-007 |
|     1     3 -1.1754206E+001  1.0309122E-007 |
|     1     4 -1.1754207E+001  2.1238322E-008 |
|     1     5 -1.1754207E+001  5.7027811E-009 |
|     1     6 -1.1754207E+001  4.5506416E-009 |
|     1     7 -1.1754207E+001  1.4390820E-009 |
|     1     8 -1.1754207E+001  5.1362408E-010 |
+---------------------------------------------+
| minim: icg             =     8              |
| minim: 2*Tr[(2*I-S)*S] =    32.0000000      |
+---------------------------------------------+
| k point      2 of      4                    |
+---------------------------------------------+
|             E_OMM            E_diff         |
|     1     1 -1.1754204E+001  7.7260402E-007 |
|     1     2 -1.1754205E+001  1.2577084E-007 |
|     1     3 -1.1754206E+001  1.0309694E-007 |
|     1     4 -1.1754207E+001  2.1236964E-008 |
|     1     5 -1.1754207E+001  5.7033979E-009 |
|     1     6 -1.1754207E+001  4.5523145E-009 |
|     1     7 -1.1754207E+001  1.4400684E-009 |
|     1     8 -1.1754207E+001  5.1232531E-010 |
+---------------------------------------------+
| minim: icg             =     8              |
| minim: 2*Tr[(2*I-S)*S] =    32.0000000      |
+---------------------------------------------+
| k point      3 of      4                    |
+---------------------------------------------+
|             E_OMM            E_diff         |
|     1     1 -1.1754204E+001  7.7260267E-007 |
|     1     2 -1.1754205E+001  1.2577138E-007 |
|     1     3 -1.1754206E+001  1.0309718E-007 |
|     1     4 -1.1754207E+001  2.1237077E-008 |
|     1     5 -1.1754207E+001  5.7033620E-009 |
|     1     6 -1.1754207E+001  4.5525493E-009 |
|     1     7 -1.1754207E+001  1.4402067E-009 |
|     1     8 -1.1754207E+001  5.1215801E-010 |
+---------------------------------------------+
| minim: icg             =     8              |
| minim: 2*Tr[(2*I-S)*S] =    32.0000000      |
+---------------------------------------------+
| k point      4 of      4                    |
+---------------------------------------------+
|             E_OMM            E_diff         |
|     1     1 -1.1754204E+001  7.7261411E-007 |
|     1     2 -1.1754205E+001  1.2576575E-007 |
|     1     3 -1.1754206E+001  1.0309263E-007 |
|     1     4 -1.1754207E+001  2.1239967E-008 |
|     1     5 -1.1754207E+001  5.7032070E-009 |
|     1     6 -1.1754207E+001  4.5498400E-009 |
|     1     7 -1.1754207E+001  1.4386480E-009 |
|     1     8 -1.1754207E+001  5.1476492E-010 |
+---------------------------------------------+
| minim: icg             =     8              |
| minim: 2*Tr[(2*I-S)*S] =    32.0000000      |
+---------------------------------------------+

siesta: iscf =    4
Eharris(eV) =       -862.6749  E_KS(eV) =       -862.6291  dDmax =  0.0266

+---------------------------------------------+
| OMM (Cholesky factorization)                |
+---------------------------------------------+
| k point      1 of      4                    |
+---------------------------------------------+
|             E_OMM            E_diff         |
|     1     1 -1.1767670E+001  3.4297903E-007 |
|     1     2 -1.1767671E+001  5.5480169E-008 |
|     1     3 -1.1767671E+001  4.5229321E-008 |
|     1     4 -1.1767671E+001  9.4198150E-009 |
|     1     5 -1.1767671E+001  2.4928928E-009 |
|     1     6 -1.1767671E+001  2.0124531E-009 |
|     1     7 -1.1767671E+001  6.3746363E-010 |
+---------------------------------------------+
| minim: icg             =     7              |
| minim: 2*Tr[(2*I-S)*S] =    32.0000000      |
+---------------------------------------------+
| k point      2 of      4                    |
+---------------------------------------------+
|             E_OMM            E_diff         |
|     1     1 -1.1767670E+001  3.4298332E-007 |
|     1     2 -1.1767671E+001  5.5480096E-008 |
|     1     3 -1.1767671E+001  4.5228179E-008 |
|     1     4 -1.1767671E+001  9.4201924E-009 |
|     1     5 -1.1767671E+001  2.4930142E-009 |
|     1     6 -1.1767671E+001  2.0125728E-009 |
|     1     7 -1.1767671E+001  6.3758288E-010 |
+---------------------------------------------+
| minim: icg             =     7              |
| minim: 2*Tr[(2*I-S)*S] =    32.0000000      |
+---------------------------------------------+
| k point      3 of      4                    |
+---------------------------------------------+
|             E_OMM            E_diff         |
|     1     1 -1.1767670E+001  3.4298263E-007 |
|     1     2 -1.1767671E+001  5.5480231E-008 |
|     1     3 -1.1767671E+001  4.5228255E-008 |
|     1     4 -1.1767671E+001  9.4202031E-009 |
|     1     5 -1.1767671E+001  2.4930181E-009 |
|     1     6 -1.1767671E+001  2.0125773E-009 |
|     1     7 -1.1767671E+001  6.3759315E-010 |
+---------------------------------------------+
| minim: icg             =     7              |
| minim: 2*Tr[(2*I-S)*S] =    32.0000000      |
+---------------------------------------------+
| k point      4 of      4                    |
+---------------------------------------------+
|             E_OMM            E_diff         |
|     1     1 -1.1767670E+001  3.4297851E-007 |
|     1     2 -1.1767671E+001  5.5481551E-008 |
|     1     3 -1.1767671E+001  4.5231283E-008 |
|     1     4 -1.1767671E+001  9.4201193E-009 |
|     1     5 -1.1767671E+001  2.4929324E-009 |
|     1     6 -1.1767671E+001  2.0125624E-009 |
|     1     7 -1.1767671E+001  6.3756265E-010 |
+---------------------------------------------+
| minim: icg             =     7              |
| minim: 2*Tr[(2*I-S)*S] =    32.0000000      |
+---------------------------------------------+

siesta: iscf =    5
Eharris(eV) =       -862.6720  E_KS(eV) =       -862.6401  dDmax =  0.0175

+---------------------------------------------+
| OMM (Cholesky factorization)                |
+---------------------------------------------+
| k point      1 of      4                    |
+---------------------------------------------+
|             E_OMM            E_diff         |
|     1     1 -1.1776642E+001  1.5157074E-007 |
|     1     2 -1.1776642E+001  2.4941900E-008 |
|     1     3 -1.1776642E+001  2.0531614E-008 |
|     1     4 -1.1776642E+001  4.4650110E-009 |
|     1     5 -1.1776642E+001  1.1243350E-009 |
|     1     6 -1.1776642E+001  9.0094692E-010 |
+---------------------------------------------+
| minim: icg             =     6              |
| minim: 2*Tr[(2*I-S)*S] =    32.0000000      |
+---------------------------------------------+
| k point      2 of      4                    |
+---------------------------------------------+
|             E_OMM            E_diff         |
|     1     1 -1.1776642E+001  1.5157151E-007 |
|     1     2 -1.1776642E+001  2.4942139E-008 |
|     1     3 -1.1776642E+001  2.0531594E-008 |
|     1     4 -1.1776642E+001  4.4650588E-009 |
|     1     5 -1.1776642E+001  1.1243733E-009 |
|     1     6 -1.1776642E+001  9.0092430E-010 |
+---------------------------------------------+
| minim: icg             =     6              |
| minim: 2*Tr[(2*I-S)*S] =    32.0000000      |
+---------------------------------------------+
| k point      3 of      4                    |
+---------------------------------------------+
|             E_OMM            E_diff         |
|     1     1 -1.1776642E+001  1.5157108E-007 |
|     1     2 -1.1776642E+001  2.4942243E-008 |
|     1     3 -1.1776642E+001  2.0531746E-008 |
|     1     4 -1.1776642E+001  4.4650830E-009 |
|     1     5 -1.1776642E+001  1.1243605E-009 |
|     1     6 -1.1776642E+001  9.0091766E-010 |
+---------------------------------------------+
| minim: icg             =     6              |
| minim: 2*Tr[(2*I-S)*S] =    32.0000000      |
+---------------------------------------------+
| k point      4 of      4                    |
+---------------------------------------------+
|             E_OMM            E_diff         |
|     1     1 -1.1776642E+001  1.5157110E-007 |
|     1     2 -1.1776642E+001  2.4942227E-008 |
|     1     3 -1.1776642E+001  2.0531890E-008 |
|     1     4 -1.1776642E+001  4.4650679E-009 |
|     1     5 -1.1776642E+001  1.1244344E-009 |
|     1     6 -1.1776642E+001  9.0103848E-010 |
+---------------------------------------------+
| minim: icg             =     6              |
| minim: 2*Tr[(2*I-S)*S] =    32.0000000      |
+---------------------------------------------+

siesta: iscf =    6
Eharris(eV) =       -862.6707  E_KS(eV) =       -862.6479  dDmax =  0.0115

+---------------------------------------------+
| OMM (Cholesky factorization)                |
+---------------------------------------------+
| k point      1 of      4                    |
+---------------------------------------------+
|             E_OMM            E_diff         |
|     1     1 -1.1782620E+001  6.7648789E-008 |
|     1     2 -1.1782621E+001  1.0981003E-008 |
|     1     3 -1.1782621E+001  8.8962234E-009 |
|     1     4 -1.1782621E+001  2.2169633E-009 |
|     1     5 -1.1782621E+001  5.7792463E-010 |
+---------------------------------------------+
| minim: icg             =     5              |
| minim: 2*Tr[(2*I-S)*S] =    32.0000000      |
+---------------------------------------------+
| k point      2 of      4                    |
+---------------------------------------------+
|             E_OMM            E_diff         |
|     1     1 -1.1782620E+001  6.7649063E-008 |
|     1     2 -1.1782621E+001  1.0981085E-008 |
|     1     3 -1.1782621E+001  8.8963201E-009 |
|     1     4 -1.1782621E+001  2.2170536E-009 |
|     1     5 -1.1782621E+001  5.7791664E-010 |
+---------------------------------------------+
| minim: icg             =     5              |
| minim: 2*Tr[(2*I-S)*S] =    32.0000000      |
+---------------------------------------------+
| k point      3 of      4                    |
+---------------------------------------------+
|             E_OMM            E_diff         |
|     1     1 -1.1782620E+001  6.7648859E-008 |
|     1     2 -1.1782621E+001  1.0981139E-008 |
|     1     3 -1.1782621E+001  8.8963799E-009 |
|     1     4 -1.1782621E+001  2.2170714E-009 |
|     1     5 -1.1782621E+001  5.7791137E-010 |
+---------------------------------------------+
| minim: icg             =     5              |
| minim: 2*Tr[(2*I-S)*S] =    32.0000000      |
+---------------------------------------------+
| k point      4 of      4                    |
+---------------------------------------------+
|             E_OMM            E_diff         |
|     1     1 -1.1782620E+001  6.7648891E-008 |
|     1     2 -1.1782621E+001  1.0981185E-008 |
|     1     3 -1.1782621E+001  8.8963630E-009 |
|     1     4 -1.1782621E+001  2.2169932E-009 |
|     1     5 -1.1782621E+001  5.7799263E-010 |
+---------------------------------------------+
| minim: icg             =     5              |
| minim: 2*Tr[(2*I-S)*S] =    32.0000000      |
+---------------------------------------------+

siesta: iscf =    7
Eharris(eV) =       -862.6701  E_KS(eV) =       -862.6535  dDmax =  0.0075

+---------------------------------------------+
| OMM (Cholesky factorization)                |
+---------------------------------------------+
| k point      1 of      4                    |
+---------------------------------------------+
|             E_OMM            E_diff         |
|     1     1 -1.1786606E+001  2.9657048E-008 |
|     1     2 -1.1786606E+001  5.1835503E-009 |
|     1     3 -1.1786606E+001  4.7648958E-009 |
|     1     4 -1.1786606E+001  9.3008535E-010 |
+---------------------------------------------+
| minim: icg             =     4              |
| minim: 2*Tr[(2*I-S)*S] =    32.0000000      |
+---------------------------------------------+
| k point      2 of      4                    |
+---------------------------------------------+
|             E_OMM            E_diff         |
|     1     1 -1.1786606E+001  2.9656973E-008 |
|     1     2 -1.1786606E+001  5.1837623E-009 |
|     1     3 -1.1786606E+001  4.7649623E-009 |
|     1     4 -1.1786606E+001  9.3010509E-010 |
+---------------------------------------------+
| minim: icg             =     4              |
| minim: 2*Tr[(2*I-S)*S] =    32.0000000      |
+---------------------------------------------+
| k point      3 of      4                    |
+---------------------------------------------+
|             E_OMM            E_diff         |
|     1     1 -1.1786606E+001  2.9656860E-008 |
|     1     2 -1.1786606E+001  5.1837971E-009 |
|     1     3 -1.1786606E+001  4.7649935E-009 |
|     1     4 -1.1786606E+001  9.3011127E-010 |
+---------------------------------------------+
| minim: icg             =     4              |
| minim: 2*Tr[(2*I-S)*S] =    32.0000000      |
+---------------------------------------------+
| k point      4 of      4                    |
+---------------------------------------------+
|             E_OMM            E_diff         |
|     1     1 -1.1786606E+001  2.9657169E-008 |
|     1     2 -1.1786606E+001  5.1835429E-009 |
|     1     3 -1.1786606E+001  4.7650213E-009 |
|     1     4 -1.1786606E+001  9.3007540E-010 |
+---------------------------------------------+
| minim: icg             =     4              |
| minim: 2*Tr[(2*I-S)*S] =    32.0000000      |
+---------------------------------------------+

siesta: iscf =    8
Eharris(eV) =       -862.6699  E_KS(eV) =       -862.6576  dDmax =  0.0050

+---------------------------------------------+
| OMM (Cholesky factorization)                |
+---------------------------------------------+
| k point      1 of      4                    |
+---------------------------------------------+
|             E_OMM            E_diff         |
|     1     1 -1.1789262E+001  1.2724025E-008 |
|     1     2 -1.1789262E+001  2.6158006E-009 |
|     1     3 -1.1789262E+001  2.5426526E-009 |
|     1     4 -1.1789262E+001  4.7391947E-010 |
+---------------------------------------------+
| minim: icg             =     4              |
| minim: 2*Tr[(2*I-S)*S] =    32.0000000      |
+---------------------------------------------+
| k point      2 of      4                    |
+---------------------------------------------+
|             E_OMM            E_diff         |
|     1     1 -1.1789262E+001  1.2724014E-008 |
|     1     2 -1.1789262E+001  2.6158943E-009 |
|     1     3 -1.1789262E+001  2.5427174E-009 |
|     1     4 -1.1789262E+001  4.7391058E-010 |
+---------------------------------------------+
| minim: icg             =     4              |
| minim: 2*Tr[(2*I-S)*S] =    32.0000000      |
+---------------------------------------------+
| k point      3 of      4                    |
+---------------------------------------------+
|             E_OMM            E_diff         |
|     1     1 -1.1789262E+001  1.2723966E-008 |
|     1     2 -1.1789262E+001  2.6158960E-009 |
|     1     3 -1.1789262E+001  2.5427338E-009 |
|     1     4 -1.1789262E+001  4.7391299E-010 |
+---------------------------------------------+
| minim: icg             =     4              |
| minim: 2*Tr[(2*I-S)*S] =    32.0000000      |
+---------------------------------------------+
| k point      4 of      4                    |
+---------------------------------------------+
|             E_OMM            E_diff         |
|     1     1 -1.1789262E+001  1.2724051E-008 |
|     1     2 -1.1789262E+001  2.6158574E-009 |
|     1     3 -1.1789262E+001  2.5426802E-009 |
|     1     4 -1.1789262E+001  4.7392384E-010 |
+---------------------------------------------+
| minim: icg             =     4              |
| minim: 2*Tr[(2*I-S)*S] =    32.0000000      |
+---------------------------------------------+

siesta: iscf =    9
Eharris(eV) =       -862.6698  E_KS(eV) =       -862.6607  dDmax =  0.0032

+---------------------------------------------+
| OMM (Cholesky factorization)                |
+---------------------------------------------+
| k point      1 of      4                    |
+---------------------------------------------+
|             E_OMM            E_diff         |
|     1     1 -1.1791031E+001  5.6024902E-009 |
|     1     2 -1.1791031E+001  1.0795887E-009 |
|     1     3 -1.1791031E+001  1.0957987E-009 |
|     1     4 -1.1791031E+001  2.1167772E-010 |
+---------------------------------------------+
| minim: icg             =     4              |
| minim: 2*Tr[(2*I-S)*S] =    32.0000000      |
+---------------------------------------------+
| k point      2 of      4                    |
+---------------------------------------------+
|             E_OMM            E_diff         |
|     1     1 -1.1791031E+001  5.6024031E-009 |
|     1     2 -1.1791031E+001  1.0796735E-009 |
|     1     3 -1.1791031E+001  1.0958754E-009 |
|     1     4 -1.1791031E+001  2.1163494E-010 |
+---------------------------------------------+
| minim: icg             =     4              |
| minim: 2*Tr[(2*I-S)*S] =    32.0000000      |
+---------------------------------------------+
| k point      3 of      4                    |
+---------------------------------------------+
|             E_OMM            E_diff         |
|     1     1 -1.1791031E+001  5.6023786E-009 |
|     1     2 -1.1791031E+001  1.0796568E-009 |
|     1     3 -1.1791031E+001  1.0958962E-009 |
|     1     4 -1.1791031E+001  2.1162590E-010 |
+---------------------------------------------+
| minim: icg             =     4              |
| minim: 2*Tr[(2*I-S)*S] =    32.0000000      |
+---------------------------------------------+
| k point      4 of      4                    |
+---------------------------------------------+
|             E_OMM            E_diff         |
|     1     1 -1.1791031E+001  5.6025036E-009 |
|     1     2 -1.1791031E+001  1.0797574E-009 |
|     1     3 -1.1791031E+001  1.0956970E-009 |
|     1     4 -1.1791031E+001  2.1175441E-010 |
+---------------------------------------------+
| minim: icg             =     4              |
| minim: 2*Tr[(2*I-S)*S] =    32.0000000      |
+---------------------------------------------+

siesta: iscf =   10
Eharris(eV) =       -862.6697  E_KS(eV) =       -862.6629  dDmax =  0.0021

+---------------------------------------------+
| OMM (Cholesky factorization)                |
+---------------------------------------------+
| k point      1 of      4                    |
+---------------------------------------------+
|             E_OMM            E_diff         |
|     1     1 -1.1792210E+001  2.4728093E-009 |
|     1     2 -1.1792210E+001  4.9396904E-010 |
+---------------------------------------------+
| minim: icg             =     2              |
| minim: 2*Tr[(2*I-S)*S] =    32.0000000      |
+---------------------------------------------+
| k point      2 of      4                    |
+---------------------------------------------+
|             E_OMM            E_diff         |
|     1     1 -1.1792210E+001  2.4727080E-009 |
|     1     2 -1.1792210E+001  4.9406139E-010 |
+---------------------------------------------+
| minim: icg             =     2              |
| minim: 2*Tr[(2*I-S)*S] =    32.0000000      |
+---------------------------------------------+
| k point      3 of      4                    |
+---------------------------------------------+
|             E_OMM            E_diff         |
|     1     1 -1.1792210E+001  2.4726866E-009 |
|     1     2 -1.1792210E+001  4.9405280E-010 |
+---------------------------------------------+
| minim: icg             =     2              |
| minim: 2*Tr[(2*I-S)*S] =    32.0000000      |
+---------------------------------------------+
| k point      4 of      4                    |
+---------------------------------------------+
|             E_OMM            E_diff         |
|     1     1 -1.1792210E+001  2.4728904E-009 |
|     1     2 -1.1792210E+001  4.9404376E-010 |
+---------------------------------------------+
| minim: icg             =     2              |
| minim: 2*Tr[(2*I-S)*S] =    32.0000000      |
+---------------------------------------------+

siesta: iscf =   11
Eharris(eV) =       -862.6697  E_KS(eV) =       -862.6646  dDmax =  0.0013

+---------------------------------------------+
| OMM (Cholesky factorization)                |
+---------------------------------------------+
| k point      1 of      4                    |
+---------------------------------------------+
|             E_OMM            E_diff         |
|     1     1 -1.1793012E+001  1.4285037E-009 |
|     1     2 -1.1793012E+001  1.0493646E-009 |
|     1     3 -1.1793012E+001  3.7452563E-010 |
+---------------------------------------------+
| minim: icg             =     3              |
| minim: 2*Tr[(2*I-S)*S] =    32.0000000      |
+---------------------------------------------+
| k point      2 of      4                    |
+---------------------------------------------+
|             E_OMM            E_diff         |
|     1     1 -1.1793012E+001  1.4287370E-009 |
|     1     2 -1.1793012E+001  1.0492300E-009 |
|     1     3 -1.1793012E+001  3.7448979E-010 |
+---------------------------------------------+
| minim: icg             =     3              |
| minim: 2*Tr[(2*I-S)*S] =    32.0000000      |
+---------------------------------------------+
| k point      3 of      4                    |
+---------------------------------------------+
|             E_OMM            E_diff         |
|     1     1 -1.1793012E+001  1.4288009E-009 |
|     1     2 -1.1793012E+001  1.0491733E-009 |
|     1     3 -1.1793012E+001  3.7449400E-010 |
+---------------------------------------------+
| minim: icg             =     3              |
| minim: 2*Tr[(2*I-S)*S] =    32.0000000      |
+---------------------------------------------+
| k point      4 of      4                    |
+---------------------------------------------+
|             E_OMM            E_diff         |
|     1     1 -1.1793012E+001  1.4279566E-009 |
|     1     2 -1.1793012E+001  1.0498903E-009 |
|     1     3 -1.1793012E+001  3.7449340E-010 |
+---------------------------------------------+
| minim: icg             =     3              |
| minim: 2*Tr[(2*I-S)*S] =    32.0000000      |
+---------------------------------------------+

siesta: iscf =   12
Eharris(eV) =       -862.6697  E_KS(eV) =       -862.6659  dDmax =  0.0009

+---------------------------------------------+
| OMM (Cholesky factorization)                |
+---------------------------------------------+
| k point      1 of      4                    |
+---------------------------------------------+
|             E_OMM            E_diff         |
|     1     1 -1.1793532E+001  4.8055596E-010 |
+---------------------------------------------+
| minim: icg             =     1              |
| minim: 2*Tr[(2*I-S)*S] =    32.0000000      |
+---------------------------------------------+
| k point      2 of      4                    |
+---------------------------------------------+
|             E_OMM            E_diff         |
|     1     1 -1.1793532E+001  4.8051002E-010 |
+---------------------------------------------+
| minim: icg             =     1              |
| minim: 2*Tr[(2*I-S)*S] =    32.0000000      |
+---------------------------------------------+
| k point      3 of      4                    |
+---------------------------------------------+
|             E_OMM            E_diff         |
|     1     1 -1.1793532E+001  4.8052780E-010 |
+---------------------------------------------+
| minim: icg             =     1              |
| minim: 2*Tr[(2*I-S)*S] =    32.0000000      |
+---------------------------------------------+
| k point      4 of      4                    |
+---------------------------------------------+
|             E_OMM            E_diff         |
|     1     1 -1.1793532E+001  4.8038109E-010 |
+---------------------------------------------+
| minim: icg             =     1              |
| minim: 2*Tr[(2*I-S)*S] =    32.0000000      |
+---------------------------------------------+

siesta: iscf =   13
Eharris(eV) =       -862.6697  E_KS(eV) =       -862.6668  dDmax =  0.0006

+---------------------------------------------+
| OMM (Cholesky factorization)                |
+---------------------------------------------+
| k point      1 of      4                    |
+---------------------------------------------+
|             E_OMM            E_diff         |
|     1     1 -1.1793899E+001  5.1282764E-010 |
+---------------------------------------------+
| minim: icg             =     1              |
| minim: 2*Tr[(2*I-S)*S] =    32.0000000      |
+---------------------------------------------+
| k point      2 of      4                    |
+---------------------------------------------+
|             E_OMM            E_diff         |
|     1     1 -1.1793899E+001  5.1295446E-010 |
+---------------------------------------------+
| minim: icg             =     1              |
| minim: 2*Tr[(2*I-S)*S] =    32.0000000      |
+---------------------------------------------+
| k point      3 of      4                    |
+---------------------------------------------+
|             E_OMM            E_diff         |
|     1     1 -1.1793899E+001  5.1291696E-010 |
+---------------------------------------------+
| minim: icg             =     1              |
| minim: 2*Tr[(2*I-S)*S] =    32.0000000      |
+---------------------------------------------+
| k point      4 of      4                    |
+---------------------------------------------+
|             E_OMM            E_diff         |
|     1     1 -1.1793899E+001  5.1313581E-010 |
+---------------------------------------------+
| minim: icg             =     1              |
| minim: 2*Tr[(2*I-S)*S] =    32.0000000      |
+---------------------------------------------+

siesta: iscf =   14
Eharris(eV) =       -862.6697  E_KS(eV) =       -862.6675  dDmax =  0.0004

+---------------------------------------------+
| OMM (Cholesky factorization)                |
+---------------------------------------------+
| k point      1 of      4                    |
+---------------------------------------------+
|             E_OMM            E_diff         |
|     1     1 -1.1794152E+001  4.6029054E-010 |
+---------------------------------------------+
| minim: icg             =     1              |
| minim: 2*Tr[(2*I-S)*S] =    32.0000000      |
+---------------------------------------------+
| k point      2 of      4                    |
+---------------------------------------------+
|             E_OMM            E_diff         |
|     1     1 -1.1794152E+001  4.6031750E-010 |
+---------------------------------------------+
| minim: icg             =     1              |
| minim: 2*Tr[(2*I-S)*S] =    32.0000000      |
+---------------------------------------------+
| k point      3 of      4                    |
+---------------------------------------------+
|             E_OMM            E_diff         |
|     1     1 -1.1794152E+001  4.6030921E-010 |
+---------------------------------------------+
| minim: icg             =     1              |
| minim: 2*Tr[(2*I-S)*S] =    32.0000000      |
+---------------------------------------------+
| k point      4 of      4                    |
+---------------------------------------------+
|             E_OMM            E_diff         |
|     1     1 -1.1794152E+001  4.6035786E-010 |
+---------------------------------------------+
| minim: icg             =     1              |
| minim: 2*Tr[(2*I-S)*S] =    32.0000000      |
+---------------------------------------------+

siesta: iscf =   15
Eharris(eV) =       -862.6697  E_KS(eV) =       -862.6681  dDmax =  0.0003

+---------------------------------------------+
| OMM (Cholesky factorization)                |
+---------------------------------------------+
| k point      1 of      4                    |
+---------------------------------------------+
|             E_OMM            E_diff         |
|     1     1 -1.1794327E+001  4.5905759E-010 |
+---------------------------------------------+
| minim: icg             =     1              |
| minim: 2*Tr[(2*I-S)*S] =    32.0000000      |
+---------------------------------------------+
| k point      2 of      4                    |
+---------------------------------------------+
|             E_OMM            E_diff         |
|     1     1 -1.1794327E+001  4.5904599E-010 |
+---------------------------------------------+
| minim: icg             =     1              |
| minim: 2*Tr[(2*I-S)*S] =    32.0000000      |
+---------------------------------------------+
| k point      3 of      4                    |
+---------------------------------------------+
|             E_OMM            E_diff         |
|     1     1 -1.1794327E+001  4.5904283E-010 |
+---------------------------------------------+
| minim: icg             =     1              |
| minim: 2*Tr[(2*I-S)*S] =    32.0000000      |
+---------------------------------------------+
| k point      4 of      4                    |
+---------------------------------------------+
|             E_OMM            E_diff         |
|     1     1 -1.1794327E+001  4.5909042E-010 |
+---------------------------------------------+
| minim: icg             =     1              |
| minim: 2*Tr[(2*I-S)*S] =    32.0000000      |
+---------------------------------------------+

siesta: iscf =   16
Eharris(eV) =       -862.6697  E_KS(eV) =       -862.6685  dDmax =  0.0001

+---------------------------------------------+
| OMM (Cholesky factorization)                |
+---------------------------------------------+
| k point      1 of      4                    |
+---------------------------------------------+
|             E_OMM            E_diff         |
|     1     1 -1.1794441E+001  3.4011579E-010 |
+---------------------------------------------+
| minim: icg             =     1              |
| minim: 2*Tr[(2*I-S)*S] =    32.0000000      |
+---------------------------------------------+
| k point      2 of      4                    |
+---------------------------------------------+
|             E_OMM            E_diff         |
|     1     1 -1.1794441E+001  3.4011263E-010 |
+---------------------------------------------+
| minim: icg             =     1              |
| minim: 2*Tr[(2*I-S)*S] =    32.0000000      |
+---------------------------------------------+
| k point      3 of      4                    |
+---------------------------------------------+
|             E_OMM            E_diff         |
|     1     1 -1.1794441E+001  3.4011157E-010 |
+---------------------------------------------+
| minim: icg             =     1              |
| minim: 2*Tr[(2*I-S)*S] =    32.0000000      |
+---------------------------------------------+
| k point      4 of      4                    |
+---------------------------------------------+
|             E_OMM            E_diff         |
|     1     1 -1.1794441E+001  3.4013190E-010 |
+---------------------------------------------+
| minim: icg             =     1              |
| minim: 2*Tr[(2*I-S)*S] =    32.0000000      |
+---------------------------------------------+

siesta: iscf =   17
Eharris(eV) =       -862.6697  E_KS(eV) =       -862.6688  dDmax =  0.0001

+---------------------------------------------+
| OMM (Cholesky factorization)                |
+---------------------------------------------+
| k point      1 of      4                    |
+---------------------------------------------+
|             E_OMM            E_diff         |
|     1     1 -1.1794516E+001  2.7339140E-010 |
+---------------------------------------------+
| minim: icg             =     1              |
| minim: 2*Tr[(2*I-S)*S] =    32.0000000      |
+---------------------------------------------+
| k point      2 of      4                    |
+---------------------------------------------+
|             E_OMM            E_diff         |
|     1     1 -1.1794516E+001  2.7338267E-010 |
+---------------------------------------------+
| minim: icg             =     1              |
| minim: 2*Tr[(2*I-S)*S] =    32.0000000      |
+---------------------------------------------+
| k point      3 of      4                    |
+---------------------------------------------+
|             E_OMM            E_diff         |
|     1     1 -1.1794516E+001  2.7338206E-010 |
+---------------------------------------------+
| minim: icg             =     1              |
| minim: 2*Tr[(2*I-S)*S] =    32.0000000      |
+---------------------------------------------+
| k point      4 of      4                    |
+---------------------------------------------+
|             E_OMM            E_diff         |
|     1     1 -1.1794516E+001  2.7340571E-010 |
+---------------------------------------------+
| minim: icg             =     1              |
| minim: 2*Tr[(2*I-S)*S] =    32.0000000      |
+---------------------------------------------+

siesta: iscf =   18
Eharris(eV) =       -862.6697  E_KS(eV) =       -862.6690  dDmax =  0.0000


SCF Convergence by dMax criterion
max |DM_out - DM_in|:     0.00004561
SCF cycle converged after   18 iterations

stepf: Fermi-Dirac step function

Using DM_out to compute the final energy and forces

siesta: E_KS(eV) =             -862.6697

siesta: E_KS - E_eggbox =      -862.6697

siesta: Atomic forces (eV/Ang):
----------------------------------------
   Tot   -0.000000   -0.000000   -0.000000
----------------------------------------
   Max    0.000000
   Res    0.000000    sqrt( Sum f_i^2 / 3N )
----------------------------------------
   Max    0.000000    constrained

Stress-tensor-Voigt (kbar):       18.38       18.38       18.38       -0.00        0.00       -0.00
(Free)E + p*V (eV/cell)     -864.5065
Target enthalpy (eV/cell)     -862.6697

siesta: Program's energy decomposition (eV):
siesta: Ebs     =      -320.947656
siesta: Eions   =      1523.208495
siesta: Ena     =       467.238590
siesta: Ekin    =       332.626248
siesta: Enl     =       108.756366
siesta: DEna    =        11.207291
siesta: DUscf   =         1.610412
siesta: DUext   =         0.000000
siesta: Exc     =      -260.900084
siesta: eta*DQ  =         0.000000
siesta: Emadel  =         0.000000
siesta: Emeta   =         0.000000
siesta: Emolmec =         0.000000
siesta: Ekinion =         0.000000
siesta: Eharris =      -862.669672
siesta: Etot    =      -862.669672
siesta: FreeEng =      -862.669672

siesta: Final energy (eV):
siesta:  Band Struct. =    -320.947656
siesta:       Kinetic =     332.626248
siesta:       Hartree =      59.911344
siesta:    Ext. field =       0.000000
siesta:   Exch.-corr. =    -260.900084
siesta:  Ion-electron =    -433.203611
siesta:       Ion-ion =    -561.103569
siesta:       Ekinion =       0.000000
siesta:         Total =    -862.669672

siesta: Stress tensor (static) (eV/Ang**3):
siesta:     0.011473   -0.000000   -0.000000
siesta:    -0.000000    0.011473    0.000000
siesta:    -0.000000    0.000000    0.011473

siesta: Cell volume =        160.103007 Ang**3

siesta: Pressure (static):
siesta:                Solid            Molecule  Units
siesta:          -0.00012495         -0.00012495  Ry/Bohr**3
siesta:          -0.01147277         -0.01147277  eV/Ang**3
siesta:         -18.38160520        -18.38160526  kBar
(Free)E+ p_basis*V_orbitals  =        -855.155299
(Free)Eharris+ p_basis*V_orbitals  =        -855.155299
>> End of run:   2-JUL-2017  12:02:34
Job completed
