Siesta Version:                                        siesta-3.1
Architecture  : ifort11-macosx64
Compiler flags: ifort  -O2
SERIAL version

* Running in serial mode
>> Start of run:  10-JUN-2011  14:36:24

                           ***********************       
                           *  WELCOME TO SIESTA  *       
                           ***********************       

reinit: Reading from standard input
************************** Dump of input data file ****************************
SystemName          Molecule made up of ON hybrids (at x=0.3456)
SystemLabel         oxyn
NumberOfAtoms       2
NumberOfSpecies     1
MeshCutoff 200 Ry
%block ChemicalSpeciesLabel
 1  201  ON-0.34560      # Species index, atomic number, species label
%endblock ChemicalSpeciesLabel
%block SyntheticAtoms
 1                           # Species index
 2 2 3 4	             # n quantum numbers for valence states with l=0,1,2,3
 2.0 3.3456 0.0 0.0          # occupations of valence states with l=0,1,2,3
%endblock SyntheticAtoms
DM.NumberPulay 4
Spin.Polarized T
AtomicCoordinatesFormat  Ang
%block AtomicCoordinatesAndAtomicSpecies
 0.000  0.000  0.000  1
 0.000  0.000  1.200  1
%endblock AtomicCoordinatesAndAtomicSpecies
MD.TypeOfRun Broyden
MD.NumCGSteps 4
************************** End of input data file *****************************

reinit: -----------------------------------------------------------------------
reinit: System Name: Molecule made up of ON hybrids (at x=0.3456
reinit: -----------------------------------------------------------------------
reinit: System Label: oxyn                                                        
reinit: -----------------------------------------------------------------------

initatom: Reading input for the pseudopotentials and atomic orbitals ----------
 Species number:            1  Label: ON-0.34560 Atomic number:         201
Reading pseudopotential information in formatted form from ON-0.34560.psf

Valence configuration for pseudopotential generation:
Ground state valence configuration (synthetic):   2s 2.00000  2p 3.34560
Number of synthetic species:  1
For ON-0.34560, standard SIESTA heuristics set lmxkb to 3
 (one more than the basis l, including polarization orbitals).
Use PS.lmax or PS.KBprojectors blocks to override.

<basis_specs>
===============================================================================
ON-0.34560           Z= 201    Mass= -1.0000        Charge= 0.17977+309
Lmxo=1 Lmxkb=3     BasisType=split      Semic=F
L=0  Nsemic=0  Cnfigmx=2
          n=1  nzeta=2  polorb=0
            splnorm:   0.15000    
               vcte:    0.0000    
               rinn:    0.0000    
                rcs:    0.0000      0.0000    
            lambdas:    1.0000      1.0000    
L=1  Nsemic=0  Cnfigmx=2
          n=1  nzeta=2  polorb=1
            splnorm:   0.15000    
               vcte:    0.0000    
               rinn:    0.0000    
                rcs:    0.0000      0.0000    
            lambdas:    1.0000      1.0000    
-------------------------------------------------------------------------------
L=0  Nkbl=1  erefs: 0.17977+309
L=1  Nkbl=1  erefs: 0.17977+309
L=2  Nkbl=1  erefs: 0.17977+309
L=3  Nkbl=1  erefs: 0.17977+309
===============================================================================
</basis_specs>

atom: Called for (synthetic) ON-0.34560            (Z = 201)

read_vps: Pseudopotential generation method:
read_vps: MIXPS     22-JUL-06  ---      ATM 3.2.2 22-JUL-06 
Total valence charge:    5.34560

xc_check: Exchange-correlation functional:
xc_check: Ceperley-Alder
V l=0 = -2*Zval/r beyond r=  1.1709
V l=1 = -2*Zval/r beyond r=  1.1709
V l=2 = -2*Zval/r beyond r=  1.1709
V l=3 = -2*Zval/r beyond r=  1.1709
All V_l potentials equal beyond r=  1.1278
This should be close to max(r_c) in ps generation
All pots = -2*Zval/r beyond r=  1.1709

VLOCAL1: 99.0% of the norm of Vloc inside     34.126 Ry
VLOCAL1: 99.9% of the norm of Vloc inside     77.774 Ry
atom: Maximum radius for 4*pi*r*r*local-pseudopot. charge    1.36047
atom: Maximum radius for r*vlocal+2*Zval:    1.18566
GHOST: No ghost state for L =  0
GHOST: No ghost state for L =  1
GHOST: No ghost state for L =  2
GHOST: No ghost state for L =  3

KBgen: Kleinman-Bylander projectors: 
   l= 0   rc=  1.377587   el= -1.466572   Ekb=  9.441480   kbcos=  0.309530
   l= 1   rc=  1.377587   el= -0.575298   Ekb= -7.100736   kbcos= -0.350452
   l= 2   rc=  1.580692   el=  0.002386   Ekb= -1.851180   kbcos= -0.003763
   l= 3   rc=  1.703827   el=  0.003508   Ekb= -0.729419   kbcos= -0.000366

KBgen: Total number of  Kleinman-Bylander projectors:   16
atom: -------------------------------------------------------------------------

atom: SANKEY-TYPE ORBITALS:
atom: Selected multiple-zeta basis: split     

SPLIT: Orbitals with angular momentum L= 0

SPLIT: Basis orbitals for state 2s

SPLIT: PAO cut-off radius determined from an
SPLIT: energy shift=  0.020000 Ry

   izeta = 1
                 lambda =    1.000000
                     rc =    3.562532
                 energy =   -1.448336
                kinetic =    1.361860
    potential(screened) =   -2.810196
       potential(ionic) =   -9.160109

   izeta = 2
                 rmatch =    2.774434
              splitnorm =    0.150000
                 energy =   -1.229344
                kinetic =    2.083991
    potential(screened) =   -3.313335
       potential(ionic) =  -10.130218

SPLIT: Orbitals with angular momentum L= 1

SPLIT: Basis orbitals for state 2p

SPLIT: PAO cut-off radius determined from an
SPLIT: energy shift=  0.020000 Ry

   izeta = 1
                 lambda =    1.000000
                     rc =    4.139122
                 energy =   -0.555198
                kinetic =    4.175095
    potential(screened) =   -4.730293
       potential(ionic) =  -10.952342

   izeta = 2
                 rmatch =    2.774434
              splitnorm =    0.150000
                 energy =   -0.304577
                kinetic =    6.310363
    potential(screened) =   -6.614940
       potential(ionic) =  -13.569803

POLgen: Perturbative polarization orbital with L=  2

POLgen: Polarization orbital for state 2p

   izeta = 1
                     rc =    4.139122
                 energy =    2.013739
                kinetic =    3.981970
    potential(screened) =   -1.968231
       potential(ionic) =   -7.042245
atom: Total number of Sankey-type orbitals: 13

atm_pop: Valence configuration (for local Pseudopot. screening):
 2s( 2.00)                                                            
 2p( 3.35)                                                            
Vna: chval, zval:    5.34560   5.34560

Vna:  Cut-off radius for the neutral-atom potential:   4.139122

atom: _________________________________________________________________________

prinput: Basis input ----------------------------------------------------------

PAO.BasisType split     

%block ChemicalSpeciesLabel
    1  201 ON-0.34560              # Species index, atomic number, species label
%endblock ChemicalSpeciesLabel

%block SyntheticAtoms   # Valence config
  1
  2  2  3  4
  2.00000  3.34560  0.00000  0.00000
%endblock SyntheticAtoms

%block PAO.Basis                 # Define Basis set
ON-0.34560            2                    # Species label, number of l-shells
 n=2   0   2                         # n, l, Nzeta 
   3.563      2.774   
   1.000      1.000   
 n=2   1   2 P   1                   # n, l, Nzeta, Polarization, NzetaPol
   4.139      2.774   
   1.000      1.000   
%endblock PAO.Basis

prinput: ----------------------------------------------------------------------

coor:   Atomic-coordinates input format  =     Cartesian coordinates
coor:                                          (in Angstroms)

siesta: Atomic coordinates (Bohr) and species
siesta:      0.00000   0.00000   0.00000  1        1
siesta:      0.00000   0.00000   2.26767  1        2

siesta: Automatic unit cell vectors (Ang):
siesta:    4.818722    0.000000    0.000000
siesta:    0.000000    4.818722    0.000000
siesta:    0.000000    0.000000    6.138722

siesta: System type = molecule  

initatomlists: Number of atoms, orbitals, and projectors:      2    26    32

siesta: ******************** Simulation parameters ****************************
siesta:
siesta: The following are some of the parameters of the simulation.
siesta: A complete list of the parameters used, including default values,
siesta: can be found in file out.fdf
siesta:
redata: Non-Collinear-spin run           =     F
redata: SpinPolarized (Up/Down) run      =     T
redata: Number of spin components        =     2
redata: Long output                      =     F
redata: Number of Atomic Species         =        1
redata: Charge density info will appear in .RHO file
redata: Write Mulliken Pop.              =     NO
redata: Mesh Cutoff                      =   200.0000  Ry
redata: Net charge of the system         =     0.0000 |e|
redata: Max. number of SCF Iter          =       50
redata: Performing Pulay mixing using    =     4 iterations
redata: Mix DM in first SCF step ?       =     F
redata: Write Pulay info on disk?        =     F
redata: Discard 1st Pulay DM after  kick =     F
redata: New DM Mixing Weight             =     0.2500
redata: New DM Occupancy tolerance       = 0.000000000001
redata: No kicks to SCF
redata: DM Mixing Weight for Kicks       =     0.5000
redata: DM Tolerance for SCF             =     0.000100
redata: Require Energy convergence for SCF =     F
redata: DM Energy tolerance for SCF      =     0.000100 eV
redata: Require Harris convergence for SCF =     F
redata: DM Harris energy tolerance for SCF =     0.000100 eV
redata: Antiferro initial spin density   =     F
redata: Using Saved Data (generic)   =     F
redata: Use continuation files for DM    =     F
redata: Neglect nonoverlap interactions  =     F
redata: Method of Calculation            =     Diagonalization
redata: Divide and Conquer               =     T
redata: Electronic Temperature           =     0.0019  Ry
redata: Fix the spin of the system       =     F
redata: Dynamics option                  =     Broyden coord. optimization
redata: Variable cell                    =     F
redata: Maximum number of CG moves       =        4
redata: Force tolerance                  =     0.0016  Ry/Bohr
redata: ***********************************************************************
Total number of electrons:    10.691200
Total ionic charge:    10.691200
 Kpoints in:            1 . Kpoints trimmed:            1

siesta: k-grid: Number of k-points =     1
siesta: k-grid: Cutoff (effective) =     2.409 Ang
siesta: k-grid: Supercell and displacements
siesta: k-grid:    1   0   0      0.000
siesta: k-grid:    0   1   0      0.000
siesta: k-grid:    0   0   1      0.000

* Maximum dynamic memory allocated =     1 MB

siesta:                 ==============================
                            Begin CG move =      0
                        ==============================

outcell: Unit cell vectors (Ang):
        4.818722    0.000000    0.000000
        0.000000    4.818722    0.000000
        0.000000    0.000000    6.138722

outcell: Cell vector modules (Ang)   :    4.818722    4.818722    6.138722
outcell: Cell angles (23,13,12) (deg):     90.0000     90.0000     90.0000
outcell: Cell volume (Ang**3)        :    142.5416
New_DM. Step:     1
Initializing Density Matrix...

InitMesh: MESH =    48 x    48 x    54 =      124416
InitMesh: Mesh cutoff (required, used) =   200.000   213.862 Ry

* Maximum dynamic memory allocated =    11 MB

stepf: Fermi-Dirac step function

siesta: Program's energy decomposition (eV):
siesta: Ebs     =      -141.155088
siesta: Eions   =      1232.617191
siesta: Ena     =       321.732802
siesta: Ekin    =       454.198612
siesta: Enl     =       -30.717004
siesta: DEna    =        -0.000032
siesta: DUscf   =         0.000000
siesta: DUext   =         0.000000
siesta: Exc     =      -152.854406
siesta: eta*DQ  =         0.000000
siesta: Emadel  =         0.000000
siesta: Emeta   =         0.000000
siesta: Emolmec =         0.000000
siesta: Ekinion =         0.000000
siesta: Eharris =      -634.394716
siesta: Etot    =      -640.257219
siesta: FreeEng =      -640.257219

siesta: iscf   Eharris(eV)      E_KS(eV)   FreeEng(eV)   dDmax  Ef(eV)
siesta:    1     -634.3947     -640.2572     -640.2572  0.6081 -4.2113
timer: Routine,Calls,Time,% = IterSCF        1       1.484  75.92
elaps: Routine,Calls,Wall,% = IterSCF        1       1.486  75.91
siesta:    2     -638.4899     -638.1687     -638.2020  0.1054 -3.6547
siesta:    3     -638.4027     -638.1448     -638.1781  0.0652 -3.5000
siesta:    4     -638.4178     -638.3448     -638.3781  0.0247 -3.0637
siesta:    5     -638.4188     -638.4181     -638.4514  0.0079 -3.1748
siesta:    6     -638.4183     -638.4248     -638.4582  0.0023 -3.1220
siesta:    7     -638.4183     -638.4231     -638.4564  0.0015 -3.1224
siesta:    8     -638.4183     -638.4196     -638.4529  0.0005 -3.1231
siesta:    9     -638.4183     -638.4184     -638.4518  0.0003 -3.1221
siesta:   10     -638.4183     -638.4183     -638.4516  0.0002 -3.1215
siesta:   11     -638.4183     -638.4182     -638.4516  0.0001 -3.1213

siesta: E_KS(eV) =             -638.4183

siesta: E_KS - E_eggbox =      -638.4183

siesta: Atomic forces (eV/Ang):
----------------------------------------
   Tot    0.000000    0.000000   -0.015740
----------------------------------------
   Max    6.278526
   Res    3.620367    sqrt( Sum f_i^2 / 3N )
----------------------------------------
   Max    6.278526    constrained

Stress-tensor-Voigt (kbar):       -0.01       -0.01       84.45        0.00        0.00        0.00
(Free)E + p*V (eV/cell)     -640.9556
Target enthalpy (eV/cell)     -638.4516
 
Broyden_optim: max_history for broyden:   5
Broyden_optim: cycle on maxit: T
Broyden_optim: initial inverse jacobian:   1.0000
 
Broyden_optim: No of elements:      6

* Maximum dynamic memory allocated =    11 MB

siesta:                 ==============================
                            Begin CG move =      1
                        ==============================

outcell: Unit cell vectors (Ang):
        4.818722    0.000000    0.000000
        0.000000    4.818722    0.000000
        0.000000    0.000000    6.138722

outcell: Cell vector modules (Ang)   :    4.818722    4.818722    6.138722
outcell: Cell angles (23,13,12) (deg):     90.0000     90.0000     90.0000
outcell: Cell volume (Ang**3)        :    142.5416
New_DM. Step:     2
Re-using DM from previous geometry...
Re-using DM without extrapolation (not allowed)

siesta: iscf   Eharris(eV)      E_KS(eV)   FreeEng(eV)   dDmax  Ef(eV)
siesta:    1     -635.0185     -639.1416     -639.1749  0.2261 -0.7291
siesta:    2     -634.7678     -634.5386     -634.5719  0.1078  0.8452
siesta:    3     -634.6901     -635.5905     -635.6238  0.0742  0.3163
siesta:    4     -634.6876     -634.6553     -634.6887  0.0044  0.1734
siesta:    5     -634.6873     -634.6630     -634.6963  0.0018  0.1489
siesta:    6     -634.6872     -634.6858     -634.7191  0.0002  0.1584
siesta:    7     -634.6872     -634.6864     -634.7198  0.0001  0.1586
siesta:    8     -634.6872     -634.6866     -634.7200  0.0000  0.1579

siesta: E_KS(eV) =             -634.6868

siesta: Atomic forces (eV/Ang):
----------------------------------------
   Tot    0.000000    0.000000    0.016460
----------------------------------------
   Max   51.108241
   Res   29.502606    sqrt( Sum f_i^2 / 3N )
----------------------------------------
   Max   51.108241    constrained

Stress-tensor-Voigt (kbar):       -0.04       -0.04     -540.88        0.00        0.00        0.00
(Free)E + p*V (eV/cell)     -618.6780
Target enthalpy (eV/cell)     -634.7202

* Maximum dynamic memory allocated =    11 MB

siesta:                 ==============================
                            Begin CG move =      2
                        ==============================

outcell: Unit cell vectors (Ang):
        4.818722    0.000000    0.000000
        0.000000    4.818722    0.000000
        0.000000    0.000000    6.138722

outcell: Cell vector modules (Ang)   :    4.818722    4.818722    6.138722
outcell: Cell angles (23,13,12) (deg):     90.0000     90.0000     90.0000
outcell: Cell volume (Ang**3)        :    142.5416
New_DM. Step:     3
Re-using DM from previous geometry...
Re-using DM without extrapolation (not allowed)

siesta: iscf   Eharris(eV)      E_KS(eV)   FreeEng(eV)   dDmax  Ef(eV)
siesta:    1     -638.7991     -633.2145     -633.2478  0.2356 -2.2217
siesta:    2     -638.6229     -638.4537     -638.4871  0.0865 -3.3913
siesta:    3     -638.5684     -637.7208     -637.7541  0.0531 -3.0383
siesta:    4     -638.5642     -638.5798     -638.6132  0.0024 -2.8349
siesta:    5     -638.5641     -638.5610     -638.5943  0.0010 -2.8513
siesta:    6     -638.5641     -638.5601     -638.5934  0.0003 -2.8520
siesta:    7     -638.5641     -638.5609     -638.5942  0.0002 -2.8522
siesta:    8     -638.5641     -638.5623     -638.5957  0.0001 -2.8519
siesta:    9     -638.5641     -638.5636     -638.5969  0.0000 -2.8518

siesta: E_KS(eV) =             -638.5637

siesta: Atomic forces (eV/Ang):
----------------------------------------
   Tot    0.000000    0.000000    0.036887
----------------------------------------
   Max    4.000072
   Res    2.298819    sqrt( Sum f_i^2 / 3N )
----------------------------------------
   Max    4.000072    constrained

Stress-tensor-Voigt (kbar):        0.01        0.01       52.75        0.00        0.00        0.00
(Free)E + p*V (eV/cell)     -640.1619
Target enthalpy (eV/cell)     -638.5971

* Maximum dynamic memory allocated =    11 MB

siesta:                 ==============================
                            Begin CG move =      3
                        ==============================

outcell: Unit cell vectors (Ang):
        4.818722    0.000000    0.000000
        0.000000    4.818722    0.000000
        0.000000    0.000000    6.138722

outcell: Cell vector modules (Ang)   :    4.818722    4.818722    6.138722
outcell: Cell angles (23,13,12) (deg):     90.0000     90.0000     90.0000
outcell: Cell volume (Ang**3)        :    142.5416
New_DM. Step:     4
Re-using DM from previous geometry...
Re-using DM without extrapolation (not allowed)

siesta: iscf   Eharris(eV)      E_KS(eV)   FreeEng(eV)   dDmax  Ef(eV)
siesta:    1     -638.4771     -638.1647     -638.1981  0.0138 -2.9976
siesta:    2     -638.4758     -638.4746     -638.5080  0.0064 -3.0562
siesta:    3     -638.4755     -638.4423     -638.4757  0.0036 -3.0416
siesta:    4     -638.4754     -638.4757     -638.5090  0.0001 -3.0307

siesta: E_KS(eV) =             -638.4755

siesta: Atomic forces (eV/Ang):
----------------------------------------
   Tot    0.000000    0.000000    0.013733
----------------------------------------
   Max    5.597776
   Res    3.227915    sqrt( Sum f_i^2 / 3N )
----------------------------------------
   Max    5.597776    constrained

Stress-tensor-Voigt (kbar):        0.02        0.02       74.94        0.00        0.00        0.00
(Free)E + p*V (eV/cell)     -640.7321
Target enthalpy (eV/cell)     -638.5089

* Maximum dynamic memory allocated =    11 MB

siesta:                 ==============================
                            Begin CG move =      4
                        ==============================

outcell: Unit cell vectors (Ang):
        4.818722    0.000000    0.000000
        0.000000    4.818722    0.000000
        0.000000    0.000000    6.138722

outcell: Cell vector modules (Ang)   :    4.818722    4.818722    6.138722
outcell: Cell angles (23,13,12) (deg):     90.0000     90.0000     90.0000
outcell: Cell volume (Ang**3)        :    142.5416
New_DM. Step:     5
Re-using DM from previous geometry...
Re-using DM without extrapolation (not allowed)

siesta: iscf   Eharris(eV)      E_KS(eV)   FreeEng(eV)   dDmax  Ef(eV)
siesta:    1     -638.3453     -638.0041     -638.0374  0.0151 -3.1900
siesta:    2     -638.3437     -638.3421     -638.3754  0.0072 -3.2505
siesta:    3     -638.3432     -638.3074     -638.3408  0.0039 -3.2357
siesta:    4     -638.3432     -638.3430     -638.3764  0.0002 -3.2246
siesta:    5     -638.3431     -638.3430     -638.3764  0.0000 -3.2247

siesta: E_KS(eV) =             -638.3430

siesta: Atomic forces (eV/Ang):
----------------------------------------
   Tot    0.000000    0.000000   -0.026576
----------------------------------------
   Max    7.040645
   Res    4.057254    sqrt( Sum f_i^2 / 3N )
----------------------------------------
   Max    7.040645    constrained

Stress-tensor-Voigt (kbar):        0.00        0.00       95.57        0.00        0.00        0.00
(Free)E + p*V (eV/cell)     -641.2104
Target enthalpy (eV/cell)     -638.3764

* Maximum dynamic memory allocated =    11 MB

outcoor: Final (unrelaxed) atomic coordinates (Ang):        
    0.00000000    0.00000000    0.00296178   1       1  ON-0.34560
    0.00000000    0.00000000    1.19717712   1       2  ON-0.34560

siesta: Program's energy decomposition (eV):
siesta: Ebs     =      -146.833659
siesta: Eions   =      1232.617191
siesta: Ena     =       321.946360
siesta: Ekin    =       451.118518
siesta: Enl     =       -37.529492
siesta: DEna    =         5.304999
siesta: DUscf   =         0.283272
siesta: DUext   =         0.000000
siesta: Exc     =      -146.849503
siesta: eta*DQ  =         0.000000
siesta: Emadel  =         0.000000
siesta: Emeta   =         0.000000
siesta: Emolmec =         0.000000
siesta: Ekinion =         0.000000
siesta: Eharris =      -638.343148
siesta: Etot    =      -638.343037
siesta: FreeEng =      -638.376368

siesta: Final energy (eV):
siesta:  Band Struct. =    -146.833659
siesta:       Kinetic =     451.118518
siesta:       Hartree =     455.574386
siesta:    Ext. field =       0.000000
siesta:   Exch.-corr. =    -146.849503
siesta:  Ion-electron =   -1316.770222
siesta:       Ion-ion =     -81.416215
siesta:       Ekinion =       0.000000
siesta:         Total =    -638.343037

siesta: Atomic forces (eV/Ang):
siesta:      1    0.000000    0.000000    7.014069
siesta:      2    0.000000    0.000000   -7.040645
siesta: ----------------------------------------
siesta:    Tot    0.000000    0.000000   -0.026576

siesta: Stress tensor (static) (eV/Ang**3):
siesta:    -0.000002    0.000000    0.000000
siesta:     0.000000   -0.000002    0.000000
siesta:     0.000000    0.000000    0.059650

siesta: Cell volume =        142.541589 Ang**3

siesta: Pressure (static):
siesta:                Solid            Molecule  Units
siesta:          -0.00021654          0.00000026  Ry/Bohr**3
siesta:          -0.01988198          0.00002381  eV/Ang**3
siesta:         -31.85479450          0.03815058  kBar
(Free)E+ p_basis*V_orbitals  =        -638.020331
(Free)Eharris+ p_basis*V_orbitals  =        -638.020436

siesta: Total spin polarization (Qup-Qdown) =    0.691201

siesta: Electric dipole (a.u.)  =    0.000000    0.000000    0.000113
siesta: Electric dipole (Debye) =    0.000000    0.000000    0.000287

* Maximum dynamic memory allocated : Node    0 =    11 MB

* Maximum memory occured during poison                        

timer: CPU execution times:
timer:  Routine       Calls   Time/call    Tot.time        %
timer:  siesta            1      13.333      13.333   100.00
timer:  Setup             1       0.177       0.177     1.33
timer:  bands             1       0.000       0.000     0.00
timer:  writewave         1       0.000       0.000     0.00
timer:  KSV_init          1       0.000       0.000     0.00
timer:  IterMD            5       2.630      13.150    98.63
timer:  hsparse           5       0.001       0.005     0.04
timer:  overlap           5       0.060       0.298     2.23
timer:  IterSCF          37       0.284      10.502    78.76
timer:  kinefsm          10       0.029       0.288     2.16
timer:  nlefsm           10       0.078       0.776     5.82
timer:  DHSCF            42       0.277      11.639    87.30
timer:  DHSCF1            1       0.029       0.029     0.22
timer:  DHSCF2            5       0.216       1.079     8.09
timer:  REORD           472       0.000       0.156     1.17
timer:  POISON           47       0.017       0.821     6.16
timer:  DHSCF3           42       0.222       9.315    69.86
timer:  rhoofd           42       0.054       2.275    17.06
timer:  cellXC           42       0.070       2.950    22.12
timer:  vmat             42       0.068       2.856    21.42
timer:  MolMec           10       0.000       0.000     0.00
timer:  diagon           37       0.001       0.034     0.26
timer:  r-eigvec         37       0.001       0.047     0.36
timer:  r-buildHS        37       0.000       0.018     0.13
timer:  rdiag            74       0.000       0.029     0.22
timer:  rdiag1           74       0.000       0.001     0.01
timer:  rdiag2           74       0.000       0.003     0.02
timer:  rdiag3           74       0.000       0.022     0.16
timer:  rdiag4           74       0.000       0.001     0.01
timer:  r-buildD         37       0.000       0.001     0.01
timer:  DHSCF4            5       0.236       1.182     8.87
timer:  dfscf             5       0.215       1.074     8.05
timer:  overfsm           5       0.001       0.005     0.04
timer:  optical           1       0.000       0.000     0.00
  

elaps: ELAPSED times:
elaps:  Routine       Calls   Time/call    Tot.time        %
elaps:  siesta            1      13.524      13.524   100.00
elaps:  Setup             1       0.178       0.178     1.31
elaps:  bands             1       0.000       0.000     0.00
elaps:  writewave         1       0.000       0.000     0.00
elaps:  KSV_init          1       0.000       0.000     0.00
elaps:  IterMD            5       2.664      13.318    98.48
elaps:  hsparse           5       0.001       0.005     0.04
elaps:  overlap           5       0.060       0.298     2.20
elaps:  IterSCF          37       0.286      10.566    78.13
elaps:  kinefsm          10       0.029       0.288     2.13
elaps:  nlefsm           10       0.078       0.777     5.74
elaps:  DHSCF            42       0.279      11.724    86.69
elaps:  DHSCF1            1       0.029       0.029     0.21
elaps:  DHSCF2            5       0.217       1.085     8.02
elaps:  REORD           472       0.000       0.157     1.16
elaps:  POISON           47       0.018       0.827     6.11
elaps:  DHSCF3           42       0.223       9.384    69.39
elaps:  rhoofd           42       0.055       2.299    17.00
elaps:  cellXC           42       0.071       2.968    21.94
elaps:  vmat             42       0.068       2.869    21.22
elaps:  MolMec           10       0.000       0.000     0.00
elaps:  diagon           37       0.001       0.034     0.25
elaps:  r-eigvec         37       0.001       0.047     0.35
elaps:  r-buildHS        37       0.000       0.018     0.13
elaps:  rdiag            74       0.000       0.029     0.22
elaps:  rdiag1           74       0.000       0.001     0.01
elaps:  rdiag2           74       0.000       0.004     0.03
elaps:  rdiag3           74       0.000       0.021     0.16
elaps:  rdiag4           74       0.000       0.001     0.01
elaps:  r-buildD         37       0.000       0.002     0.01
elaps:  DHSCF4            5       0.238       1.191     8.81
elaps:  dfscf             5       0.216       1.082     8.00
elaps:  overfsm           5       0.001       0.005     0.04
elaps:  optical           1       0.000       0.000     0.00
  
>> End of run:  10-JUN-2011  14:36:38
