Siesta Version:                                        siesta-trunk-300
Architecture  : nano-intel-mpi
Compiler flags: /opt/intel/impi/3.1/bin64/mpiifort -w  -O3 -mp
PARALLEL version
NetCDF support

* Running on    4 nodes in parallel
>> Start of run:  29-SEP-2009  17:22:53

                           ***********************       
                           *  WELCOME TO SIESTA  *       
                           ***********************       

reinit: Reading from standard input
************************** Dump of input data file ****************************
SystemName          Molecule made up of ON hybrids (at x=0.3456)
SystemLabel         oxyn
NumberOfAtoms       2
NumberOfSpecies     1
MeshCutoff 200 Ry
%block ChemicalSpeciesLabel
 1  201  ON-0.34560      # Species index, atomic number, species label
%endblock ChemicalSpeciesLabel
%block SyntheticAtoms
 1                           # Species index
 2 2 3 4	             # n quantum numbers for valence states with l=0,1,2,3
 2.0 3.3456 0.0 0.0          # occupations of valence states with l=0,1,2,3
%endblock SyntheticAtoms
DM.NumberPulay 4
Spin.Polarized T
AtomicCoordinatesFormat  Ang
%block AtomicCoordinatesAndAtomicSpecies
 0.000  0.000  0.000  1
 0.000  0.000  1.200  1
%endblock AtomicCoordinatesAndAtomicSpecies
MD.TypeOfRun Broyden
MD.NumCGSteps 4
************************** End of input data file *****************************

reinit: -----------------------------------------------------------------------
reinit: System Name: Molecule made up of ON hybrids (at x=0.3456
reinit: -----------------------------------------------------------------------
reinit: System Label: oxyn                                                        
reinit: -----------------------------------------------------------------------

initatom: Reading input for the pseudopotentials and atomic orbitals ----------
 Species number:            1  Label: ON-0.34560 Atomic number:         201
Reading pseudopotential information in formatted form from ON-0.34560.psf

Valence configuration for pseudopotential generation:
Ground state valence configuration (synthetic):   2s 2.00000  2p 3.34560
Number of synthetic species:  1
For ON-0.34560, standard SIESTA heuristics set lmxkb to 3
 (one more than the basis l, including polarization orbitals).
Use PS.lmax or PS.KBprojectors blocks to override.

<basis_specs>
===============================================================================
ON-0.34560           Z= 201    Mass= -1.0000        Charge= 0.17977+309
Lmxo=1 Lmxkb=3     BasisType=split      Semic=F
L=0  Nsemic=0  Cnfigmx=2
          n=1  nzeta=2  polorb=0
            splnorm:   0.15000    
               vcte:    0.0000    
               rinn:    0.0000    
                rcs:    0.0000      0.0000    
            lambdas:    1.0000      1.0000    
L=1  Nsemic=0  Cnfigmx=2
          n=1  nzeta=2  polorb=1
            splnorm:   0.15000    
               vcte:    0.0000    
               rinn:    0.0000    
                rcs:    0.0000      0.0000    
            lambdas:    1.0000      1.0000    
-------------------------------------------------------------------------------
L=0  Nkbl=1  erefs: 0.17977+309
L=1  Nkbl=1  erefs: 0.17977+309
L=2  Nkbl=1  erefs: 0.17977+309
L=3  Nkbl=1  erefs: 0.17977+309
===============================================================================
</basis_specs>

atom: Called for (synthetic) ON-0.34560            (Z = 201)

read_vps: Pseudopotential generation method:
read_vps: MIXPS     22-JUL-06  ---      ATM 3.2.2 22-JUL-06 
Total valence charge:    5.34560

xc_check: Exchange-correlation functional:
xc_check: Ceperley-Alder
V l=0 = -2*Zval/r beyond r=  1.1709
V l=1 = -2*Zval/r beyond r=  1.1709
V l=2 = -2*Zval/r beyond r=  1.1709
V l=3 = -2*Zval/r beyond r=  1.1709
All V_l potentials equal beyond r=  1.1278
This should be close to max(r_c) in ps generation
All pots = -2*Zval/r beyond r=  1.1709

VLOCAL1: 99.0% of the norm of Vloc inside     34.126 Ry
VLOCAL1: 99.9% of the norm of Vloc inside     77.774 Ry
atom: Maximum radius for 4*pi*r*r*local-pseudopot. charge    1.36047
atom: Maximum radius for r*vlocal+2*Zval:    1.18566
GHOST: No ghost state for L =  0
GHOST: No ghost state for L =  1
GHOST: No ghost state for L =  2
GHOST: No ghost state for L =  3

KBgen: Kleinman-Bylander projectors: 
   l= 0   rc=  1.377587   el= -1.466572   Ekb=  9.441480   kbcos=  0.309530
   l= 1   rc=  1.377587   el= -0.575298   Ekb= -7.100736   kbcos= -0.350452
   l= 2   rc=  1.580692   el=  0.002386   Ekb= -1.851180   kbcos= -0.003763
   l= 3   rc=  1.703827   el=  0.003508   Ekb= -0.729419   kbcos= -0.000366

KBgen: Total number of  Kleinman-Bylander projectors:   16
atom: -------------------------------------------------------------------------

atom: SANKEY-TYPE ORBITALS:
atom: Selected multiple-zeta basis: split     

SPLIT: Orbitals with angular momentum L= 0

SPLIT: Basis orbitals for state 2s

SPLIT: PAO cut-off radius determined from an
SPLIT: energy shift=  0.020000 Ry

   izeta = 1
                 lambda =    1.000000
                     rc =    3.562532
                 energy =   -1.448336
                kinetic =    1.361860
    potential(screened) =   -2.810196
       potential(ionic) =   -9.160109

   izeta = 2
                 rmatch =    2.774434
              splitnorm =    0.150000
                 energy =   -1.229344
                kinetic =    2.083991
    potential(screened) =   -3.313335
       potential(ionic) =  -10.130218

SPLIT: Orbitals with angular momentum L= 1

SPLIT: Basis orbitals for state 2p

SPLIT: PAO cut-off radius determined from an
SPLIT: energy shift=  0.020000 Ry

   izeta = 1
                 lambda =    1.000000
                     rc =    4.139122
                 energy =   -0.555198
                kinetic =    4.175095
    potential(screened) =   -4.730293
       potential(ionic) =  -10.952342

   izeta = 2
                 rmatch =    2.774434
              splitnorm =    0.150000
                 energy =   -0.304577
                kinetic =    6.310363
    potential(screened) =   -6.614940
       potential(ionic) =  -13.569803

POLgen: Perturbative polarization orbital with L=  2

POLgen: Polarization orbital for state 2p

   izeta = 1
                     rc =    4.139122
                 energy =    2.013739
                kinetic =    3.981970
    potential(screened) =   -1.968231
       potential(ionic) =   -7.042245
atom: Total number of Sankey-type orbitals: 13

atm_pop: Valence configuration (for local Pseudopot. screening):
 2s( 2.00)                                                            
 2p( 3.35)                                                            
Vna: chval, zval:    5.34560   5.34560

Vna:  Cut-off radius for the neutral-atom potential:   4.139122

atom: _________________________________________________________________________

prinput: Basis input ----------------------------------------------------------

PAO.BasisType split     

%block ChemicalSpeciesLabel
    1  201 ON-0.34560              # Species index, atomic number, species label
%endblock ChemicalSpeciesLabel

%block SyntheticAtoms   # Valence config
  1
  2  2  3  4
  2.00000  3.34560  0.00000  0.00000
%endblock SyntheticAtoms

%block PAO.Basis                 # Define Basis set
ON-0.34560            2                    # Species label, number of l-shells
 n=2   0   2                         # n, l, Nzeta 
   3.563      2.774   
   1.000      1.000   
 n=2   1   2 P   1                   # n, l, Nzeta, Polarization, NzetaPol
   4.139      2.774   
   1.000      1.000   
%endblock PAO.Basis

prinput: ----------------------------------------------------------------------

Dumping basis to NetCDF file ON-0.34560.ion.nc
coor:   Atomic-coordinates input format  =     Cartesian coordinates
coor:                                          (in Angstroms)

siesta: Atomic coordinates (Bohr) and species
siesta:      0.00000   0.00000   0.00000  1        1
siesta:      0.00000   0.00000   2.26767  1        2

siesta: Automatic unit cell vectors (Ang):
siesta:    4.818722    0.000000    0.000000
siesta:    0.000000    4.818722    0.000000
siesta:    0.000000    0.000000    6.138722

siesta: System type = molecule  

initatomlists: Number of atoms, orbitals, and projectors:      2    26    32

siesta: ******************** Simulation parameters ****************************
siesta:
siesta: The following are some of the parameters of the simulation.
siesta: A complete list of the parameters used, including default values,
siesta: can be found in file out.fdf
siesta:
redata: Non-Collinear-spin run           =     F
redata: SpinPolarized (Up/Down) run      =     T
redata: Number of spin components        =     2
redata: Long output                      =     F
redata: Number of Atomic Species         =        1
redata: Charge density info will appear in .RHO file
redata: Write Mulliken Pop.              =     NO
redata: Mesh Cutoff                      =   200.0000  Ry
redata: Net charge of the system         =     0.0000 |e|
redata: Max. number of SCF Iter          =       50
redata: Performing Pulay mixing using    =     4 iterations
redata: Mix DM in first SCF step ?       =     F
redata: Write Pulay info on disk?        =     F
redata: New DM Mixing Weight             =     0.2500
redata: New DM Occupancy tolerance       = 0.000000000001
redata: No kicks to SCF
redata: DM Mixing Weight for Kicks       =     0.5000
redata: DM Tolerance for SCF             =     0.000100
redata: Require Energy convergence for SCF =     F
redata: DM Energy tolerance for SCF      =     0.000100 eV
redata: Require Harris convergence for SCF =     F
redata: DM Harris energy tolerance for SCF =     0.000100 eV
redata: Antiferro initial spin density   =     F
redata: Using Saved Data (generic)   =     F
redata: Use continuation files for DM    =     F
redata: Neglect nonoverlap interactions  =     F
redata: Method of Calculation            =     Diagonalization
redata: Divide and Conquer               =     T
redata: Electronic Temperature           =     0.0019  Ry
redata: Fix the spin of the system       =     F
redata: Dynamics option                  =     Broyden coord. optimization
redata: Variable cell                    =     F
redata: Maximum number of CG moves       =        4
redata: Force tolerance                  =     0.0016  Ry/Bohr
redata: ***********************************************************************
Total number of electrons:    10.691200
Total ionic charge:    10.691200

* ProcessorY, Blocksize:    2   7

 Kpoints in:            1 . Kpoints trimmed:            1

siesta: k-grid: Number of k-points =     1
siesta: k-grid: Cutoff (effective) =     2.409 Ang
siesta: k-grid: Supercell and displacements
siesta: k-grid:    1   0   0      0.000
siesta: k-grid:    0   1   0      0.000
siesta: k-grid:    0   0   1      0.000

* Maximum dynamic memory allocated =     1 MB

siesta:                 ==============================
                            Begin CG move =      0
                        ==============================

outcell: Unit cell vectors (Ang):
        4.818722    0.000000    0.000000
        0.000000    4.818722    0.000000
        0.000000    0.000000    6.138722

outcell: Cell vector modules (Ang)   :    4.818722    4.818722    6.138722
outcell: Cell angles (23,13,12) (deg):     90.0000     90.0000     90.0000
outcell: Cell volume (Ang**3)        :    142.5416
New_DM. Step:     1
Initializing Density Matrix...

InitMesh: MESH =    48 x    48 x    54 =      124416
InitMesh: Mesh cutoff (required, used) =   200.000   213.862 Ry

* Maximum dynamic memory allocated =     5 MB

stepf: Fermi-Dirac step function

siesta: Program's energy decomposition (eV):
siesta: Eions   =      1232.617191
siesta: Ena     =       321.732802
siesta: Ekin    =       454.198612
siesta: Enl     =       -30.717004
siesta: DEna    =         0.000001
siesta: DUscf   =         0.000000
siesta: DUext   =         0.000000
siesta: Exc     =      -152.854406
siesta: eta*DQ  =         0.000000
siesta: Emadel  =         0.000000
siesta: Emeta   =         0.000000
siesta: Emolmec =         0.000000
siesta: Ekinion =         0.000000
siesta: Eharris =      -634.394682
siesta: Etot    =      -640.257186
siesta: FreeEng =      -640.257186

siesta: iscf   Eharris(eV)      E_KS(eV)   FreeEng(eV)   dDmax  Ef(eV)
siesta:    1     -634.3947     -640.2572     -640.2572  0.6081 -4.2113
timer: Routine,Calls,Time,% = IterSCF        1       4.603  78.57
elaps: Routine,Calls,Wall,% = IterSCF        1       1.152  78.41
siesta:    2     -638.4898     -638.1687     -638.2020  0.1054 -3.6547
siesta:    3     -638.4027     -638.1448     -638.1781  0.0652 -3.5000
siesta:    4     -638.4177     -638.3448     -638.3781  0.0247 -3.0637
siesta:    5     -638.4188     -638.4181     -638.4514  0.0079 -3.1748
siesta:    6     -638.4183     -638.4248     -638.4581  0.0023 -3.1220
siesta:    7     -638.4182     -638.4231     -638.4564  0.0015 -3.1224
siesta:    8     -638.4182     -638.4195     -638.4529  0.0005 -3.1231
siesta:    9     -638.4182     -638.4184     -638.4517  0.0003 -3.1221
siesta:   10     -638.4182     -638.4182     -638.4516  0.0002 -3.1215
siesta:   11     -638.4182     -638.4182     -638.4515  0.0001 -3.1213

siesta: E_KS(eV) =             -638.4183

siesta: E_KS - E_eggbox =      -638.4183

siesta: Atomic forces (eV/Ang):
----------------------------------------
   Tot    0.000000    0.000000   -0.015745
----------------------------------------
   Max    6.278530
   Res    3.620369    sqrt( Sum f_i^2 / 3N )
----------------------------------------
   Max    6.278530    constrained

Stress-tensor-Voigt (kbar):       -0.01       -0.01       84.45        0.00        0.00        0.00
(Free)E + p*V (eV/cell)     -640.9556
Target enthalpy (eV/cell)     -638.4516
 
Broyden_optim: max_history for broyden:   5
Broyden_optim: cycle on maxit: T
Broyden_optim: initial inverse jacobian:   1.0000
 
Broyden_optim: No of elements:      6

* Maximum dynamic memory allocated =     5 MB

siesta:                 ==============================
                            Begin CG move =      1
                        ==============================

outcell: Unit cell vectors (Ang):
        4.818722    0.000000    0.000000
        0.000000    4.818722    0.000000
        0.000000    0.000000    6.138722

outcell: Cell vector modules (Ang)   :    4.818722    4.818722    6.138722
outcell: Cell angles (23,13,12) (deg):     90.0000     90.0000     90.0000
outcell: Cell volume (Ang**3)        :    142.5416
New_DM. Step:     2
Re-using DM from previous geometry...
Re-using DM without extrapolation...

siesta: iscf   Eharris(eV)      E_KS(eV)   FreeEng(eV)   dDmax  Ef(eV)
siesta:    1     -635.0185     -639.1415     -639.1749  0.2261 -0.7291
siesta:    2     -634.7678     -634.5385     -634.5719  0.1078  0.8452
siesta:    3     -634.6901     -635.5904     -635.6237  0.0742  0.3163
siesta:    4     -634.6875     -634.6553     -634.6886  0.0044  0.1734
siesta:    5     -634.6872     -634.6629     -634.6962  0.0018  0.1489
siesta:    6     -634.6872     -634.6858     -634.7191  0.0002  0.1584
siesta:    7     -634.6872     -634.6864     -634.7197  0.0001  0.1586
siesta:    8     -634.6872     -634.6866     -634.7199  0.0000  0.1579

siesta: E_KS(eV) =             -634.6868

siesta: Atomic forces (eV/Ang):
----------------------------------------
   Tot    0.000000   -0.000001    0.016462
----------------------------------------
   Max   51.108284
   Res   29.502630    sqrt( Sum f_i^2 / 3N )
----------------------------------------
   Max   51.108284    constrained

Stress-tensor-Voigt (kbar):       -0.04       -0.04     -540.88        0.00        0.00        0.00
(Free)E + p*V (eV/cell)     -618.6780
Target enthalpy (eV/cell)     -634.7201

* Maximum dynamic memory allocated =     5 MB

siesta:                 ==============================
                            Begin CG move =      2
                        ==============================

outcell: Unit cell vectors (Ang):
        4.818722    0.000000    0.000000
        0.000000    4.818722    0.000000
        0.000000    0.000000    6.138722

outcell: Cell vector modules (Ang)   :    4.818722    4.818722    6.138722
outcell: Cell angles (23,13,12) (deg):     90.0000     90.0000     90.0000
outcell: Cell volume (Ang**3)        :    142.5416
New_DM. Step:     3
Re-using DM from previous geometry...
Extrapolating Density Matrix...

siesta: iscf   Eharris(eV)      E_KS(eV)   FreeEng(eV)   dDmax  Ef(eV)
siesta:    1     -639.7152     -626.3222     -626.3555  0.5164 -1.4708
siesta:    2     -638.8535     -638.0182     -638.0516  0.1949 -4.0369
siesta:    3     -638.5843     -636.5236     -636.5569  0.1199 -3.2567
siesta:    4     -638.5648     -638.6150     -638.6483  0.0102 -2.7825
siesta:    5     -638.5643     -638.5358     -638.5692  0.0025 -2.8492
siesta:    6     -638.5641     -638.5493     -638.5826  0.0008 -2.8506
siesta:    7     -638.5641     -638.5531     -638.5864  0.0004 -2.8525
siesta:    8     -638.5641     -638.5579     -638.5912  0.0002 -2.8522
siesta:    9     -638.5641     -638.5622     -638.5955  0.0001 -2.8520

siesta: E_KS(eV) =             -638.5632

siesta: Atomic forces (eV/Ang):
----------------------------------------
   Tot    0.000000   -0.000002    0.036895
----------------------------------------
   Max    3.998837
   Res    2.298104    sqrt( Sum f_i^2 / 3N )
----------------------------------------
   Max    3.998837    constrained

Stress-tensor-Voigt (kbar):        0.01        0.01       52.73        0.00        0.00        0.00
(Free)E + p*V (eV/cell)     -640.1610
Target enthalpy (eV/cell)     -638.5966

* Maximum dynamic memory allocated =     5 MB

siesta:                 ==============================
                            Begin CG move =      3
                        ==============================

outcell: Unit cell vectors (Ang):
        4.818722    0.000000    0.000000
        0.000000    4.818722    0.000000
        0.000000    0.000000    6.138722

outcell: Cell vector modules (Ang)   :    4.818722    4.818722    6.138722
outcell: Cell angles (23,13,12) (deg):     90.0000     90.0000     90.0000
outcell: Cell volume (Ang**3)        :    142.5416
New_DM. Step:     4
Re-using DM from previous geometry...
Extrapolating Density Matrix...

siesta: iscf   Eharris(eV)      E_KS(eV)   FreeEng(eV)   dDmax  Ef(eV)
siesta:    1     -638.6417     -642.8912     -642.9245  0.2050 -3.5619
siesta:    2     -638.5164     -638.3989     -638.4322  0.0712 -2.5831
siesta:    3     -638.4789     -639.0810     -639.1143  0.0424 -2.8699
siesta:    4     -638.4756     -638.4602     -638.4935  0.0017 -3.0272
siesta:    5     -638.4756     -638.4623     -638.4957  0.0009 -3.0348
siesta:    6     -638.4755     -638.4749     -638.5083  0.0003 -3.0299
siesta:    7     -638.4755     -638.4756     -638.5089  0.0002 -3.0300
siesta:    8     -638.4755     -638.4757     -638.5090  0.0001 -3.0304

siesta: E_KS(eV) =             -638.4756

siesta: Atomic forces (eV/Ang):
----------------------------------------
   Tot   -0.000005    0.000005    0.013766
----------------------------------------
   Max    5.598697
   Res    3.228438    sqrt( Sum f_i^2 / 3N )
----------------------------------------
   Max    5.598697    constrained

Stress-tensor-Voigt (kbar):        0.02        0.02       74.95        0.00        0.00        0.00
(Free)E + p*V (eV/cell)     -640.7325
Target enthalpy (eV/cell)     -638.5089

* Maximum dynamic memory allocated =     5 MB

siesta:                 ==============================
                            Begin CG move =      4
                        ==============================

outcell: Unit cell vectors (Ang):
        4.818722    0.000000    0.000000
        0.000000    4.818722    0.000000
        0.000000    0.000000    6.138722

outcell: Cell vector modules (Ang)   :    4.818722    4.818722    6.138722
outcell: Cell angles (23,13,12) (deg):     90.0000     90.0000     90.0000
outcell: Cell volume (Ang**3)        :    142.5416
New_DM. Step:     5
Re-using DM from previous geometry...
Extrapolating Density Matrix...

siesta: iscf   Eharris(eV)      E_KS(eV)   FreeEng(eV)   dDmax  Ef(eV)
siesta:    1     -638.3430     -638.3168     -638.3501  0.0016 -3.2223
siesta:    2     -638.3430     -638.3429     -638.3763  0.0008 -3.2265
siesta:    3     -638.3430     -638.3405     -638.3739  0.0004 -3.2256
siesta:    4     -638.3430     -638.3428     -638.3761  0.0001 -3.2250

siesta: E_KS(eV) =             -638.3429

siesta: Atomic forces (eV/Ang):
----------------------------------------
   Tot    0.000012   -0.000010   -0.026619
----------------------------------------
   Max    7.043718
   Res    4.059016    sqrt( Sum f_i^2 / 3N )
----------------------------------------
   Max    7.043718    constrained

Stress-tensor-Voigt (kbar):        0.00        0.00       95.61        0.00        0.00        0.00
(Free)E + p*V (eV/cell)     -641.2115
Target enthalpy (eV/cell)     -638.3762

* Maximum dynamic memory allocated =     5 MB

outcoor: Final (unrelaxed) atomic coordinates (Ang):        
    0.00000015   -0.00000015    0.00295873   1       1  ON-0.34560
   -0.00000001   -0.00000002    1.19717910   1       2  ON-0.34560

siesta: Program's energy decomposition (eV):
siesta: Eions   =      1232.617191
siesta: Ena     =       321.946759
siesta: Ekin    =       451.118184
siesta: Enl     =       -37.530137
siesta: DEna    =         5.305135
siesta: DUscf   =         0.283445
siesta: DUext   =         0.000000
siesta: Exc     =      -146.849071
siesta: eta*DQ  =         0.000000
siesta: Emadel  =         0.000000
siesta: Emeta   =         0.000000
siesta: Emolmec =         0.000000
siesta: Ekinion =         0.000000
siesta: Eharris =      -638.342969
siesta: Etot    =      -638.342876
siesta: FreeEng =      -638.376207

siesta: Final energy (eV):
siesta:       Kinetic =     451.118184
siesta:       Hartree =     455.568148
siesta:    Ext. field =       0.000000
siesta:   Exch.-corr. =    -146.849071
siesta:  Ion-electron =   -1316.758114
siesta:       Ion-ion =     -81.422022
siesta:       Ekinion =       0.000000
siesta:         Total =    -638.342876

siesta: Atomic forces (eV/Ang):
siesta:      1    0.000008   -0.000022    7.017099
siesta:      2    0.000004    0.000011   -7.043718
siesta: ----------------------------------------
siesta:    Tot    0.000012   -0.000010   -0.026619

siesta: Stress tensor (static) (eV/Ang**3):
siesta:    -0.000002    0.000000    0.000000
siesta:     0.000000   -0.000002    0.000000
siesta:     0.000000    0.000000    0.059677

siesta: Cell volume =        142.541589 Ang**3

siesta: Pressure (static):
siesta:                Solid            Molecule  Units
siesta:          -0.00021664          0.00000026  Ry/Bohr**3
siesta:          -0.01989128          0.00002351  eV/Ang**3
siesta:         -31.86968559          0.03766516  kBar
(Free)E+ p_basis*V_orbitals  =        -638.020169
(Free)Eharris+ p_basis*V_orbitals  =        -638.020322

siesta: Total spin polarization (Qup-Qdown) =    0.691203

siesta: Electric dipole (a.u.)  =    0.000000    0.000000    0.000104
siesta: Electric dipole (Debye) =    0.000000    0.000000    0.000266

* Maximum dynamic memory allocated : Node    0 =     5 MB
* Maximum dynamic memory allocated : Node    1 =     4 MB
* Maximum dynamic memory allocated : Node    2 =     5 MB
* Maximum dynamic memory allocated : Node    3 =     4 MB

* Maximum memory occured during redistribXZ                   

timer: CPU execution times:
timer:  Routine       Calls   Time/call    Tot.time        %
timer:  siesta            1      25.872      25.872   100.00
timer:  Setup             1       0.453       0.453     1.75
timer:  bands             1       0.000       0.000     0.00
timer:  writewave         1       0.004       0.004     0.02
timer:  KSV_init          1       0.000       0.000     0.00
timer:  IterMD            5       5.081      25.403    98.19
timer:  hsparse           5       0.000       0.002     0.01
timer:  overlap           5       0.121       0.607     2.35
timer:  IterSCF          40       0.522      20.871    80.67
timer:  kinefsm          10       0.055       0.550     2.13
timer:  nlefsm           10       0.297       2.966    11.46
timer:  DHSCF            45       0.422      19.006    73.46
timer:  DHSCF1            1       0.210       0.210     0.81
timer:  DHSCF2            5       0.361       1.804     6.97
timer:  REORD           505       0.000       0.129     0.50
timer:  POISON           50       0.042       2.081     8.04
timer:  DHSCF3           45       0.348      15.645    60.47
timer:  rhoofd           45       0.068       3.056    11.81
timer:  cellXC           45       0.073       3.306    12.78
timer:  vmat             45       0.113       5.091    19.68
timer:  MolMec           10       0.000       0.000     0.00
timer:  diagon           40       0.017       0.699     2.70
timer:  r-eigvec         40       0.027       1.064     4.11
timer:  r-buildHS        40       0.009       0.373     1.44
timer:  rdiag            80       0.009       0.690     2.67
timer:  rdiag1           80       0.000       0.030     0.12
timer:  rdiag2           80       0.001       0.061     0.24
timer:  rdiag3           80       0.007       0.540     2.09
timer:  rdiag4           80       0.000       0.030     0.12
timer:  r-buildD         40       0.000       0.004     0.02
timer:  DHSCF4            5       0.265       1.325     5.12
timer:  dfscf             5       0.244       1.218     4.71
timer:  overfsm           5       0.001       0.007     0.03
timer:  optical           1       0.000       0.000     0.00
  

elaps: ELAPSED times:
elaps:  Routine       Calls   Time/call    Tot.time        %
elaps:  siesta            1       6.480       6.480    99.99
elaps:  Setup             1       0.115       0.115     1.78
elaps:  bands             1       0.000       0.000     0.00
elaps:  writewave         1       0.000       0.000     0.01
elaps:  KSV_init          1       0.000       0.000     0.00
elaps:  IterMD            5       1.272       6.361    98.15
elaps:  hsparse           5       0.000       0.001     0.01
elaps:  overlap           5       0.022       0.111     1.72
elaps:  IterSCF          40       0.131       5.224    80.60
elaps:  kinefsm          10       0.010       0.096     1.49
elaps:  nlefsm           10       0.074       0.743    11.47
elaps:  DHSCF            45       0.109       4.892    75.48
elaps:  DHSCF1            1       0.053       0.053     0.81
elaps:  DHSCF2            5       0.090       0.451     6.97
elaps:  REORD           505       0.000       0.033     0.50
elaps:  POISON           50       0.010       0.522     8.06
elaps:  DHSCF3           45       0.087       3.911    60.34
elaps:  rhoofd           45       0.025       1.143    17.63
elaps:  cellXC           45       0.018       0.819    12.64
elaps:  vmat             45       0.028       1.271    19.61
elaps:  MolMec           10       0.000       0.000     0.00
elaps:  diagon           40       0.004       0.178     2.74
elaps:  r-eigvec         40       0.007       0.268     4.13
elaps:  r-buildHS        40       0.002       0.094     1.46
elaps:  rdiag            80       0.002       0.173     2.67
elaps:  rdiag1           80       0.000       0.012     0.19
elaps:  rdiag2           80       0.000       0.017     0.25
elaps:  rdiag3           80       0.002       0.132     2.04
elaps:  rdiag4           80       0.000       0.007     0.11
elaps:  r-buildD         40       0.000       0.001     0.02
elaps:  DHSCF4            5       0.094       0.470     7.24
elaps:  dfscf             5       0.086       0.432     6.66
elaps:  overfsm           5       0.000       0.001     0.02
elaps:  optical           1       0.000       0.000     0.00
  
>> End of run:  29-SEP-2009  17:23:00
