Siesta Version: siesta@uam.es--2006/siesta-devel--reference--2.1--patch-34
Architecture  : intel9 with Siesta libs
Compiler flags: ifort -w -O2 -mp
SERIAL version

* Running in serial mode
>> Start of run:  25-JAN-2007  18:11:43

                           ***********************       
                           *  WELCOME TO SIESTA  *       
                           ***********************       

reinit: Reading from standard input
************************** Dump of input data file ****************************
SystemName          Molecule made up of ON hybrids (at x=0.3456)
SystemLabel         oxyn
NumberOfAtoms       2
NumberOfSpecies     1
MeshCutoff 200 Ry
%block ChemicalSpeciesLabel
 1  201  ON-0.34560      # Species index, atomic number, species label
%endblock ChemicalSpeciesLabel
%block SyntheticAtoms
 1                           # Species index
 2 2 3 4	             # n quantum numbers for valence states with l=0,1,2,3
 2.0 3.3456 0.0 0.0          # occupations of valence states with l=0,1,2,3
%endblock SyntheticAtoms
DM.NumberPulay 4
Spin.Polarized T
AtomicCoordinatesFormat  Ang
%block AtomicCoordinatesAndAtomicSpecies
 0.000  0.000  0.000  1
 0.000  0.000  1.200  1
%endblock AtomicCoordinatesAndAtomicSpecies
MD.TypeOfRun Broyden
MD.NumCGSteps 4
************************** End of input data file *****************************

reinit: -----------------------------------------------------------------------
reinit: System Name: Molecule made up of ON hybrids (at x=0.3456                
reinit: -----------------------------------------------------------------------
reinit: System Label: oxyn                                                        
reinit: -----------------------------------------------------------------------

initatom: Reading input for the pseudopotentials and atomic orbitals ----------
 Species number:            1  Label: ON-0.34560 Atomic number:         201
Reading pseudopotential information in formatted form from ON-0.34560.psf

Valence configuration for pseudopotential generation:
Dumping pseudopotential information in formatted form in SX.psdump
Ground state valence configuration (synthetic):   2s 2.00000  2p 3.34560
Number of synthetic species:  1
For ON-0.34560, standard SIESTA heuristics set lmxkb to 3
 (one more than the basis l, including polarization orbitals).
Use PS.lmax or PS.KBprojectors blocks to override.

<basis_specs>
===============================================================================
ON-0.34560           Z= 201    Mass= -1.0000        Charge= 0.17977+309
Lmxo=1 Lmxkb=3     BasisType=split      Semic=F
L=0  Nsemic=0  Cnfigmx=2
          n=1  nzeta=2  polorb=0
            splnorm:   0.15000    
               vcte:    0.0000    
               rinn:    0.0000    
                rcs:    0.0000      0.0000    
            lambdas:    1.0000      1.0000    
L=1  Nsemic=0  Cnfigmx=2
          n=1  nzeta=2  polorb=1
            splnorm:   0.15000    
               vcte:    0.0000    
               rinn:    0.0000    
                rcs:    0.0000      0.0000    
            lambdas:    1.0000      1.0000    
-------------------------------------------------------------------------------
L=0  Nkbl=1  erefs: 0.17977+309
L=1  Nkbl=1  erefs: 0.17977+309
L=2  Nkbl=1  erefs: 0.17977+309
L=3  Nkbl=1  erefs: 0.17977+309
===============================================================================
</basis_specs>

atom: Called for (synthetic) ON-0.34560            (Z = 201)

read_vps: Pseudopotential generation method:
read_vps: MIXPS     22-JUL-06  ---      ATM 3.2.2 22-JUL-06 
Total valence charge:    5.34560

xc_check: Exchange-correlation functional:
xc_check: Ceperley-Alder
V l=0 = -2*Zval/r beyond r=  1.1709
V l=1 = -2*Zval/r beyond r=  1.1709
V l=2 = -2*Zval/r beyond r=  1.1709
V l=3 = -2*Zval/r beyond r=  1.1709
All V_l potentials equal beyond r=  1.1278
This should be close to max(r_c) in ps generation
All pots = -2*Zval/r beyond r=  1.1709

VLOCAL1: 99.0% of the norm of Vloc inside     34.126 Ry
VLOCAL1: 99.9% of the norm of Vloc inside     77.774 Ry
atom: Maximum radius for 4*pi*r*r*local-pseudopot. charge    1.36047
atom: Maximum radius for r*vlocal+2*Zval:    1.18566
GHOST: No ghost state for L =  0
GHOST: No ghost state for L =  1
GHOST: No ghost state for L =  2
GHOST: No ghost state for L =  3

KBgen: Kleinman-Bylander projectors: 
   l= 0   rc=  1.377587   el= -1.466572   Ekb=  9.441480   kbcos=  0.309530
   l= 1   rc=  1.377587   el= -0.575298   Ekb= -7.100736   kbcos= -0.350452
   l= 2   rc=  1.580692   el=  0.002386   Ekb= -1.851180   kbcos= -0.003763
   l= 3   rc=  1.703827   el=  0.003508   Ekb= -0.729419   kbcos= -0.000366

KBgen: Total number of  Kleinman-Bylander projectors:   16
atom: -------------------------------------------------------------------------

atom: SANKEY-TYPE ORBITALS:
atom: Selected multiple-zeta basis: split     

SPLIT: Orbitals with angular momentum L= 0

SPLIT: Basis orbitals for state 2s

SPLIT: PAO cut-off radius determined from an
SPLIT: energy shift=  0.020000 Ry

   izeta = 1
                 lambda =    1.000000
                     rc =    3.562532
                 energy =   -1.448336
                kinetic =    1.361860
    potential(screened) =   -2.810196
       potential(ionic) =   -9.160109

   izeta = 2
                 rmatch =    2.774434
              splitnorm =    0.150000
                 energy =   -1.229344
                kinetic =    2.083991
    potential(screened) =   -3.313335
       potential(ionic) =  -10.130218

SPLIT: Orbitals with angular momentum L= 1

SPLIT: Basis orbitals for state 2p

SPLIT: PAO cut-off radius determined from an
SPLIT: energy shift=  0.020000 Ry

   izeta = 1
                 lambda =    1.000000
                     rc =    4.139122
                 energy =   -0.555198
                kinetic =    4.175095
    potential(screened) =   -4.730293
       potential(ionic) =  -10.952342

   izeta = 2
                 rmatch =    2.774434
              splitnorm =    0.150000
                 energy =   -0.304577
                kinetic =    6.310363
    potential(screened) =   -6.614940
       potential(ionic) =  -13.569803

POLgen: Perturbative polarization orbital with L=  2

POLgen: Polarization orbital for state 2p

   izeta = 1
                     rc =    4.139122
                 energy =    2.013739
                kinetic =    3.981970
    potential(screened) =   -1.968231
       potential(ionic) =   -7.042245
atom: Total number of Sankey-type orbitals: 13

atm_pop: Valence configuration (for local Pseudopot. screening):
 2s( 2.00)                                                            
 2p( 3.35)                                                            
Vna: chval, zval:    5.34560   5.34560

Vna:  Cut-off radius for the neutral-atom potential:   4.139122

atom: _________________________________________________________________________

prinput: Basis input ----------------------------------------------------------

PAO.BasisType split     

%block ChemicalSpeciesLabel
    1  201 ON-0.34560              # Species index, atomic number, species label
%endblock ChemicalSpeciesLabel

%block SyntheticAtoms   # Valence config
  1
  2  2  3  4
  2.00000  3.34560  0.00000  0.00000
%endblock SyntheticAtoms

%block PAO.Basis                 # Define Basis set
ON-0.34560            2                    # Species label, number of l-shells
 n=2   0   2                         # n, l, Nzeta 
   3.563      2.774   
   1.000      1.000   
 n=2   1   2 P   1                   # n, l, Nzeta, Polarization, NzetaPol
   4.139      2.774   
   1.000      1.000   
%endblock PAO.Basis

prinput: ----------------------------------------------------------------------


siesta: ******************** Simulation parameters ****************************
siesta:
siesta: The following are some of the parameters of the simulation.
siesta: A complete list of the parameters used, including default values,
siesta: can be found in file out.fdf
siesta:
coor:   Atomic-coordinates input format  =     Cartesian coordinates
coor:                                          (in Angstroms)
redata: Number of spin components        =     2
redata: Long output                      =     F
redata: Number of Atomic Species         =     1
redata: Charge density info will appear in .RHO file
redata: Write Mulliken Pop.              =     NO
redata: Mesh Cutoff                      =   200.0000  Ry
redata: Net charge of the system         =     0.0000 |e|
redata: Max. number of SCF Iter          =    50
redata: Performing Pulay mixing using    =     4 iterations
redata: Mix DM in first SCF step ?       =     F
redata: Write Pulay info on disk?        =     F
redata: New DM Mixing Weight             =     0.2500
redata: New DM Occupancy tolerance       = 0.000000000001
redata: No kicks to SCF
redata: DM Mixing Weight for Kicks       =     0.5000
redata: DM Tolerance for SCF             =     0.000100
redata: Require Energy convergence for SCF =     F
redata: DM Energy tolerance for SCF      =     0.000100 eV
redata: Antiferro initial spin density   =     F
redata: Using Saved Data (generic)   =     F
redata: Use continuation files for DM    =     F
redata: Neglect nonoverlap interactions  =     F
redata: Method of Calculation            =     Diagonalization
redata: Divide and Conquer               =     T
redata: Electronic Temperature           =     0.0019  Ry
redata: Fix the spin of the system       =     F
redata: Dynamics option                  =     Broyden coord. optimization
redata: Variable cell                    =     F
redata: Maximum number of CG moves       =     4
redata: Force tolerance                  =     0.0016  Ry/Bohr
redata: ***********************************************************************

siesta: Atomic coordinates (Bohr) and species
siesta:      0.00000   0.00000   0.00000  1        1
siesta:      0.00000   0.00000   2.26767  1        2

initatomlists: Number of atoms, orbitals, and projectors:      2    26    32
Total number of electrons:    10.691200
Total ionic charge:    10.691200

siesta: Automatic unit cell vectors (Ang):
siesta:    4.818722    0.000000    0.000000
siesta:    0.000000    4.818722    0.000000
siesta:    0.000000    0.000000    6.138722

siesta: System type = molecule  

siesta: k-grid: Number of k-points =     1
siesta: k-grid: Cutoff (effective) =     2.409 Ang
siesta: k-grid: Supercell and displacements
siesta: k-grid:    0   1   0      0.000
siesta: k-grid:    1   0   0      0.000
siesta: k-grid:    0   0   1      0.000

* Maximum dynamic memory allocated =     1 MB

siesta:                 ==============================
                            Begin CG move =      0
                        ==============================

outcell: Unit cell vectors (Ang):
        4.818722    0.000000    0.000000
        0.000000    4.818722    0.000000
        0.000000    0.000000    6.138722

outcell: Cell vector modules (Ang)   :    4.818722    4.818722    6.138722
outcell: Cell angles (23,13,12) (deg):     90.0000     90.0000     90.0000
outcell: Cell volume (Ang**3)        :    142.5416

InitMesh: MESH =    48 x    48 x    54 =      124416
InitMesh: Mesh cutoff (required, used) =   200.000   213.862 Ry

* Maximum dynamic memory allocated =    11 MB

stepf: Fermi-Dirac step function

siesta: Program's energy decomposition (eV):
siesta: Eions   =      1232.617191
siesta: Ena     =       321.732802
siesta: Ekin    =       454.198612
siesta: Enl     =       -30.717004
siesta: DEna    =         0.000001
siesta: DUscf   =         0.000000
siesta: DUext   =         0.000000
siesta: Exc     =      -152.854406
siesta: eta*DQ  =         0.000000
siesta: Emadel  =         0.000000
siesta: Emeta   =         0.000000
siesta: Emolmec =         0.000000
siesta: Ekinion =         0.000000
siesta: Eharris =      -634.394682
siesta: Etot    =      -640.257186
siesta: FreeEng =      -640.257186

siesta: iscf   Eharris(eV)      E_KS(eV)   FreeEng(eV)   dDmax  Ef(eV)
siesta:    1     -634.3947     -640.2572     -640.2572  0.6081 -4.2113
timer: Routine,Calls,Time,% = IterSCF        1       2.899  78.54
elaps: Routine,Calls,Wall,% = IterSCF        1       2.899  78.55
siesta:    2     -638.4898     -638.1687     -638.2020  0.1054 -3.6547
siesta:    3     -638.4027     -638.1448     -638.1781  0.0652 -3.5000
siesta:    4     -638.4177     -638.3448     -638.3781  0.0247 -3.0637
siesta:    5     -638.4188     -638.4181     -638.4514  0.0079 -3.1748
siesta:    6     -638.4183     -638.4248     -638.4581  0.0023 -3.1220
siesta:    7     -638.4182     -638.4231     -638.4564  0.0015 -3.1224
siesta:    8     -638.4182     -638.4195     -638.4529  0.0005 -3.1231
siesta:    9     -638.4182     -638.4184     -638.4517  0.0003 -3.1221
siesta:   10     -638.4182     -638.4182     -638.4516  0.0002 -3.1215
siesta:   11     -638.4182     -638.4182     -638.4515  0.0001 -3.1213

siesta: E_KS(eV) =             -638.4183

siesta: E_KS - E_eggbox =      -638.4183

siesta: Atomic forces (eV/Ang):
----------------------------------------
   Tot    0.000000    0.000000   -0.015742
----------------------------------------
   Max    6.278530
   Res    3.620369    sqrt( Sum f_i^2 / 3N )
----------------------------------------
   Max    6.278530    constrained

Stress-tensor-Voigt (kbar):       -0.01       -0.01       84.45        0.00        0.00        0.00
Target enthalpy (eV/cell)     -638.4516
 
Broyden_optim: max_history for broyden:   5
Broyden_optim: cycle on maxit: T
Broyden_optim: initial inverse jacobian:   1.0000
 
Broyden_optim: No of elements:      6

* Maximum dynamic memory allocated =    11 MB

siesta:                 ==============================
                            Begin CG move =      1
                        ==============================

outcell: Unit cell vectors (Ang):
        4.818722    0.000000    0.000000
        0.000000    4.818722    0.000000
        0.000000    0.000000    6.138722

outcell: Cell vector modules (Ang)   :    4.818722    4.818722    6.138722
outcell: Cell angles (23,13,12) (deg):     90.0000     90.0000     90.0000
outcell: Cell volume (Ang**3)        :    142.5416

siesta: iscf   Eharris(eV)      E_KS(eV)   FreeEng(eV)   dDmax  Ef(eV)
siesta:    1     -635.0185     -639.1415     -639.1749  0.2261 -0.7291
siesta:    2     -634.7678     -634.5385     -634.5719  0.1078  0.8452
siesta:    3     -634.6901     -635.5904     -635.6237  0.0742  0.3163
siesta:    4     -634.6875     -634.6553     -634.6886  0.0044  0.1734
siesta:    5     -634.6872     -634.6629     -634.6962  0.0018  0.1489
siesta:    6     -634.6872     -634.6858     -634.7191  0.0002  0.1584
siesta:    7     -634.6872     -634.6864     -634.7197  0.0001  0.1586
siesta:    8     -634.6872     -634.6866     -634.7199  0.0000  0.1579

siesta: E_KS(eV) =             -634.6868

siesta: Atomic forces (eV/Ang):
----------------------------------------
   Tot    0.000000    0.000000    0.016461
----------------------------------------
   Max   51.108301
   Res   29.502640    sqrt( Sum f_i^2 / 3N )
----------------------------------------
   Max   51.108301    constrained

Stress-tensor-Voigt (kbar):       -0.04       -0.04     -540.88        0.00        0.00        0.00
Target enthalpy (eV/cell)     -634.7201

* Maximum dynamic memory allocated =    11 MB

siesta:                 ==============================
                            Begin CG move =      2
                        ==============================

outcell: Unit cell vectors (Ang):
        4.818722    0.000000    0.000000
        0.000000    4.818722    0.000000
        0.000000    0.000000    6.138722

outcell: Cell vector modules (Ang)   :    4.818722    4.818722    6.138722
outcell: Cell angles (23,13,12) (deg):     90.0000     90.0000     90.0000
outcell: Cell volume (Ang**3)        :    142.5416

siesta: iscf   Eharris(eV)      E_KS(eV)   FreeEng(eV)   dDmax  Ef(eV)
siesta:    1     -638.7990     -633.2144     -633.2478  0.2356 -2.2217
siesta:    2     -638.6229     -638.4537     -638.4870  0.0865 -3.3913
siesta:    3     -638.5684     -637.7207     -637.7541  0.0531 -3.0383
siesta:    4     -638.5642     -638.5798     -638.6131  0.0024 -2.8349
siesta:    5     -638.5641     -638.5609     -638.5943  0.0010 -2.8513
siesta:    6     -638.5640     -638.5601     -638.5934  0.0003 -2.8520
siesta:    7     -638.5641     -638.5608     -638.5942  0.0002 -2.8522
siesta:    8     -638.5640     -638.5623     -638.5956  0.0001 -2.8519
siesta:    9     -638.5641     -638.5635     -638.5969  0.0000 -2.8518

siesta: E_KS(eV) =             -638.5637

siesta: Atomic forces (eV/Ang):
----------------------------------------
   Tot    0.000000    0.000000    0.036874
----------------------------------------
   Max    4.000074
   Res    2.298824    sqrt( Sum f_i^2 / 3N )
----------------------------------------
   Max    4.000074    constrained

Stress-tensor-Voigt (kbar):        0.01        0.01       52.75        0.00        0.00        0.00
Target enthalpy (eV/cell)     -638.5970

* Maximum dynamic memory allocated =    11 MB

siesta:                 ==============================
                            Begin CG move =      3
                        ==============================

outcell: Unit cell vectors (Ang):
        4.818722    0.000000    0.000000
        0.000000    4.818722    0.000000
        0.000000    0.000000    6.138722

outcell: Cell vector modules (Ang)   :    4.818722    4.818722    6.138722
outcell: Cell angles (23,13,12) (deg):     90.0000     90.0000     90.0000
outcell: Cell volume (Ang**3)        :    142.5416

siesta: iscf   Eharris(eV)      E_KS(eV)   FreeEng(eV)   dDmax  Ef(eV)
siesta:    1     -638.4770     -638.1647     -638.1980  0.0138 -2.9977
siesta:    2     -638.4758     -638.4746     -638.5079  0.0064 -3.0562
siesta:    3     -638.4754     -638.4423     -638.4756  0.0036 -3.0416
siesta:    4     -638.4754     -638.4757     -638.5090  0.0001 -3.0308

siesta: E_KS(eV) =             -638.4755

siesta: Atomic forces (eV/Ang):
----------------------------------------
   Tot    0.000000    0.000000    0.013770
----------------------------------------
   Max    5.597874
   Res    3.227962    sqrt( Sum f_i^2 / 3N )
----------------------------------------
   Max    5.597874    constrained

Stress-tensor-Voigt (kbar):        0.02        0.02       74.94        0.00        0.00        0.00
Target enthalpy (eV/cell)     -638.5088

* Maximum dynamic memory allocated =    11 MB

siesta:                 ==============================
                            Begin CG move =      4
                        ==============================

outcell: Unit cell vectors (Ang):
        4.818722    0.000000    0.000000
        0.000000    4.818722    0.000000
        0.000000    0.000000    6.138722

outcell: Cell vector modules (Ang)   :    4.818722    4.818722    6.138722
outcell: Cell angles (23,13,12) (deg):     90.0000     90.0000     90.0000
outcell: Cell volume (Ang**3)        :    142.5416

siesta: iscf   Eharris(eV)      E_KS(eV)   FreeEng(eV)   dDmax  Ef(eV)
siesta:    1     -638.3450     -638.0032     -638.0365  0.0151 -3.1903
siesta:    2     -638.3434     -638.3418     -638.3751  0.0073 -3.2509
siesta:    3     -638.3429     -638.3071     -638.3404  0.0039 -3.2360
siesta:    4     -638.3429     -638.3428     -638.3761  0.0002 -3.2250
siesta:    5     -638.3429     -638.3428     -638.3761  0.0000 -3.2250

siesta: E_KS(eV) =             -638.3428

siesta: Atomic forces (eV/Ang):
----------------------------------------
   Tot    0.000002    0.000000   -0.026575
----------------------------------------
   Max    7.043102
   Res    4.058673    sqrt( Sum f_i^2 / 3N )
----------------------------------------
   Max    7.043102    constrained

Stress-tensor-Voigt (kbar):        0.00        0.00       95.61        0.00        0.00        0.00
Target enthalpy (eV/cell)     -638.3761

* Maximum dynamic memory allocated =    11 MB

outcoor: Final (unrelaxed) atomic coordinates (Ang):        
    0.00000002    0.00000000    0.00294333   1       1  ON-0.34560
    0.00000000    0.00000000    1.19719451   1       2  ON-0.34560

siesta: Program's energy decomposition (eV):
siesta: Eions   =      1232.617191
siesta: Ena     =       321.947045
siesta: Ekin    =       451.114747
siesta: Enl     =       -37.528231
siesta: DEna    =         5.306253
siesta: DUscf   =         0.283273
siesta: DUext   =         0.000000
siesta: Exc     =      -146.848655
siesta: eta*DQ  =         0.000000
siesta: Emadel  =         0.000000
siesta: Emeta   =         0.000000
siesta: Emolmec =         0.000000
siesta: Ekinion =         0.000000
siesta: Eharris =      -638.342857
siesta: Etot    =      -638.342757
siesta: FreeEng =      -638.376089

siesta: Final energy (eV):
siesta:       Kinetic =     451.114747
siesta:       Hartree =     455.565746
siesta:    Ext. field =       0.000000
siesta:   Exch.-corr. =    -146.848655
siesta:  Ion-electron =   -1316.748392
siesta:       Ion-ion =     -81.426203
siesta:       Ekinion =       0.000000
siesta:         Total =    -638.342757

siesta: Atomic forces (eV/Ang):
siesta:      1    0.000002    0.000000    7.016527
siesta:      2    0.000000    0.000000   -7.043102
siesta: ----------------------------------------
siesta:    Tot    0.000002    0.000000   -0.026575

siesta: Stress tensor (static) (eV/Ang**3):
siesta:    -0.000002    0.000000    0.000000
siesta:     0.000000   -0.000002    0.000000
siesta:     0.000000    0.000000    0.059673

siesta: Cell volume =        142.541589 Ang**3

siesta: Pressure (static):
siesta:                Solid            Molecule  Units
siesta:          -0.00021663         -0.00000280  Ry/Bohr**3
siesta:          -0.01988982         -0.00025727  eV/Ang**3
siesta:         -31.86734331         -0.41219144  kBar

siesta: Total spin polarization (Qup-Qdown) =    0.691201

siesta: Electric dipole (a.u.)  =    0.000000    0.000000    0.000113
siesta: Electric dipole (Debye) =    0.000000    0.000000    0.000286

* Maximum dynamic memory allocated : Node    0 =    11 MB

* Maximum memory occured during poison                        

timer: CPU execution times:
timer:  Routine       Calls   Time/call    Tot.time        %
timer:  siesta            1      27.188      27.188   100.00
timer:  Setup             1       0.305       0.305     1.12
timer:  bands             1       0.001       0.001     0.00
timer:  writewave         1       0.000       0.000     0.00
timer:  KSV_init          1       0.000       0.000     0.00
timer:  IterMD            5       5.375      26.877    98.86
timer:  hsparse           6       0.003       0.021     0.08
timer:  overfsm          10       0.050       0.498     1.83
timer:  IterSCF          42       0.628      26.356    96.94
timer:  kinefsm          10       0.046       0.465     1.71
timer:  nlefsm           10       0.133       1.334     4.91
timer:  DHSCF            42       0.581      24.395    89.73
timer:  DHSCF1            1       0.171       0.171     0.63
timer:  DHSCF2            5       0.552       2.759    10.15
timer:  REORD           472       0.001       0.410     1.51
timer:  POISON           47       0.064       3.022    11.11
timer:  DHSCF3           42       0.444      18.646    68.58
timer:  rhoofd           42       0.086       3.631    13.36
timer:  cellXC           42       0.108       4.551    16.74
timer:  vmat             42       0.142       5.944    21.86
timer:  diagon           37       0.001       0.052     0.19
timer:  rdiag            74       0.001       0.046     0.17
timer:  rdiag1           74       0.000       0.001     0.00
timer:  rdiag2           74       0.000       0.008     0.03
timer:  rdiag3           74       0.000       0.030     0.11
timer:  rdiag4           74       0.000       0.005     0.02
timer:  MolMec           10       0.000       0.000     0.00
timer:  DHSCF4            5       0.530       2.649     9.74
timer:  dfscf             5       0.489       2.444     8.99
timer:  optical           1       0.000       0.000     0.00
  

elaps: ELAPSED times:
elaps:  Routine       Calls   Time/call    Tot.time        %
elaps:  siesta            1      27.190      27.190   100.00
elaps:  Setup             1       0.305       0.305     1.12
elaps:  bands             1       0.000       0.000     0.00
elaps:  writewave         1       0.000       0.000     0.00
elaps:  KSV_init          1       0.000       0.000     0.00
elaps:  IterMD            5       5.376      26.881    98.86
elaps:  hsparse           6       0.003       0.020     0.07
elaps:  overfsm          10       0.050       0.499     1.83
elaps:  IterSCF          42       0.628      26.361    96.95
elaps:  kinefsm          10       0.047       0.465     1.71
elaps:  nlefsm           10       0.133       1.332     4.90
elaps:  DHSCF            42       0.581      24.400    89.74
elaps:  DHSCF1            1       0.172       0.172     0.63
elaps:  DHSCF2            5       0.552       2.759    10.15
elaps:  REORD           472       0.001       0.418     1.54
elaps:  POISON           47       0.064       3.021    11.11
elaps:  DHSCF3           42       0.444      18.650    68.59
elaps:  rhoofd           42       0.087       3.635    13.37
elaps:  cellXC           42       0.108       4.551    16.74
elaps:  vmat             42       0.142       5.946    21.87
elaps:  diagon           37       0.002       0.056     0.21
elaps:  rdiag            74       0.001       0.046     0.17
elaps:  rdiag1           74       0.000       0.002     0.01
elaps:  rdiag2           74       0.000       0.005     0.02
elaps:  rdiag3           74       0.000       0.032     0.12
elaps:  rdiag4           74       0.000       0.004     0.01
elaps:  MolMec           10       0.000       0.000     0.00
elaps:  DHSCF4            5       0.530       2.649     9.74
elaps:  dfscf             5       0.489       2.445     8.99
elaps:  optical           1       0.000       0.000     0.00
  
>> End of run:  25-JAN-2007  18:12:10
