Siesta Version: siesta-trunk-479
Architecture  : atto-intel12-openmpi
Compiler flags: /share/apps/openmpi-1.6.5-intel/bin/mpif90 -w  -O2 -mp
PP flags      : -DCDF -DMPI 
PARALLEL version
NetCDF support

* Running on    4 nodes in parallel
>> Start of run:  29-SEP-2015  15:41:36

                           ***********************       
                           *  WELCOME TO SIESTA  *       
                           ***********************       

reinit: Reading from standard input
************************** Dump of input data file ****************************
SystemName          Molecule made up of ON hybrids (at x=0.3456)
SystemLabel         oxyn
NumberOfAtoms       2
NumberOfSpecies     1
MeshCutoff 200 Ry
%block ChemicalSpeciesLabel
 1  201  ON-0.34560      # Species index, atomic number, species label
%endblock ChemicalSpeciesLabel
%block SyntheticAtoms
 1                           # Species index
 2 2 3 4	             # n quantum numbers for valence states with l=0,1,2,3
 2.0 3.3456 0.0 0.0          # occupations of valence states with l=0,1,2,3
%endblock SyntheticAtoms
DM.NumberPulay 4
Spin.Polarized T
AtomicCoordinatesFormat  Ang
%block AtomicCoordinatesAndAtomicSpecies
 0.000  0.000  0.000  1
 0.000  0.000  1.200  1
%endblock AtomicCoordinatesAndAtomicSpecies
MD.TypeOfRun Broyden
MD.NumCGSteps 4
************************** End of input data file *****************************

reinit: -----------------------------------------------------------------------
reinit: System Name: Molecule made up of ON hybrids (at x=0.3456
reinit: -----------------------------------------------------------------------
reinit: System Label: oxyn                                                        
reinit: -----------------------------------------------------------------------

initatom: Reading input for the pseudopotentials and atomic orbitals ----------
 Species number:            1  Label: ON-0.34560 Atomic number:         201
Reading pseudopotential information in formatted form from ON-0.34560.psf

Valence configuration for pseudopotential generation:
Ground state valence configuration (synthetic):   2s 2.00000  2p 3.34560
Number of synthetic species:  1
For ON-0.34560, standard SIESTA heuristics set lmxkb to 3
 (one more than the basis l, including polarization orbitals).
Use PS.lmax or PS.KBprojectors blocks to override.

<basis_specs>
===============================================================================
ON-0.34560           Z= 201    Mass=-1.00000        Charge= 0.17977+309
Lmxo=1 Lmxkb= 3    BasisType=split      Semic=F
L=0  Nsemic=0  Cnfigmx=2
          n=1  nzeta=2  polorb=0
            splnorm:   0.15000    
               vcte:    0.0000    
               rinn:    0.0000    
               qcoe:    0.0000    
               qyuk:    0.0000    
               qwid:   0.10000E-01
                rcs:    0.0000      0.0000    
            lambdas:   1.00000     1.00000    
L=1  Nsemic=0  Cnfigmx=2
          n=1  nzeta=2  polorb=1
            splnorm:   0.15000    
               vcte:    0.0000    
               rinn:    0.0000    
               qcoe:    0.0000    
               qyuk:    0.0000    
               qwid:   0.10000E-01
                rcs:    0.0000      0.0000    
            lambdas:   1.00000     1.00000    
-------------------------------------------------------------------------------
L=0  Nkbl=1  erefs: 0.17977+309
L=1  Nkbl=1  erefs: 0.17977+309
L=2  Nkbl=1  erefs: 0.17977+309
L=3  Nkbl=1  erefs: 0.17977+309
===============================================================================
</basis_specs>

atom: Called for (synthetic) ON-0.34560            (Z = 201)

read_vps: Pseudopotential generation method:
read_vps: MIXPS     22-JUL-06  ---      ATM 3.2.2 22-JUL-06 
Total valence charge:    5.34560

xc_check: Exchange-correlation functional:
xc_check: Ceperley-Alder
V l=0 = -2*Zval/r beyond r=  1.1709
V l=1 = -2*Zval/r beyond r=  1.1709
V l=2 = -2*Zval/r beyond r=  1.1709
V l=3 = -2*Zval/r beyond r=  1.1709
All V_l potentials equal beyond r=  1.1278
This should be close to max(r_c) in ps generation
All pots = -2*Zval/r beyond r=  1.1709

VLOCAL1: 99.0% of the norm of Vloc inside     34.126 Ry
VLOCAL1: 99.9% of the norm of Vloc inside     77.774 Ry
atom: Maximum radius for 4*pi*r*r*local-pseudopot. charge    1.36047
atom: Maximum radius for r*vlocal+2*Zval:    1.18566
GHOST: No ghost state for L =  0
GHOST: No ghost state for L =  1
GHOST: No ghost state for L =  2
GHOST: No ghost state for L =  3

KBgen: Kleinman-Bylander projectors: 
   l= 0   rc=  1.377587   el= -1.466572   Ekb=  9.441480   kbcos=  0.309530
   l= 1   rc=  1.377587   el= -0.575298   Ekb= -7.100736   kbcos= -0.350452
   l= 2   rc=  1.580692   el=  0.002386   Ekb= -1.851180   kbcos= -0.003763
   l= 3   rc=  1.703827   el=  0.003508   Ekb= -0.729419   kbcos= -0.000366

KBgen: Total number of  Kleinman-Bylander projectors:   16
atom: -------------------------------------------------------------------------

atom: SANKEY-TYPE ORBITALS:
atom: Selected multiple-zeta basis: split     

SPLIT: Orbitals with angular momentum L= 0

SPLIT: Basis orbitals for state 2s

SPLIT: PAO cut-off radius determined from an
SPLIT: energy shift=  0.020000 Ry

   izeta = 1
                 lambda =    1.000000
                     rc =    3.562532
                 energy =   -1.448336
                kinetic =    1.361860
    potential(screened) =   -2.810196
       potential(ionic) =   -9.160109

   izeta = 2
                 rmatch =    2.774434
              splitnorm =    0.150000
                 energy =   -1.229344
                kinetic =    2.083991
    potential(screened) =   -3.313335
       potential(ionic) =  -10.130218

SPLIT: Orbitals with angular momentum L= 1

SPLIT: Basis orbitals for state 2p

SPLIT: PAO cut-off radius determined from an
SPLIT: energy shift=  0.020000 Ry

   izeta = 1
                 lambda =    1.000000
                     rc =    4.139122
                 energy =   -0.555198
                kinetic =    4.175095
    potential(screened) =   -4.730293
       potential(ionic) =  -10.952342

   izeta = 2
                 rmatch =    2.774434
              splitnorm =    0.150000
                 energy =   -0.304577
                kinetic =    6.310363
    potential(screened) =   -6.614940
       potential(ionic) =  -13.569803

POLgen: Perturbative polarization orbital with L=  2

POLgen: Polarization orbital for state 2p

   izeta = 1
                     rc =    4.139122
                 energy =    2.013739
                kinetic =    3.981970
    potential(screened) =   -1.968231
       potential(ionic) =   -7.042245
atom: Total number of Sankey-type orbitals: 13

atm_pop: Valence configuration (for local Pseudopot. screening):
 2s( 2.00)                                                            
 2p( 3.35)                                                            
Vna: chval, zval:    5.34560   5.34560

Vna:  Cut-off radius for the neutral-atom potential:   4.139122

atom: _________________________________________________________________________

prinput: Basis input ----------------------------------------------------------

PAO.BasisType split     

%block ChemicalSpeciesLabel
    1  201 ON-0.34560              # Species index, atomic number, species label
%endblock ChemicalSpeciesLabel

%block SyntheticAtoms   # Valence config
  1
  2  2  3  4
  2.00000  3.34560  0.00000  0.00000
%endblock SyntheticAtoms

%block PAO.Basis                 # Define Basis set
ON-0.34560            2                    # Species label, number of l-shells
 n=2   0   2                         # n, l, Nzeta 
   3.563      2.774   
   1.000      1.000   
 n=2   1   2 P   1                   # n, l, Nzeta, Polarization, NzetaPol
   4.139      2.774   
   1.000      1.000   
%endblock PAO.Basis

prinput: ----------------------------------------------------------------------

Dumping basis to NetCDF file ON-0.34560.ion.nc
coor:   Atomic-coordinates input format  =     Cartesian coordinates
coor:                                          (in Angstroms)

siesta: Atomic coordinates (Bohr) and species
siesta:      0.00000   0.00000   0.00000  1        1
siesta:      0.00000   0.00000   2.26767  1        2

siesta: Automatic unit cell vectors (Ang):
siesta:    4.818722    0.000000    0.000000
siesta:    0.000000    4.818722    0.000000
siesta:    0.000000    0.000000    6.138722

siesta: System type = molecule  

initatomlists: Number of atoms, orbitals, and projectors:      2    26    32

siesta: ******************** Simulation parameters ****************************
siesta:
siesta: The following are some of the parameters of the simulation.
siesta: A complete list of the parameters used, including default values,
siesta: can be found in file out.fdf
siesta:
redata: Non-Collinear-spin run           =     F
redata: SpinPolarized (Up/Down) run      =     T
redata: Number of spin components        =     2
redata: Long output                      =     F
redata: Number of Atomic Species         =        1
redata: Charge density info will appear in .RHO file
redata: Write Mulliken Pop.              =     NO
redata: Mesh Cutoff                      =   200.0000  Ry
redata: Net charge of the system         =     0.0000 |e|
redata: Min. number of SCF Iter          =        0
redata: Max. number of SCF Iter          =       50
redata: Mix DM or H after convergence    =     F
redata: Recompute H after scf cycle      =     F
redata: Performing Pulay mixing using    =     4 iterations
redata: Mix DM in first SCF step ?       =     F
redata: Write Pulay info on disk?        =     F
redata: Discard 1st Pulay DM after  kick =     F
redata: New DM Mixing Weight             =     0.2500
redata: New DM Occupancy tolerance       = 0.000000000001
redata: No kicks to SCF
redata: DM Mixing Weight for Kicks       =     0.5000
redata: DM Tolerance for SCF             =     0.000100
redata: Require (free) Energy convergence in SCF =     F
redata: DM (free)Energy tolerance for SCF =     0.000010 eV
redata: Require Harris convergence for SCF =     F
redata: DM Harris energy tolerance for SCF =     0.000010 eV
redata: Antiferro initial spin density   =     F
redata: Using Saved Data (generic)   =     F
redata: Use continuation files for DM    =     F
redata: Neglect nonoverlap interactions  =     F
redata: Method of Calculation            =     Diagonalization
redata: Divide and Conquer               =     T
redata: Electronic Temperature           =     0.0019  Ry
redata: Fix the spin of the system       =     F
redata: Dynamics option                  =     Broyden coord. optimization
redata: Variable cell                    =     F
redata: Maximum number of CG moves       =        4
redata: Force tolerance                  =     0.0016  Ry/Bohr
redata: ***********************************************************************
Total number of electrons:    10.691200
Total ionic charge:    10.691200

* ProcessorY, Blocksize:    2   7


* Orbital distribution balance (max,min):     7     5

 Kpoints in:            1 . Kpoints trimmed:            1

siesta: k-grid: Number of k-points =     1
siesta: k-grid: Cutoff (effective) =     2.409 Ang
siesta: k-grid: Supercell and displacements
siesta: k-grid:    1   0   0      0.000
siesta: k-grid:    0   1   0      0.000
siesta: k-grid:    0   0   1      0.000

                     ====================================
                        Begin Broyden opt. move =      0
                     ====================================

outcell: Unit cell vectors (Ang):
        4.818722    0.000000    0.000000
        0.000000    4.818722    0.000000
        0.000000    0.000000    6.138722

outcell: Cell vector modules (Ang)   :    4.818722    4.818722    6.138722
outcell: Cell angles (23,13,12) (deg):     90.0000     90.0000     90.0000
outcell: Cell volume (Ang**3)        :    142.5416
New_DM. Step:     1
Initializing Density Matrix...

initdm: Initial spin polarization (Qup-Qdown) =    5.308800
New grid distribution:   1
           1       1:   24    1:   12    1:   14
           2       1:   24    1:   12   15:   27
           3       1:   24   13:   24    1:   14
           4       1:   24   13:   24   15:   27

InitMesh: MESH =    48 x    48 x    54 =      124416
InitMesh: (bp) =    24 x    24 x    27 =       15552
InitMesh: Mesh cutoff (required, used) =   200.000   213.862 Ry
ExtMesh (bp) on 0 =    68 x    56 x    54 =      205632
New grid distribution:   2
           1       1:   24    1:    9    1:    6
           2       1:   24    1:    9    7:   27
           3       1:   24   10:   24    1:    6
           4       1:   24   10:   24    7:   27
New grid distribution:   3
           1       1:   24    1:   10    1:   10
           2       1:   24    1:   10   11:   27
           3       1:   24   11:   24    1:   10
           4       1:   24   11:   24   11:   27
Setting up quadratic distribution...
ExtMesh (bp) on 0 =    68 x    53 x    46 =      165784
PhiOnMesh: Number of (b)points on node 0 =                 1296
PhiOnMesh: nlist on node 0 =                21456

stepf: Fermi-Dirac step function

siesta: Program's energy decomposition (eV):
siesta: Ebs     =      -141.155167
siesta: Eions   =      1232.617191
siesta: Ena     =       321.732802
siesta: Ekin    =       454.198612
siesta: Enl     =       -30.717004
siesta: DEna    =         0.000002
siesta: DUscf   =         0.000000
siesta: DUext   =         0.000000
siesta: Exc     =      -152.854406
siesta: eta*DQ  =         0.000000
siesta: Emadel  =         0.000000
siesta: Emeta   =         0.000000
siesta: Emolmec =         0.000000
siesta: Ekinion =         0.000000
siesta: Eharris =      -634.394680
siesta: Etot    =      -640.257184
siesta: FreeEng =      -640.290516

   scf: iscf   Eharris(eV)      E_KS(eV)   FreeEng(eV)    dDmax  Ef(eV)
   scf:    1     -634.3947     -640.2572     -640.2905  0.60807 -4.2113
timer: Routine,Calls,Time,% =    IterSCF     1       0.071   4.08
   scf:    2     -638.4898     -638.1687     -638.2020  0.10542 -3.6547
   scf:    3     -638.4027     -638.1448     -638.1781  0.06516 -3.5000
   scf:    4     -638.4177     -638.3448     -638.3781  0.02473 -3.0637
   scf:    5     -638.4188     -638.4181     -638.4514  0.00794 -3.1748
   scf:    6     -638.4183     -638.4248     -638.4581  0.00231 -3.1220
   scf:    7     -638.4182     -638.4231     -638.4564  0.00153 -3.1224
   scf:    8     -638.4182     -638.4195     -638.4529  0.00051 -3.1231
   scf:    9     -638.4182     -638.4184     -638.4517  0.00028 -3.1221
   scf:   10     -638.4182     -638.4182     -638.4516  0.00018 -3.1215
   scf:   11     -638.4182     -638.4182     -638.4516  0.00008 -3.1213

SCF Convergence by dMax criterion
max |DM_out - DM_in|:     0.00007758
SCF cycle converged after   11 iterations

Using DM_out to compute the final energy and forces

siesta: E_KS(eV) =             -638.4182

siesta: E_KS - E_eggbox =      -638.4182

siesta: Atomic forces (eV/Ang):
----------------------------------------
   Tot    0.000000   -0.000000   -0.015742
----------------------------------------
   Max    6.279849
   Res    3.621131    sqrt( Sum f_i^2 / 3N )
----------------------------------------
   Max    6.279849    constrained

Stress-tensor-Voigt (kbar):       -0.01       -0.01       84.46        0.00       -0.00       -0.00
(Free)E + p*V (eV/cell)     -640.9560
Target enthalpy (eV/cell)     -638.4516
 
Broyden_optim: max_history for broyden:   5
Broyden_optim: cycle on maxit: T
Broyden_optim: initial inverse jacobian:   1.0000
 
Broyden_optim: No of elements:      6

                     ====================================
                        Begin Broyden opt. move =      1
                     ====================================

outcell: Unit cell vectors (Ang):
        4.818722    0.000000    0.000000
        0.000000    4.818722    0.000000
        0.000000    0.000000    6.138722

outcell: Cell vector modules (Ang)   :    4.818722    4.818722    6.138722
outcell: Cell angles (23,13,12) (deg):     90.0000     90.0000     90.0000
outcell: Cell volume (Ang**3)        :    142.5416
New_DM. Step:     2
Re-using DM from previous geometry...
Re-using DM without extrapolation (not allowed)
Note: For starting DM, Qtot, Tr[D*S] =         10.69120000         11.16744152
New grid distribution:   1
           1       1:   24    1:   12    1:   14
           2       1:   24    1:   12   15:   27
           3       1:   24   13:   24    1:   14
           4       1:   24   13:   24   15:   27

InitMesh: MESH =    48 x    48 x    54 =      124416
InitMesh: (bp) =    24 x    24 x    27 =       15552
InitMesh: Mesh cutoff (required, used) =   200.000   213.862 Ry
ExtMesh (bp) on 0 =    68 x    56 x    54 =      205632
New grid distribution:   2
           1       1:   24    1:   10    1:    6
           2       1:   24    1:    8    7:   27
           3       1:   24   11:   24    1:    6
           4       1:   24    9:   24    7:   27
New grid distribution:   3
           1       1:   24    1:   10    1:    9
           2       1:   24    1:    9   10:   27
           3       1:   24   11:   24    1:    9
           4       1:   24   10:   24   10:   27
Setting up quadratic distribution...
ExtMesh (bp) on 0 =    68 x    54 x    46 =      168912
PhiOnMesh: Number of (b)points on node 0 =                 1440
PhiOnMesh: nlist on node 0 =                23218

   scf: iscf   Eharris(eV)      E_KS(eV)   FreeEng(eV)    dDmax  Ef(eV)
   scf:    1     -635.0159     -639.1393     -639.1727  0.22615 -0.7289
   scf:    2     -634.7651     -634.5356     -634.5690  0.10776  0.8466
   scf:    3     -634.6873     -635.5883     -635.6217  0.07419  0.3171
   scf:    4     -634.6848     -634.6525     -634.6859  0.00445  0.1744
   scf:    5     -634.6845     -634.6601     -634.6935  0.00177  0.1498
   scf:    6     -634.6844     -634.6831     -634.7164  0.00024  0.1593
   scf:    7     -634.6844     -634.6836     -634.7170  0.00013  0.1595
   scf:    8     -634.6844     -634.6838     -634.7172  0.00002  0.1588

SCF Convergence by dMax criterion
max |DM_out - DM_in|:     0.00001774
SCF cycle converged after    8 iterations

Using DM_out to compute the final energy and forces

siesta: E_KS(eV) =             -634.6844

siesta: Atomic forces (eV/Ang):
----------------------------------------
   Tot   -0.000000    0.000000    0.016540
----------------------------------------
   Max   51.132691
   Res   29.516699    sqrt( Sum f_i^2 / 3N )
----------------------------------------
   Max   51.132691    constrained

Stress-tensor-Voigt (kbar):       -0.04       -0.04     -541.10        0.00       -0.00       -0.00
(Free)E + p*V (eV/cell)     -618.6688
Target enthalpy (eV/cell)     -634.7177

                     ====================================
                        Begin Broyden opt. move =      2
                     ====================================

outcell: Unit cell vectors (Ang):
        4.818722    0.000000    0.000000
        0.000000    4.818722    0.000000
        0.000000    0.000000    6.138722

outcell: Cell vector modules (Ang)   :    4.818722    4.818722    6.138722
outcell: Cell angles (23,13,12) (deg):     90.0000     90.0000     90.0000
outcell: Cell volume (Ang**3)        :    142.5416
New_DM. Step:     3
Re-using DM from previous geometry...
Re-using DM without extrapolation (not allowed)
Note: For starting DM, Qtot, Tr[D*S] =         10.69120000         10.23089971
New grid distribution:   1
           1       1:   24    1:   12    1:   14
           2       1:   24    1:   12   15:   27
           3       1:   24   13:   24    1:   14
           4       1:   24   13:   24   15:   27

InitMesh: MESH =    48 x    48 x    54 =      124416
InitMesh: (bp) =    24 x    24 x    27 =       15552
InitMesh: Mesh cutoff (required, used) =   200.000   213.862 Ry
ExtMesh (bp) on 0 =    68 x    56 x    54 =      205632
New grid distribution:   2
           1       1:   24    1:    9    1:    6
           2       1:   24    1:    9    7:   27
           3       1:   24   10:   24    1:    6
           4       1:   24   10:   24    7:   27
New grid distribution:   3
           1       1:   24    1:   10    1:   10
           2       1:   24    1:   10   11:   27
           3       1:   24   11:   24    1:   10
           4       1:   24   11:   24   11:   27
Setting up quadratic distribution...
ExtMesh (bp) on 0 =    68 x    53 x    46 =      165784
PhiOnMesh: Number of (b)points on node 0 =                 1296
PhiOnMesh: nlist on node 0 =                21498

   scf: iscf   Eharris(eV)      E_KS(eV)   FreeEng(eV)    dDmax  Ef(eV)
   scf:    1     -638.7991     -633.2133     -633.2466  0.23562 -2.2217
   scf:    2     -638.6229     -638.4537     -638.4870  0.08656 -3.3914
   scf:    3     -638.5684     -637.7206     -637.7539  0.05310 -3.0383
   scf:    4     -638.5642     -638.5798     -638.6131  0.00239 -2.8349
   scf:    5     -638.5641     -638.5612     -638.5945  0.00099 -2.8511
   scf:    6     -638.5640     -638.5603     -638.5936  0.00031 -2.8518
   scf:    7     -638.5640     -638.5610     -638.5943  0.00019 -2.8522
   scf:    8     -638.5640     -638.5622     -638.5955  0.00012 -2.8520
   scf:    9     -638.5640     -638.5636     -638.5969  0.00002 -2.8518

SCF Convergence by dMax criterion
max |DM_out - DM_in|:     0.00002459
SCF cycle converged after    9 iterations

Using DM_out to compute the final energy and forces

siesta: E_KS(eV) =             -638.5640

siesta: Atomic forces (eV/Ang):
----------------------------------------
   Tot   -0.000000    0.000000    0.036875
----------------------------------------
   Max    3.999395
   Res    2.298431    sqrt( Sum f_i^2 / 3N )
----------------------------------------
   Max    3.999395    constrained

Stress-tensor-Voigt (kbar):        0.01        0.01       52.74       -0.00       -0.00        0.00
(Free)E + p*V (eV/cell)     -640.1620
Target enthalpy (eV/cell)     -638.5974

                     ====================================
                        Begin Broyden opt. move =      3
                     ====================================

outcell: Unit cell vectors (Ang):
        4.818722    0.000000    0.000000
        0.000000    4.818722    0.000000
        0.000000    0.000000    6.138722

outcell: Cell vector modules (Ang)   :    4.818722    4.818722    6.138722
outcell: Cell angles (23,13,12) (deg):     90.0000     90.0000     90.0000
outcell: Cell volume (Ang**3)        :    142.5416
New_DM. Step:     4
Re-using DM from previous geometry...
Re-using DM without extrapolation (not allowed)
Note: For starting DM, Qtot, Tr[D*S] =         10.69120000         10.65375428
New grid distribution:   1
           1       1:   24    1:   12    1:   14
           2       1:   24    1:   12   15:   27
           3       1:   24   13:   24    1:   14
           4       1:   24   13:   24   15:   27

InitMesh: MESH =    48 x    48 x    54 =      124416
InitMesh: (bp) =    24 x    24 x    27 =       15552
InitMesh: Mesh cutoff (required, used) =   200.000   213.862 Ry
ExtMesh (bp) on 0 =    68 x    56 x    54 =      205632
New grid distribution:   2
           1       1:   24    1:    9    1:    6
           2       1:   24    1:    9    7:   27
           3       1:   24   10:   24    1:    6
           4       1:   24   10:   24    7:   27
New grid distribution:   3
           1       1:   24    1:   10    1:   10
           2       1:   24    1:   10   11:   27
           3       1:   24   11:   24    1:   10
           4       1:   24   11:   24   11:   27
Setting up quadratic distribution...
ExtMesh (bp) on 0 =    68 x    53 x    46 =      165784
PhiOnMesh: Number of (b)points on node 0 =                 1296
PhiOnMesh: nlist on node 0 =                21462

   scf: iscf   Eharris(eV)      E_KS(eV)   FreeEng(eV)    dDmax  Ef(eV)
   scf:    1     -638.4771     -638.1651     -638.1985  0.01382 -2.9975
   scf:    2     -638.4758     -638.4746     -638.5080  0.00636 -3.0562
   scf:    3     -638.4754     -638.4423     -638.4756  0.00359 -3.0416
   scf:    4     -638.4754     -638.4757     -638.5090  0.00006 -3.0307

SCF Convergence by dMax criterion
max |DM_out - DM_in|:     0.00005830
SCF cycle converged after    4 iterations

Using DM_out to compute the final energy and forces

siesta: E_KS(eV) =             -638.4754

siesta: Atomic forces (eV/Ang):
----------------------------------------
   Tot    0.000000   -0.000000    0.013711
----------------------------------------
   Max    5.602797
   Res    3.230821    sqrt( Sum f_i^2 / 3N )
----------------------------------------
   Max    5.602797    constrained

Stress-tensor-Voigt (kbar):        0.02        0.02       75.01        0.00       -0.00       -0.00
(Free)E + p*V (eV/cell)     -640.7340
Target enthalpy (eV/cell)     -638.5087

                     ====================================
                        Begin Broyden opt. move =      4
                     ====================================

outcell: Unit cell vectors (Ang):
        4.818722    0.000000    0.000000
        0.000000    4.818722    0.000000
        0.000000    0.000000    6.138722

outcell: Cell vector modules (Ang)   :    4.818722    4.818722    6.138722
outcell: Cell angles (23,13,12) (deg):     90.0000     90.0000     90.0000
outcell: Cell volume (Ang**3)        :    142.5416
New_DM. Step:     5
Re-using DM from previous geometry...
Re-using DM without extrapolation (not allowed)
Density Matrix sparsity pattern changed.
Note: For starting DM, Qtot, Tr[D*S] =         10.69120000         10.64894633
New grid distribution:   1
           1       1:   24    1:   12    1:   14
           2       1:   24    1:   12   15:   27
           3       1:   24   13:   24    1:   14
           4       1:   24   13:   24   15:   27

InitMesh: MESH =    48 x    48 x    54 =      124416
InitMesh: (bp) =    24 x    24 x    27 =       15552
InitMesh: Mesh cutoff (required, used) =   200.000   213.862 Ry
ExtMesh (bp) on 0 =    68 x    56 x    54 =      205632
New grid distribution:   2
           1       1:   24    1:    9    1:    6
           2       1:   24    1:    9    7:   27
           3       1:   24   10:   24    1:    6
           4       1:   24   10:   24    7:   27
New grid distribution:   3
           1       1:   24    1:   10    1:   10
           2       1:   24    1:   10   11:   27
           3       1:   24   11:   24    1:   10
           4       1:   24   11:   24   11:   27
Setting up quadratic distribution...
ExtMesh (bp) on 0 =    68 x    53 x    46 =      165784
PhiOnMesh: Number of (b)points on node 0 =                 1296
PhiOnMesh: nlist on node 0 =                21435

   scf: iscf   Eharris(eV)      E_KS(eV)   FreeEng(eV)    dDmax  Ef(eV)
   scf:    1     -638.3446     -638.0012     -638.0345  0.01519 -3.1912
   scf:    2     -638.3429     -638.3412     -638.3746  0.00732 -3.2514
   scf:    3     -638.3424     -638.3063     -638.3397  0.00390 -3.2367
   scf:    4     -638.3423     -638.3422     -638.3755  0.00019 -3.2257
   scf:    5     -638.3423     -638.3422     -638.3755  0.00005 -3.2257

SCF Convergence by dMax criterion
max |DM_out - DM_in|:     0.00004815
SCF cycle converged after    5 iterations

Using DM_out to compute the final energy and forces

siesta: E_KS(eV) =             -638.3423

siesta: Atomic forces (eV/Ang):
----------------------------------------
   Tot    0.000000    0.000000   -0.026758
----------------------------------------
   Max    7.051200
   Res    4.063295    sqrt( Sum f_i^2 / 3N )
----------------------------------------
   Max    7.051200    constrained

Stress-tensor-Voigt (kbar):       -0.00       -0.00       95.72       -0.00        0.00        0.00
(Free)E + p*V (eV/cell)     -641.2143
Target enthalpy (eV/cell)     -638.3757

outcoor: Final (unrelaxed) atomic coordinates (Ang):        
    0.00000000    0.00000000   -0.00542968   1       1  ON-0.34560
   -0.00000000   -0.00000000    1.20597970   1       2  ON-0.34560

siesta: Program's energy decomposition (eV):
siesta: Ebs     =      -146.827864
siesta: Eions   =      1232.617191
siesta: Ena     =       321.948492
siesta: Ekin    =       451.109387
siesta: Enl     =       -37.527328
siesta: DEna    =         5.307822
siesta: DUscf   =         0.283504
siesta: DUext   =         0.000000
siesta: Exc     =      -146.847005
siesta: eta*DQ  =         0.000000
siesta: Emadel  =         0.000000
siesta: Emeta   =         0.000000
siesta: Emolmec =         0.000000
siesta: Ekinion =         0.000000
siesta: Eharris =      -638.342319
siesta: Etot    =      -638.342319
siesta: FreeEng =      -638.375650

siesta: Final energy (eV):
siesta:  Band Struct. =    -146.827864
siesta:       Kinetic =     451.109387
siesta:       Hartree =     455.546412
siesta:    Ext. field =       0.000000
siesta:   Exch.-corr. =    -146.847005
siesta:  Ion-electron =   -1316.703876
siesta:       Ion-ion =     -81.447237
siesta:       Ekinion =       0.000000
siesta:         Total =    -638.342319

siesta: Atomic forces (eV/Ang):
siesta:      1   -0.000000   -0.000000    7.024442
siesta:      2    0.000000    0.000000   -7.051200
siesta: ----------------------------------------
siesta:    Tot    0.000000    0.000000   -0.026758

siesta: Stress tensor (static) (eV/Ang**3):
siesta:    -0.000002   -0.000000   -0.000000
siesta:    -0.000000   -0.000002   -0.000000
siesta:     0.000000    0.000000    0.059746

siesta: Cell volume =        142.541589 Ang**3

siesta: Pressure (static):
siesta:                Solid            Molecule  Units
siesta:          -0.00021689          0.00000025  Ry/Bohr**3
siesta:          -0.01991425          0.00002305  eV/Ang**3
siesta:         -31.90648997          0.03692939  kBar
(Free)E+ p_basis*V_orbitals  =        -638.019612
(Free)Eharris+ p_basis*V_orbitals  =        -638.019612

siesta: Total spin polarization (Qup-Qdown) =    0.691200

siesta: Electric dipole (a.u.)  =    0.000000    0.000000    0.000087
siesta: Electric dipole (Debye) =    0.000000    0.000000    0.000220
>> End of run:  29-SEP-2015  15:41:41
