
                           ***********************       
                           *  WELCOME TO SIESTA  *       
                           ***********************       

reinit: Reading from ../oxyn.fdf

reinit: -----------------------------------------------------------------------
reinit: System Name: Molecule made up of ON hybrids (at x=0.3456
reinit: -----------------------------------------------------------------------
reinit: System Label: oxyn
reinit: -----------------------------------------------------------------------
Siesta Version: siesta-4.1--731
Architecture  : x86_64-linux-n-62-18-14
Compiler flags: mpifort -m64 -fPIC -O3 -march=native -ftree-vectorize -fexpensive-optimizatioons -funroll-loops -fprefetch-loop-arrays -fno-second-underscore  -flto -fuse-linker-plugin
PP flags      : -I/zdata/groups/common/nicpa/2016-oct/generic/build-tools/1.0/include -I/zdatta/groups/common/nicpa/2016-oct/generic/gmp/6.1.0/include -I/zdata/groups/common/nicpa/2016-oct/generic/mpfr/3.1.4/include -I/zdata/groups/common/nicpa/2016-oct/generic/mpc/1.0.3/include -I/zdata/groups/common/nicpa/2016-oct/generic/isl/0.16.1/include -I/zdata/groups/common/nicpa/2016-oct/generic/gcc/6.2.0/include -I/zdata/groups/common/nicpa/2016-oct/generic/numactl/2.0.11/include -I/zdata/groups/common/nicpa/2016-oct/XeonE5-2665/zlib/1.2.8/gnu-6.2.0/include -I/zdata/groups/common/nicpa/2016-oct/XeonE5-2665/libxml2/2.9.4/gnu-6.2.0/include -I/zdata/groups/common/nicpa/2016-oct/XeonE5-2665/hwloc/1.11.4/gnu-6.2.0/include -I/zdata/groups/common/nicpa/2016-oct/XeonE5-2665/openmpi/2.0.1/gnu-6.2.0/include -I/zdata/groups/common/nicpa/2016-oct/XeonE5-2665/hdf5/1.8.17/gnu-6.2.0/include -I/zdata/groups/common/nicpa/2016-oct/XeonE5-2665/pnetcdf/1.7.0/gnu-6.2.0/include -I/zdata/groups/common/nicpa/2016-oct/XeonE5-2665/netcdf/4.4.1/gnu-6.2.0/include -I/zdata/groups/common/nicpa/2016-oct/XeonE5-2665/flook/0.7.0/gnu-6.2.0/include -I/zdata/groups/common/nicpa/2016-oct/XeonE5-2665/parmetis/4.0.3/gnu-6.2.0/include -I/zdata/groups/common/nicpa/2016-oct/XeonE5-2665/scalapack/204/gnu-6.2.0/include -I/zdata/groups/common/nicpa/2016-oct/XeonE5-2665/openblas/0.2.19/gnu-6.2.0/include -I/zdata/groups/common/nicpa/2016-oct/XeonE5-2665/mumps/5.0.2/gnu-6.2.0/include -I/zdata/groups/common/nicpa/2016-oct/XeonE5-2665/fftw/3.3.5/gnu-6.2.0/include -DMPI -DFC_HAVE_FLUSH -DFC_HAVE_ABORT -DCDF -DCDF4 -DSIESTA__METIS -DSIESTA__MUMPS -DTS_NOCHECKS -DNCDF -DNCDF_4 -DNCDF_PARALLEL -DSIESTA__FLOOK
Libraries     : -lnetcdff -lnetcdf -lpnetcdf -lhdf5_hl -lhdf5 -lz  -lzmumps -lmumps_common -llpord -lparmetis -lmetis -lscalapack -lopenblas  -lmetis -flto -fuse-linker-plugin  -L/zdata/groups/common/nicpa/2016-oct/XeonE5-2665/flook/0.7.0/gnu-6.2.0/lib -Wl,-rpath=/zdata/groups/common/nicpa/2016-oct/XeonE5-2665/flook/0.7.0/gnu-6.2.0/lib -lflookall -ldl
PARALLEL version
NetCDF support
NetCDF-4 support
NetCDF-4 MPI-IO support
METIS ordering support

* Running on 8 nodes in parallel
>> Start of run:   2-JUL-2017  11:57:56

initatom: Reading input for the pseudopotentials and atomic orbitals ----------
Species number:   1 Atomic number:  201 Label: ON-0.34560

Reading pseudopotential information in formatted form from ON-0.34560.psf

Valence configuration for pseudopotential generation:
Ground state valence configuration (synthetic):   2s 2.00000  2p 3.34560
Number of synthetic species:  1
For ON-0.34560, standard SIESTA heuristics set lmxkb to 3
 (one more than the basis l, including polarization orbitals).
Use PS.lmax or PS.KBprojectors blocks to override.

<basis_specs>
===============================================================================
ON-0.34560           Z= 201    Mass= -1.0000        Charge= 0.17977+309
Lmxo=1 Lmxkb= 3    BasisType=split      Semic=F
L=0  Nsemic=0  Cnfigmx=2
          n=1  nzeta=2  polorb=0
            splnorm:   0.15000    
               vcte:    0.0000    
               rinn:    0.0000    
               qcoe:    0.0000    
               qyuk:    0.0000    
               qwid:   0.10000E-01
                rcs:    0.0000      0.0000    
            lambdas:    1.0000      1.0000    
L=1  Nsemic=0  Cnfigmx=2
          n=1  nzeta=2  polorb=1
            splnorm:   0.15000    
               vcte:    0.0000    
               rinn:    0.0000    
               qcoe:    0.0000    
               qyuk:    0.0000    
               qwid:   0.10000E-01
                rcs:    0.0000      0.0000    
            lambdas:    1.0000      1.0000    
-------------------------------------------------------------------------------
L=0  Nkbl=1  erefs: 0.17977+309
L=1  Nkbl=1  erefs: 0.17977+309
L=2  Nkbl=1  erefs: 0.17977+309
L=3  Nkbl=1  erefs: 0.17977+309
===============================================================================
</basis_specs>

atom: Called for (synthetic) ON-0.34560            (Z = 201)

read_vps: Pseudopotential generation method:
read_vps: MIXPS     22-JUL-06  ---      ATM 3.2.2 22-JUL-06 
Total valence charge:    5.34560

xc_check: Exchange-correlation functional:
xc_check: Ceperley-Alder
V l=0 = -2*Zval/r beyond r=  1.1709
V l=1 = -2*Zval/r beyond r=  1.1709
V l=2 = -2*Zval/r beyond r=  1.1709
V l=3 = -2*Zval/r beyond r=  1.1709
All V_l potentials equal beyond r=  1.1278
This should be close to max(r_c) in ps generation
All pots = -2*Zval/r beyond r=  1.1709

VLOCAL1: 99.0% of the norm of Vloc inside     34.126 Ry
VLOCAL1: 99.9% of the norm of Vloc inside     77.774 Ry
atom: Maximum radius for 4*pi*r*r*local-pseudopot. charge    1.36047
atom: Maximum radius for r*vlocal+2*Zval:    1.18566
GHOST: No ghost state for L =  0
GHOST: No ghost state for L =  1
GHOST: No ghost state for L =  2
GHOST: No ghost state for L =  3

KBgen: Kleinman-Bylander projectors: 
   l= 0   rc=  1.377587   el= -1.466572   Ekb=  9.441480   kbcos=  0.309530
   l= 1   rc=  1.377587   el= -0.575298   Ekb= -7.100736   kbcos= -0.350452
   l= 2   rc=  1.580692   el=  0.002386   Ekb= -1.851180   kbcos= -0.003763
   l= 3   rc=  1.703827   el=  0.003508   Ekb= -0.729419   kbcos= -0.000366

KBgen: Total number of  Kleinman-Bylander projectors:   16
atom: -------------------------------------------------------------------------

atom: SANKEY-TYPE ORBITALS:
atom: Selected multiple-zeta basis: split     

SPLIT: Orbitals with angular momentum L= 0

SPLIT: Basis orbitals for state 2s

SPLIT: PAO cut-off radius determined from an
SPLIT: energy shift=  0.020000 Ry

   izeta = 1
                 lambda =    1.000000
                     rc =    3.562532
                 energy =   -1.448336
                kinetic =    1.361860
    potential(screened) =   -2.810196
       potential(ionic) =   -9.160109

   izeta = 2
                 rmatch =    2.774434
              splitnorm =    0.150000
                 energy =   -1.229344
                kinetic =    2.083991
    potential(screened) =   -3.313335
       potential(ionic) =  -10.130218

SPLIT: Orbitals with angular momentum L= 1

SPLIT: Basis orbitals for state 2p

SPLIT: PAO cut-off radius determined from an
SPLIT: energy shift=  0.020000 Ry

   izeta = 1
                 lambda =    1.000000
                     rc =    4.139122
                 energy =   -0.555198
                kinetic =    4.175095
    potential(screened) =   -4.730293
       potential(ionic) =  -10.952342

   izeta = 2
                 rmatch =    2.774434
              splitnorm =    0.150000
                 energy =   -0.304577
                kinetic =    6.310363
    potential(screened) =   -6.614940
       potential(ionic) =  -13.569803

POLgen: Perturbative polarization orbital with L=  2

POLgen: Polarization orbital for state 2p

   izeta = 1
                     rc =    4.139122
                 energy =    2.013739
                kinetic =    3.981970
    potential(screened) =   -1.968231
       potential(ionic) =   -7.042245
atom: Total number of Sankey-type orbitals: 13

atm_pop: Valence configuration (for local Pseudopot. screening):
 2s( 2.00)                                                            
 2p( 3.35)                                                            
Vna: chval, zval:    5.34560   5.34560

Vna:  Cut-off radius for the neutral-atom potential:   4.139122

atom: _________________________________________________________________________

prinput: Basis input ----------------------------------------------------------

PAO.BasisType split     

%block ChemicalSpeciesLabel
    1  201 ON-0.34560              # Species index, atomic number, species label
%endblock ChemicalSpeciesLabel

%block SyntheticAtoms   # Valence config
  1
  2  2  3  4
  2.00000  3.34560  0.00000  0.00000
%endblock SyntheticAtoms

%block PAO.Basis                 # Define Basis set
ON-0.34560            2                    # Species label, number of l-shells
 n=2   0   2                         # n, l, Nzeta 
   3.563      2.774   
   1.000      1.000   
 n=2   1   2 P   1                   # n, l, Nzeta, Polarization, NzetaPol
   4.139      2.774   
   1.000      1.000   
%endblock PAO.Basis

prinput: ----------------------------------------------------------------------

Dumping basis to NetCDF file ON-0.34560.ion.nc
coor:   Atomic-coordinates input format  =     Cartesian coordinates
coor:                                          (in Angstroms)

siesta: Atomic coordinates (Bohr) and species
siesta:      0.00000   0.00000   0.00000  1        1
siesta:      0.00000   0.00000   2.26767  1        2

siesta: Automatic unit cell vectors (Ang):
siesta:    4.818722    0.000000    0.000000
siesta:    0.000000    4.818722    0.000000
siesta:    0.000000    0.000000    6.138722

siesta: System type = molecule  

initatomlists: Number of atoms, orbitals, and projectors:      2    26    32

siesta: ******************** Simulation parameters ****************************
siesta:
siesta: The following are some of the parameters of the simulation.
siesta: A complete list of the parameters used, including default values,
siesta: can be found in file out.fdf
siesta:
redata: Spin configuration                          = collinear
redata: Number of spin components                   = 2
redata: Time-Reversal Symmetry                      = T
redata: Spin-spiral                                 = F
redata: Long output                                 =   F
redata: Number of Atomic Species                    =        1
redata: Charge density info will appear in .RHO file
redata: Write Mulliken Pop.                         = NO
redata: Mesh Cutoff                                 =   200.0000 Ry
redata: Net charge of the system                    =     0.0000 |e|
redata: Min. number of SCF Iter                     =        0
redata: Max. number of SCF Iter                     =       50
redata: SCF mix quantity                            = Hamiltonian
redata: Mix DM or H after convergence               =   F
redata: Recompute H after scf cycle                 =   F
redata: Mix DM in first SCF step                    =   T
redata: Write Pulay info on disk                    =   F
redata: New DM Mixing Weight                        =     0.2500
redata: New DM Occupancy tolerance                  = 0.000000000001
redata: No kicks to SCF
redata: DM Mixing Weight for Kicks                  =     0.5000
redata: Require Harris convergence for SCF          =   F
redata: Harris energy tolerance for SCF             =     0.000100 eV
redata: Require DM convergence for SCF              =   T
redata: DM tolerance for SCF                        =     0.0001
redata: Require EDM convergence for SCF             =   F
redata: EDM tolerance for SCF                       =     0.001000 eV
redata: Require H convergence for SCF               =   T
redata: Hamiltonian tolerance for SCF               =     0.001000 eV
redata: Require (free) Energy convergence for SCF   =   F
redata: (free) Energy tolerance for SCF             =     0.000100 eV
redata: Antiferro initial spin density              =   F
redata: Using Saved Data (generic)                  =   F
redata: Use continuation files for DM               =   F
redata: Neglect nonoverlap interactions             =   F
redata: Method of Calculation                       = Diagonalization
redata: Divide and Conquer                          =   T
redata: Electronic Temperature                      =   299.9869 K
redata: Fix the spin of the system                  =   F
redata: Dynamics option                             = Broyden coord. optimization
redata: Variable cell                               =   F
redata: Maximum number of CG moves                  =        4
redata: Force tolerance                             =     0.0400 eV/Ang
mix.SCF: Pulay mixing                            = Pulay
mix.SCF:    Variant                              = stable
mix.SCF:    History steps                        = 4
mix.SCF:    Linear mixing weight                 =     0.250000
mix.SCF:    Mixing weight                        =     0.250000
mix.SCF:    SVD condition                        = 0.1000E-07
mix.SCF: Spin-component mixing                   all
redata: Save all siesta data in one NC              =   F
redata: ***********************************************************************

%block SCF.Mixers
  Pulay
%endblock SCF.Mixers

%block SCF.Mixer.Pulay
  # Mixing method
  method pulay
  variant stable

  # Mixing options
  weight 0.2500
  weight.linear 0.2500
  history 4
%endblock SCF.Mixer.Pulay

DM_history_depth set to one: no extrapolation allowed by default for geometry relaxation
Size of DM history Fstack: 1
Total number of electrons:    10.691200
Total ionic charge:    10.691200

* ProcessorY, Blocksize:    2   3


* Orbital distribution balance (max,min):     5     3

 Kpoints in:            1 . Kpoints trimmed:            1

siesta: k-grid: Number of k-points =     1
siesta: k-grid: Cutoff (effective) =     2.409 Ang
siesta: k-grid: Supercell and displacements
siesta: k-grid:    1   0   0      0.000
siesta: k-grid:    0   1   0      0.000
siesta: k-grid:    0   0   1      0.000


                     ====================================
                        Begin Broyden opt. move =      0
                     ====================================

outcell: Unit cell vectors (Ang):
        4.818722    0.000000    0.000000
        0.000000    4.818722    0.000000
        0.000000    0.000000    6.138722

outcell: Cell vector modules (Ang)   :    4.818722    4.818722    6.138722
outcell: Cell angles (23,13,12) (deg):     90.0000     90.0000     90.0000
outcell: Cell volume (Ang**3)        :    142.5416
<dSpData1D:S at geom step 0
  <sparsity:sparsity for geom step 0
    nrows_g=26 nrows=5 sparsity=.1923 nnzs=130, refcount: 7>
  <dData1D:(new from dSpData1D) n=130, refcount: 1>
refcount: 1>
new_DM -- step:     1
Initializing Density Matrix...
DM filled with atomic data:
<dSpData2D:DM initialized from atoms
  <sparsity:sparsity for geom step 0
    nrows_g=26 nrows=5 sparsity=.1923 nnzs=130, refcount: 8>
  <dData2D:DM n=130 m=2, refcount: 1>
refcount: 1>

initDM: Initial spin polarization (Qup-Qdown) =    5.308800

No. of atoms with KB's overlaping orbs in proc 0. Max # of overlaps:       2      26
New grid distribution:   1
           1       1:   24    1:   12    1:    7
           2       1:   24    1:   12    8:   14
           3       1:   24    1:   12   15:   21
           4       1:   24    1:   12   22:   27
           5       1:   24   13:   24    1:    7
           6       1:   24   13:   24    8:   14
           7       1:   24   13:   24   15:   21
           8       1:   24   13:   24   22:   27

InitMesh: MESH =    48 x    48 x    54 =      124416
InitMesh: (bp) =    24 x    24 x    27 =       15552
InitMesh: Mesh cutoff (required, used) =   200.000   213.862 Ry
ExtMesh (bp) on 0 =    68 x    56 x    47 =      178976
New grid distribution:   2
           1      10:   24    1:    9    1:    6
           2      10:   24    1:    9    7:   27
           3       1:    9    1:    9    7:   27
           4       1:    9   10:   24    1:    6
           5      10:   24   10:   24    1:    6
           6      10:   24   10:   24    7:   27
           7       1:    9   10:   24    7:   27
           8       1:    9    1:    9    1:    6
New grid distribution:   3
           1      11:   24   11:   24    1:   10
           2       1:   10    1:   10    1:   10
           3      11:   24    1:   10   11:   27
           4       1:   10    1:   10   11:   27
           5      11:   24    1:   10    1:   10
           6       1:   10   11:   24    1:   10
           7      11:   24   11:   24   11:   27
           8       1:   10   11:   24   11:   27
Setting up quadratic distribution...
ExtMesh (bp) on 0 =    59 x    53 x    46 =      143842
PhiOnMesh: Number of (b)points on node 0 =                  810
PhiOnMesh: nlist on node 0 =                11220

stepf: Fermi-Dirac step function

siesta: Program's energy decomposition (eV):
siesta: Ebs     =      -152.854744
siesta: Eions   =      1232.617191
siesta: Ena     =       321.732802
siesta: Ekin    =       448.705391
siesta: Enl     =       -38.253650
siesta: Eso     =         0.000000
siesta: Eldau   =         0.000000
siesta: DEna    =         8.089666
siesta: DUscf   =         0.562162
siesta: DUext   =         0.000000
siesta: Exc     =      -146.387837
siesta: eta*DQ  =         0.000000
siesta: Emadel  =         0.000000
siesta: Emeta   =         0.000000
siesta: Emolmec =         0.000000
siesta: Ekinion =         0.000000
siesta: Eharris =      -639.655053
siesta: Etot    =      -638.168657
siesta: FreeEng =      -638.201988

        iscf     Eharris(eV)        E_KS(eV)     FreeEng(eV)     dDmax    Ef(eV) dHmax(eV)
   scf:    1     -639.655053     -638.168657     -638.201988  0.608067 -4.211325  3.778985
timer: Routine,Calls,Time,% = IterSCF        1       0.054   8.26
   scf:    2     -638.428228     -638.302486     -638.335817  0.028160 -4.070687  2.562367
   scf:    3     -638.491779     -638.407425     -638.440756  0.051093 -3.614280  0.785896
   scf:    4     -638.428956     -638.417859     -638.451191  0.021529 -3.131540  0.045499
   scf:    5     -638.418430     -638.418163     -638.451494  0.002657 -3.110146  0.030022
   scf:    6     -638.418257     -638.418212     -638.451543  0.001606 -3.122840  0.005887
   scf:    7     -638.418225     -638.418218     -638.451549  0.000290 -3.122666  0.004287
   scf:    8     -638.418232     -638.418225     -638.451556  0.000470 -3.121974  0.001759
   scf:    9     -638.418227     -638.418226     -638.451557  0.000274 -3.121484  0.000194
   scf:   10     -638.418226     -638.418226     -638.451557  0.000004 -3.121460  0.000124

SCF Convergence by DM+H criterion
max |DM_out - DM_in|         :     0.0000036685
max |H_out - H_in|      (eV) :     0.0001242845
SCF cycle converged after 10 iterations

Using DM_out to compute the final energy and forces
No. of atoms with KB's overlaping orbs in proc 0. Max # of overlaps:       2      26

siesta: E_KS(eV) =             -638.4182

siesta: E_KS - E_eggbox =      -638.4182

siesta: Total spin polarization (Qup-Qdown) =    0.691200

siesta: Atomic forces (eV/Ang):
----------------------------------------
   Tot   -0.000000   -0.000000   -0.015743
----------------------------------------
   Max    6.278675
   Res    3.620453    sqrt( Sum f_i^2 / 3N )
----------------------------------------
   Max    6.278675    constrained

Stress-tensor-Voigt (kbar):       -0.01       -0.01       84.45        0.00       -0.00       -0.00
(Free)E + p*V (eV/cell)     -640.9556
Target enthalpy (eV/cell)     -638.4516

Broyden_optim: max_history for broyden:   5
Broyden_optim: cycle on maxit: T
Broyden_optim: initial inverse jacobian:   1.0000

Broyden_optim: No of elements:      6

                     ====================================
                        Begin Broyden opt. move =      1
                     ====================================

outcell: Unit cell vectors (Ang):
        4.818722    0.000000    0.000000
        0.000000    4.818722    0.000000
        0.000000    0.000000    6.138722

outcell: Cell vector modules (Ang)   :    4.818722    4.818722    6.138722
outcell: Cell angles (23,13,12) (deg):     90.0000     90.0000     90.0000
outcell: Cell volume (Ang**3)        :    142.5416
<dSpData1D:S at geom step 1
  <sparsity:sparsity for geom step 1
    nrows_g=26 nrows=5 sparsity=.1923 nnzs=130, refcount: 7>
  <dData1D:(new from dSpData1D) n=130, refcount: 1>
refcount: 1>
new_DM -- step:     2
Re-using DM from previous geometries...
Number of DMs in history: 1
 DM extrapolation coefficients: 
1   1.00000
New DM after history re-use:
<dSpData2D:SpM extrapolated using coords
  <sparsity:sparsity for geom step 1
    nrows_g=26 nrows=5 sparsity=.1923 nnzs=130, refcount: 8>
  <dData2D:(temp array for extrapolation) n=130 m=2, refcount: 1>
refcount: 1>
Note: For starting DM, Qtot, Tr[D*S] =         10.69120000         11.16736492
No. of atoms with KB's overlaping orbs in proc 0. Max # of overlaps:       2      26
New grid distribution:   1
           1       1:   24    1:   12    1:    7
           2       1:   24    1:   12    8:   14
           3       1:   24    1:   12   15:   21
           4       1:   24    1:   12   22:   27
           5       1:   24   13:   24    1:    7
           6       1:   24   13:   24    8:   14
           7       1:   24   13:   24   15:   21
           8       1:   24   13:   24   22:   27

InitMesh: MESH =    48 x    48 x    54 =      124416
InitMesh: (bp) =    24 x    24 x    27 =       15552
InitMesh: Mesh cutoff (required, used) =   200.000   213.862 Ry
ExtMesh (bp) on 0 =    68 x    56 x    47 =      178976
New grid distribution:   2
           1      11:   24   11:   24    1:    6
           2       1:    8    9:   24    7:   27
           3      10:   24    1:    8    7:   27
           4       1:   10   11:   24    1:    6
           5       1:    9    1:    8    7:   27
           6       9:   24    9:   24    7:   27
           7      11:   24    1:   10    1:    6
           8       1:   10    1:   10    1:    6
New grid distribution:   3
           1      11:   24   11:   24    1:    9
           2       1:   10    1:   10    1:    9
           3      10:   24    1:    9   10:   27
           4       1:    9    1:    9   10:   27
           5      11:   24    1:   10    1:    9
           6       1:   10   11:   24    1:    9
           7      10:   24   10:   24   10:   27
           8       1:    9   10:   24   10:   27
Setting up quadratic distribution...
ExtMesh (bp) on 0 =    58 x    58 x    46 =      154744
PhiOnMesh: Number of (b)points on node 0 =                 1176
PhiOnMesh: nlist on node 0 =                11464

        iscf     Eharris(eV)        E_KS(eV)     FreeEng(eV)     dDmax    Ef(eV) dHmax(eV)
   scf:    1     -629.457819     -634.538197     -634.571529  0.226104 -0.729230  2.617185
   scf:    2     -634.609264     -634.638416     -634.671748  0.107811  0.845415  1.638697
   scf:    3     -634.711497     -634.685655     -634.718986  0.044794  0.195030  0.098192
   scf:    4     -634.687729     -634.686842     -634.720173  0.004560  0.187622  0.040564
   scf:    5     -634.686803     -634.686835     -634.720166  0.001713  0.145119  0.041040
   scf:    6     -634.686880     -634.686862     -634.720194  0.000875  0.159185  0.001684
   scf:    7     -634.686863     -634.686862     -634.720194  0.000026  0.158171  0.000308

SCF Convergence by DM+H criterion
max |DM_out - DM_in|         :     0.0000259768
max |H_out - H_in|      (eV) :     0.0003081464
SCF cycle converged after 7 iterations

Using DM_out to compute the final energy and forces
No. of atoms with KB's overlaping orbs in proc 0. Max # of overlaps:       2      26

siesta: E_KS(eV) =             -634.6869

siesta: Total spin polarization (Qup-Qdown) =    0.691200

siesta: Atomic forces (eV/Ang):
----------------------------------------
   Tot    0.000000    0.000000    0.016459
----------------------------------------
   Max   51.111322
   Res   29.504385    sqrt( Sum f_i^2 / 3N )
----------------------------------------
   Max   51.111322    constrained

Stress-tensor-Voigt (kbar):       -0.04       -0.04     -540.90        0.00       -0.00       -0.00
(Free)E + p*V (eV/cell)     -618.6772
Target enthalpy (eV/cell)     -634.7202

                     ====================================
                        Begin Broyden opt. move =      2
                     ====================================

outcell: Unit cell vectors (Ang):
        4.818722    0.000000    0.000000
        0.000000    4.818722    0.000000
        0.000000    0.000000    6.138722

outcell: Cell vector modules (Ang)   :    4.818722    4.818722    6.138722
outcell: Cell angles (23,13,12) (deg):     90.0000     90.0000     90.0000
outcell: Cell volume (Ang**3)        :    142.5416
<dSpData1D:S at geom step 2
  <sparsity:sparsity for geom step 2
    nrows_g=26 nrows=5 sparsity=.1923 nnzs=130, refcount: 7>
  <dData1D:(new from dSpData1D) n=130, refcount: 1>
refcount: 1>
new_DM -- step:     3
Re-using DM from previous geometries...
Number of DMs in history: 1
 DM extrapolation coefficients: 
1   1.00000
New DM after history re-use:
<dSpData2D:SpM extrapolated using coords
  <sparsity:sparsity for geom step 2
    nrows_g=26 nrows=5 sparsity=.1923 nnzs=130, refcount: 8>
  <dData2D:(temp array for extrapolation) n=130 m=2, refcount: 1>
refcount: 1>
Note: For starting DM, Qtot, Tr[D*S] =         10.69120000         10.23097414
No. of atoms with KB's overlaping orbs in proc 0. Max # of overlaps:       2      26
New grid distribution:   1
           1       1:   24    1:   12    1:    7
           2       1:   24    1:   12    8:   14
           3       1:   24    1:   12   15:   21
           4       1:   24    1:   12   22:   27
           5       1:   24   13:   24    1:    7
           6       1:   24   13:   24    8:   14
           7       1:   24   13:   24   15:   21
           8       1:   24   13:   24   22:   27

InitMesh: MESH =    48 x    48 x    54 =      124416
InitMesh: (bp) =    24 x    24 x    27 =       15552
InitMesh: Mesh cutoff (required, used) =   200.000   213.862 Ry
ExtMesh (bp) on 0 =    68 x    56 x    47 =      178976
New grid distribution:   2
           1      10:   24    1:    9    1:    6
           2      10:   24    1:    9    7:   27
           3       1:    9    1:    9    7:   27
           4       1:    9   10:   24    1:    6
           5      10:   24   10:   24    1:    6
           6      10:   24   10:   24    7:   27
           7       1:    9   10:   24    7:   27
           8       1:    9    1:    9    1:    6
New grid distribution:   3
           1      11:   24   11:   24    1:   10
           2       1:   10    1:   10    1:   10
           3      10:   24    1:   10   11:   27
           4       1:    9    1:   10   11:   27
           5      11:   24    1:   10    1:   10
           6       1:   10   11:   24    1:   10
           7      11:   24   11:   24   11:   27
           8       1:   10   11:   24   11:   27
Setting up quadratic distribution...
ExtMesh (bp) on 0 =    59 x    53 x    46 =      143842
PhiOnMesh: Number of (b)points on node 0 =                  810
PhiOnMesh: nlist on node 0 =                11260

        iscf     Eharris(eV)        E_KS(eV)     FreeEng(eV)     dDmax    Ef(eV) dHmax(eV)
   scf:    1     -643.345776     -638.453707     -638.487038  0.235558 -2.221724  1.939033
   scf:    2     -638.518057     -638.531510     -638.564842  0.086492 -3.391283  1.163518
   scf:    3     -638.582145     -638.563479     -638.596811  0.032826 -2.906027  0.080244
   scf:    4     -638.564453     -638.564030     -638.597361  0.001710 -2.859771  0.030304
   scf:    5     -638.564054     -638.564044     -638.597375  0.000373 -2.862218  0.010913
   scf:    6     -638.564054     -638.564049     -638.597380  0.000113 -2.856919  0.005894
   scf:    7     -638.564051     -638.564051     -638.597382  0.000100 -2.852940  0.002090
   scf:    8     -638.564051     -638.564051     -638.597382  0.000051 -2.851748  0.000263

SCF Convergence by DM+H criterion
max |DM_out - DM_in|         :     0.0000506151
max |H_out - H_in|      (eV) :     0.0002630396
SCF cycle converged after 8 iterations

Using DM_out to compute the final energy and forces
No. of atoms with KB's overlaping orbs in proc 0. Max # of overlaps:       2      26

siesta: E_KS(eV) =             -638.5641

siesta: Total spin polarization (Qup-Qdown) =    0.691200

siesta: Atomic forces (eV/Ang):
----------------------------------------
   Tot    0.000000   -0.000000    0.036875
----------------------------------------
   Max    4.000688
   Res    2.299178    sqrt( Sum f_i^2 / 3N )
----------------------------------------
   Max    4.000688    constrained

Stress-tensor-Voigt (kbar):        0.01        0.01       52.75        0.00       -0.00        0.00
(Free)E + p*V (eV/cell)     -640.1625
Target enthalpy (eV/cell)     -638.5974

                     ====================================
                        Begin Broyden opt. move =      3
                     ====================================

outcell: Unit cell vectors (Ang):
        4.818722    0.000000    0.000000
        0.000000    4.818722    0.000000
        0.000000    0.000000    6.138722

outcell: Cell vector modules (Ang)   :    4.818722    4.818722    6.138722
outcell: Cell angles (23,13,12) (deg):     90.0000     90.0000     90.0000
outcell: Cell volume (Ang**3)        :    142.5416
<dSpData1D:S at geom step 3
  <sparsity:sparsity for geom step 3
    nrows_g=26 nrows=5 sparsity=.1923 nnzs=130, refcount: 7>
  <dData1D:(new from dSpData1D) n=130, refcount: 1>
refcount: 1>
new_DM -- step:     4
Re-using DM from previous geometries...
Number of DMs in history: 1
 DM extrapolation coefficients: 
1   1.00000
New DM after history re-use:
<dSpData2D:SpM extrapolated using coords
  <sparsity:sparsity for geom step 3
    nrows_g=26 nrows=5 sparsity=.1923 nnzs=130, refcount: 8>
  <dData2D:(temp array for extrapolation) n=130 m=2, refcount: 1>
refcount: 1>
Note: For starting DM, Qtot, Tr[D*S] =         10.69120000         10.65373796
No. of atoms with KB's overlaping orbs in proc 0. Max # of overlaps:       2      26
New grid distribution:   1
           1       1:   24    1:   12    1:    7
           2       1:   24    1:   12    8:   14
           3       1:   24    1:   12   15:   21
           4       1:   24    1:   12   22:   27
           5       1:   24   13:   24    1:    7
           6       1:   24   13:   24    8:   14
           7       1:   24   13:   24   15:   21
           8       1:   24   13:   24   22:   27

InitMesh: MESH =    48 x    48 x    54 =      124416
InitMesh: (bp) =    24 x    24 x    27 =       15552
InitMesh: Mesh cutoff (required, used) =   200.000   213.862 Ry
ExtMesh (bp) on 0 =    68 x    56 x    47 =      178976
New grid distribution:   2
           1      10:   24    1:    9    1:    6
           2      10:   24    1:    9    7:   27
           3       1:    9    1:    9    7:   27
           4       1:    9   10:   24    1:    6
           5      10:   24   10:   24    1:    6
           6      10:   24   10:   24    7:   27
           7       1:    9   10:   24    7:   27
           8       1:    9    1:    9    1:    6
New grid distribution:   3
           1      11:   24   11:   24    1:   10
           2       1:   10    1:   10    1:   10
           3      11:   24    1:   10   11:   27
           4       1:   10    1:   10   11:   27
           5      11:   24    1:   10    1:   10
           6       1:   10   11:   24    1:   10
           7      11:   24   11:   24   11:   27
           8       1:   10   11:   24   11:   27
Setting up quadratic distribution...
ExtMesh (bp) on 0 =    59 x    53 x    46 =      143842
PhiOnMesh: Number of (b)points on node 0 =                  810
PhiOnMesh: nlist on node 0 =                11226

        iscf     Eharris(eV)        E_KS(eV)     FreeEng(eV)     dDmax    Ef(eV) dHmax(eV)
   scf:    1     -638.781730     -638.474575     -638.507907  0.013822 -2.997670  0.091311
   scf:    2     -638.475208     -638.475174     -638.508505  0.006393 -3.056227  0.051234
   scf:    3     -638.475476     -638.475358     -638.508689  0.002245 -3.034437  0.004547
   scf:    4     -638.475359     -638.475359     -638.508690  0.000032 -3.033008  0.002750
   scf:    5     -638.475359     -638.475359     -638.508690  0.000028 -3.031557  0.000527

SCF Convergence by DM+H criterion
max |DM_out - DM_in|         :     0.0000283273
max |H_out - H_in|      (eV) :     0.0005274979
SCF cycle converged after 5 iterations

Using DM_out to compute the final energy and forces
No. of atoms with KB's overlaping orbs in proc 0. Max # of overlaps:       2      26

siesta: E_KS(eV) =             -638.4754

siesta: Total spin polarization (Qup-Qdown) =    0.691200

siesta: Atomic forces (eV/Ang):
----------------------------------------
   Tot   -0.000000    0.000000    0.013703
----------------------------------------
   Max    5.600024
   Res    3.229222    sqrt( Sum f_i^2 / 3N )
----------------------------------------
   Max    5.600024    constrained

Stress-tensor-Voigt (kbar):        0.02        0.02       74.97        0.00        0.00       -0.00
(Free)E + p*V (eV/cell)     -640.7329
Target enthalpy (eV/cell)     -638.5087

                     ====================================
                        Begin Broyden opt. move =      4
                     ====================================

outcell: Unit cell vectors (Ang):
        4.818722    0.000000    0.000000
        0.000000    4.818722    0.000000
        0.000000    0.000000    6.138722

outcell: Cell vector modules (Ang)   :    4.818722    4.818722    6.138722
outcell: Cell angles (23,13,12) (deg):     90.0000     90.0000     90.0000
outcell: Cell volume (Ang**3)        :    142.5416
<dSpData1D:S at geom step 4
  <sparsity:sparsity for geom step 4
    nrows_g=26 nrows=5 sparsity=.1923 nnzs=130, refcount: 7>
  <dData1D:(new from dSpData1D) n=130, refcount: 1>
refcount: 1>
new_DM -- step:     5
Re-using DM from previous geometries...
Number of DMs in history: 1
 DM extrapolation coefficients: 
1   1.00000
New DM after history re-use:
<dSpData2D:SpM extrapolated using coords
  <sparsity:sparsity for geom step 4
    nrows_g=26 nrows=5 sparsity=.1923 nnzs=130, refcount: 8>
  <dData2D:(temp array for extrapolation) n=130 m=2, refcount: 1>
refcount: 1>
Note: For starting DM, Qtot, Tr[D*S] =         10.69120000         10.64916922
No. of atoms with KB's overlaping orbs in proc 0. Max # of overlaps:       2      26
New grid distribution:   1
           1       1:   24    1:   12    1:    7
           2       1:   24    1:   12    8:   14
           3       1:   24    1:   12   15:   21
           4       1:   24    1:   12   22:   27
           5       1:   24   13:   24    1:    7
           6       1:   24   13:   24    8:   14
           7       1:   24   13:   24   15:   21
           8       1:   24   13:   24   22:   27

InitMesh: MESH =    48 x    48 x    54 =      124416
InitMesh: (bp) =    24 x    24 x    27 =       15552
InitMesh: Mesh cutoff (required, used) =   200.000   213.862 Ry
ExtMesh (bp) on 0 =    68 x    56 x    47 =      178976
New grid distribution:   2
           1      10:   24    1:    9    1:    6
           2      10:   24    1:    9    7:   27
           3       1:    9    1:    9    7:   27
           4       1:    9   10:   24    1:    6
           5      10:   24   10:   24    1:    6
           6      10:   24   10:   24    7:   27
           7       1:    9   10:   24    7:   27
           8       1:    9    1:    9    1:    6
New grid distribution:   3
           1      11:   24   11:   24    1:   10
           2       1:   10    1:   10    1:   10
           3      11:   24    1:   10   11:   27
           4       1:   10    1:   10   11:   27
           5      11:   24    1:   10    1:   10
           6       1:   10   11:   24    1:   10
           7      11:   24   11:   24   11:   27
           8       1:   10   11:   24   11:   27
Setting up quadratic distribution...
ExtMesh (bp) on 0 =    59 x    53 x    46 =      143842
PhiOnMesh: Number of (b)points on node 0 =                  810
PhiOnMesh: nlist on node 0 =                11199

        iscf     Eharris(eV)        E_KS(eV)     FreeEng(eV)     dDmax    Ef(eV) dHmax(eV)
   scf:    1     -638.676948     -638.341981     -638.375312  0.015122 -3.190347  0.094997
   scf:    2     -638.342809     -638.342785     -638.376116  0.007238 -3.250416  0.053000
   scf:    3     -638.343207     -638.343043     -638.376374  0.002528 -3.228387  0.005176
   scf:    4     -638.343043     -638.343043     -638.376375  0.000030 -3.227552  0.003307
   scf:    5     -638.343044     -638.343044     -638.376375  0.000035 -3.225208  0.000398

SCF Convergence by DM+H criterion
max |DM_out - DM_in|         :     0.0000351620
max |H_out - H_in|      (eV) :     0.0003979788
SCF cycle converged after 5 iterations

Using DM_out to compute the final energy and forces
No. of atoms with KB's overlaping orbs in proc 0. Max # of overlaps:       2      26

siesta: E_KS(eV) =             -638.3430

siesta: Total spin polarization (Qup-Qdown) =    0.691200

siesta: Atomic forces (eV/Ang):
----------------------------------------
   Tot    0.000000    0.000000   -0.026605
----------------------------------------
   Max    7.042715
   Res    4.058440    sqrt( Sum f_i^2 / 3N )
----------------------------------------
   Max    7.042715    constrained

Stress-tensor-Voigt (kbar):       -0.00       -0.00       95.60       -0.00       -0.00        0.00
(Free)E + p*V (eV/cell)     -641.2113
Target enthalpy (eV/cell)     -638.3764

outcoor: Final (unrelaxed) atomic coordinates (Ang):        
    0.00000000    0.00000000   -0.00537847   1       1  ON-0.34560
   -0.00000000    0.00000000    1.20592789   1       2  ON-0.34560

siesta: Program's energy decomposition (eV):
siesta: Ebs     =      -146.835369
siesta: Eions   =      1232.617191
siesta: Ena     =       321.946551
siesta: Ekin    =       451.117978
siesta: Enl     =       -37.530048
siesta: Eso     =         0.000000
siesta: Eldau   =         0.000000
siesta: DEna    =         5.305437
siesta: DUscf   =         0.283413
siesta: DUext   =         0.000000
siesta: Exc     =      -146.849184
siesta: eta*DQ  =         0.000000
siesta: Emadel  =         0.000000
siesta: Emeta   =         0.000000
siesta: Emolmec =         0.000000
siesta: Ekinion =         0.000000
siesta: Eharris =      -638.343044
siesta: Etot    =      -638.343044
siesta: FreeEng =      -638.376375

siesta: Final energy (eV):
siesta:  Band Struct. =    -146.835369
siesta:       Kinetic =     451.117978
siesta:       Hartree =     455.570323
siesta:       Eldau   =       0.000000
siesta:       Eso     =       0.000000
siesta:    Ext. field =       0.000000
siesta:   Exch.-corr. =    -146.849184
siesta:  Ion-electron =   -1316.763148
siesta:       Ion-ion =     -81.419013
siesta:       Ekinion =       0.000000
siesta:         Total =    -638.343044
siesta:         Fermi =      -3.225208

siesta: Atomic forces (eV/Ang):
siesta:      1   -0.000000   -0.000000    7.016110
siesta:      2    0.000000    0.000000   -7.042715
siesta: ----------------------------------------
siesta:    Tot    0.000000    0.000000   -0.026605

siesta: Stress tensor (static) (eV/Ang**3):
siesta:    -0.000002    0.000000   -0.000000
siesta:    -0.000000   -0.000002   -0.000000
siesta:     0.000000   -0.000000    0.059668

siesta: Cell volume =        142.541589 Ang**3

siesta: Pressure (static):
siesta:                Solid            Molecule  Units
siesta:          -0.00021661          0.00000026  Ry/Bohr**3
siesta:          -0.01988824          0.00002355  eV/Ang**3
siesta:         -31.86481545          0.03772384  kBar
(Free)E+ p_basis*V_orbitals  =        -638.020337
(Free)Eharris+ p_basis*V_orbitals  =        -638.020337

siesta: Total spin polarization (Qup-Qdown) =    0.691200

siesta: Electric dipole (a.u.)  =    0.000000   -0.000000    0.000104
siesta: Electric dipole (Debye) =    0.000000   -0.000000    0.000264
>> End of run:   2-JUL-2017  11:57:58
Job completed
