Siesta Version:                                        siesta-3.0-rc2
Architecture  : macosx-openmpi
Compiler flags: /opt/openmpi.gcc.gfortran/bin/mpif90 -O2
PARALLEL version

* Running on    2 nodes in parallel
>> Start of run:  30-JUN-2010  11:54:51

                           ***********************       
                           *  WELCOME TO SIESTA  *       
                           ***********************       

reinit: Reading from standard input
************************** Dump of input data file ****************************
SystemName          Oxypartial
SystemLabel         oxypartial
NumberOfAtoms       2
NumberOfSpecies     1
MeshCutoff 200 Ry
%block ChemicalSpeciesLabel
 1  201  O-Fraction-0.50000      # Species index, atomic number, species label
%endblock ChemicalSpeciesLabel
%block SyntheticAtoms
 1
 2 2 3 4
 1.0 2.0 0.0 0.0
%endblock SyntheticAtoms
%block PAO.basis
O-Fraction-0.50000  2                 # Species label, number of l-shells
 n=2   0   2                         # n, l, Nzeta
 0.0 0.0
   1.000      1.000
 n=2   1   2 P   1                   # n, l, Nzeta, Polarization, NzetaPol
   4.139      2.740
   1.000      1.000
%endblock PAO.Basis
DM.NumberPulay 4
Spin.Polarized T
AtomicCoordinatesFormat  Ang
%block AtomicCoordinatesAndAtomicSpecies
 0.000  0.000  0.000  1
 0.000  0.000  1.200  1
%endblock AtomicCoordinatesAndAtomicSpecies
MD.TypeOfRun Broyden
MD.NumCGSteps 40
************************** End of input data file *****************************

reinit: -----------------------------------------------------------------------
reinit: System Name: Oxypartial
reinit: -----------------------------------------------------------------------
reinit: System Label: oxypartial                                                  
reinit: -----------------------------------------------------------------------

initatom: Reading input for the pseudopotentials and atomic orbitals ----------
 Species number:            1  Label: O-Fraction-0.50000 Atomic number:         201
Reading pseudopotential information in formatted form from O-Fraction-0.50000.psf

Valence configuration for pseudopotential generation:
Ground state valence configuration (synthetic):   2s 1.00000  2p 2.00000
Number of synthetic species:  1
For O-Fraction-0.50000, standard SIESTA heuristics set lmxkb to 3
 (one more than the basis l, including polarization orbitals).
Use PS.lmax or PS.KBprojectors blocks to override.

<basis_specs>
===============================================================================
O-Fraction-0.50000   Z= 201    Mass= -1.0000        Charge= 0.17977+309
Lmxo=1 Lmxkb=3     BasisType=split      Semic=F
L=0  Nsemic=0  Cnfigmx=2
          n=1  nzeta=2  polorb=0
            splnorm:   0.15000    
               vcte:    0.0000    
               rinn:    0.0000    
                rcs:    0.0000      0.0000    
            lambdas:    1.0000      1.0000    
L=1  Nsemic=0  Cnfigmx=2
          n=1  nzeta=2  polorb=1
            splnorm:   0.15000    
               vcte:    0.0000    
               rinn:    0.0000    
                rcs:    4.1390      2.7400    
            lambdas:    1.0000      1.0000    
-------------------------------------------------------------------------------
L=0  Nkbl=1  erefs: 0.17977+309
L=1  Nkbl=1  erefs: 0.17977+309
L=2  Nkbl=1  erefs: 0.17977+309
L=3  Nkbl=1  erefs: 0.17977+309
===============================================================================
</basis_specs>

atom: Called for (synthetic) O-Fraction-0.50000    (Z = 201)

read_vps: Pseudopotential generation method:
read_vps: FRACT     19-FEB-98  ---       fraction  fraction 
Total valence charge:    3.00000

xc_check: Exchange-correlation functional:
xc_check: Ceperley-Alder
V l=0 = -2*Zval/r beyond r=  1.1278
V l=1 = -2*Zval/r beyond r=  1.1278
V l=2 = -2*Zval/r beyond r=  1.1278
V l=3 = -2*Zval/r beyond r=  1.1138
All V_l potentials equal beyond r=  1.1278
This should be close to max(r_c) in ps generation
All pots = -2*Zval/r beyond r=  1.1278

VLOCAL1: 99.0% of the norm of Vloc inside     34.126 Ry
VLOCAL1: 99.9% of the norm of Vloc inside     77.774 Ry
atom: Maximum radius for 4*pi*r*r*local-pseudopot. charge    1.36047
atom: Maximum radius for r*vlocal+2*Zval:    1.15638
GHOST: No ghost state for L =  0
GHOST: No ghost state for L =  1
GHOST: No ghost state for L =  2
GHOST: No ghost state for L =  3

KBgen: Kleinman-Bylander projectors: 
   l= 0   rc=  1.294105   el= -0.693307   Ekb=  4.664913   kbcos=  0.254299
   l= 1   rc=  1.343567   el=  0.001447   Ekb= -4.466139   kbcos= -0.030125
   l= 2   rc=  1.466454   el=  0.002386   Ekb= -1.010968   kbcos= -0.001863
   l= 3   rc=  1.561052   el=  0.003508   Ekb= -0.392253   kbcos= -0.000249

KBgen: Total number of  Kleinman-Bylander projectors:   16
atom: -------------------------------------------------------------------------

atom: SANKEY-TYPE ORBITALS:
atom: Selected multiple-zeta basis: split     

SPLIT: Orbitals with angular momentum L= 0

SPLIT: Basis orbitals for state 2s

SPLIT: PAO cut-off radius determined from an
SPLIT: energy shift=  0.020000 Ry

   izeta = 1
                 lambda =    1.000000
                     rc =    4.243912
                 energy =   -0.673179
                kinetic =    0.971847
    potential(screened) =   -1.645026
       potential(ionic) =   -4.821659

   izeta = 2
                 rmatch =    3.388770
              splitnorm =    0.150000
                 energy =   -0.526416
                kinetic =    1.507134
    potential(screened) =   -2.033550
       potential(ionic) =   -5.533769

SPLIT: Orbitals with angular momentum L= 1

SPLIT: Basis orbitals for state 2p

   izeta = 1
                 lambda =    1.000000
                     rc =    4.139122
                 energy =    0.491454
                kinetic =    1.445506
    potential(screened) =   -0.954052
       potential(ionic) =   -3.434023

   izeta = 2
                 rmatch =    2.774434
              splitnorm =    0.627770
                 energy =    1.483725
                kinetic =    3.945497
    potential(screened) =   -2.461771
       potential(ionic) =   -5.835431

POLgen: Perturbative polarization orbital with L=  2

POLgen: Polarization orbital for state 2p

   izeta = 1
                     rc =    4.139122
                 energy =    1.585617
                kinetic =    2.166931
    potential(screened) =   -0.581314
       potential(ionic) =   -2.778294
atom: Total number of Sankey-type orbitals: 13

atm_pop: Valence configuration (for local Pseudopot. screening):
 2s( 1.00)                                                            
 2p( 2.00)                                                            
Vna: chval, zval:    3.00000   3.00000

Vna:  Cut-off radius for the neutral-atom potential:   4.243912

atom: _________________________________________________________________________

prinput: Basis input ----------------------------------------------------------

PAO.BasisType split     

%block ChemicalSpeciesLabel
    1  201 O-Fraction-0.50000      # Species index, atomic number, species label
%endblock ChemicalSpeciesLabel

%block SyntheticAtoms   # Valence config
  1
  2  2  3  4
  1.00000  2.00000  0.00000  0.00000
%endblock SyntheticAtoms

%block PAO.Basis                 # Define Basis set
O-Fraction-0.50000    2                    # Species label, number of l-shells
 n=2   0   2                         # n, l, Nzeta 
   4.244      3.389   
   1.000      1.000   
 n=2   1   2 P   1                   # n, l, Nzeta, Polarization, NzetaPol
   4.139      2.774   
   1.000      1.000   
%endblock PAO.Basis

prinput: ----------------------------------------------------------------------

coor:   Atomic-coordinates input format  =     Cartesian coordinates
coor:                                          (in Angstroms)

siesta: Atomic coordinates (Bohr) and species
siesta:      0.00000   0.00000   0.00000  1        1
siesta:      0.00000   0.00000   2.26767  1        2

siesta: Automatic unit cell vectors (Ang):
siesta:    4.940717    0.000000    0.000000
siesta:    0.000000    4.940717    0.000000
siesta:    0.000000    0.000000    6.260717

siesta: System type = molecule  

initatomlists: Number of atoms, orbitals, and projectors:      2    26    32

siesta: ******************** Simulation parameters ****************************
siesta:
siesta: The following are some of the parameters of the simulation.
siesta: A complete list of the parameters used, including default values,
siesta: can be found in file out.fdf
siesta:
redata: Non-Collinear-spin run           =     F
redata: SpinPolarized (Up/Down) run      =     T
redata: Number of spin components        =     2
redata: Long output                      =     F
redata: Number of Atomic Species         =        1
redata: Charge density info will appear in .RHO file
redata: Write Mulliken Pop.              =     NO
redata: Mesh Cutoff                      =   200.0000  Ry
redata: Net charge of the system         =     0.0000 |e|
redata: Max. number of SCF Iter          =       50
redata: Performing Pulay mixing using    =     4 iterations
redata: Mix DM in first SCF step ?       =     F
redata: Write Pulay info on disk?        =     F
redata: Discard 1st Pulay DM after  kick =     F
redata: New DM Mixing Weight             =     0.2500
redata: New DM Occupancy tolerance       = 0.000000000001
redata: No kicks to SCF
redata: DM Mixing Weight for Kicks       =     0.5000
redata: DM Tolerance for SCF             =     0.000100
redata: Require Energy convergence for SCF =     F
redata: DM Energy tolerance for SCF      =     0.000100 eV
redata: Require Harris convergence for SCF =     F
redata: DM Harris energy tolerance for SCF =     0.000100 eV
redata: Antiferro initial spin density   =     F
redata: Using Saved Data (generic)   =     F
redata: Use continuation files for DM    =     F
redata: Neglect nonoverlap interactions  =     F
redata: Method of Calculation            =     Diagonalization
redata: Divide and Conquer               =     T
redata: Electronic Temperature           =     0.0019  Ry
redata: Fix the spin of the system       =     F
redata: Dynamics option                  =     Broyden coord. optimization
redata: Variable cell                    =     F
redata: Maximum number of CG moves       =       40
redata: Force tolerance                  =     0.0016  Ry/Bohr
redata: ***********************************************************************
Total number of electrons:     6.000000
Total ionic charge:     6.000000

* ProcessorY, Blocksize:    1  13

 Kpoints in:            1 . Kpoints trimmed:            1

siesta: k-grid: Number of k-points =     1
siesta: k-grid: Cutoff (effective) =     2.470 Ang
siesta: k-grid: Supercell and displacements
siesta: k-grid:    1   0   0      0.000
siesta: k-grid:    0   1   0      0.000
siesta: k-grid:    0   0   1      0.000

* Maximum dynamic memory allocated =     1 MB

siesta:                 ==============================
                            Begin CG move =      0
                        ==============================

outcell: Unit cell vectors (Ang):
        4.940717    0.000000    0.000000
        0.000000    4.940717    0.000000
        0.000000    0.000000    6.260717

outcell: Cell vector modules (Ang)   :    4.940717    4.940717    6.260717
outcell: Cell angles (23,13,12) (deg):     90.0000     90.0000     90.0000
outcell: Cell volume (Ang**3)        :    152.8284
New_DM. Step:     1
Initializing Density Matrix...

InitMesh: MESH =    48 x    48 x    54 =      124416
InitMesh: Mesh cutoff (required, used) =   200.000   205.608 Ry

* Maximum dynamic memory allocated =     9 MB

stepf: Fermi-Dirac step function

siesta: Program's energy decomposition (eV):
siesta: Ebs     =       -95.102911
siesta: Eions   =       388.219918
siesta: Ena     =       177.988389
siesta: Ekin    =       105.068031
siesta: Enl     =         7.661400
siesta: DEna    =         0.000010
siesta: DUscf   =         0.000000
siesta: DUext   =         0.000000
siesta: Exc     =       -58.957041
siesta: eta*DQ  =         0.000000
siesta: Emadel  =         0.000000
siesta: Emeta   =         0.000000
siesta: Emolmec =         0.000000
siesta: Ekinion =         0.000000
siesta: Eharris =      -176.604228
siesta: Etot    =      -156.459129
siesta: FreeEng =      -156.459129

siesta: iscf   Eharris(eV)      E_KS(eV)   FreeEng(eV)   dDmax  Ef(eV)
siesta:    1     -176.6042     -156.4591     -156.4591  0.7393 -5.8452
timer: Routine,Calls,Time,% = IterSCF        1       2.866  75.01
elaps: Routine,Calls,Wall,% = IterSCF        1       1.461  74.96
siesta:    2     -184.4812     -181.9725     -181.9725  0.3029  1.5156
siesta:    3     -183.6642     -178.5209     -178.5209  0.1176 -0.0604
siesta:    4     -183.7371     -181.9564     -181.9564  0.0606 -0.0357
siesta:    5     -183.7515     -183.5614     -183.5614  0.0131 -0.2120
siesta:    6     -183.7495     -183.7244     -183.7244  0.0027 -0.1010
siesta:    7     -183.7495     -183.7551     -183.7551  0.0011 -0.0908
siesta:    8     -183.7495     -183.7618     -183.7618  0.0004 -0.0944
siesta:    9     -183.7495     -183.7549     -183.7549  0.0002 -0.0955
siesta:   10     -183.7495     -183.7487     -183.7487  0.0001 -0.0967
siesta:   11     -183.7495     -183.7498     -183.7498  0.0000 -0.0974

siesta: E_KS(eV) =             -183.7497

siesta: E_KS - E_eggbox =      -183.7497

siesta: Atomic forces (eV/Ang):
----------------------------------------
   Tot    0.000000   -0.000000    0.012327
----------------------------------------
   Max   14.370657
   Res    8.293345    sqrt( Sum f_i^2 / 3N )
----------------------------------------
   Max   14.370657    constrained

Stress-tensor-Voigt (kbar):       -0.11       -0.11     -180.66       -0.00       -0.00       -0.00
(Free)E + p*V (eV/cell)     -177.9986
Target enthalpy (eV/cell)     -183.7497

Broyden_optim: max_history for broyden:   5
Broyden_optim: cycle on maxit: T
Broyden_optim: initial inverse jacobian:   1.0000

Broyden_optim: No of elements:      6

* Maximum dynamic memory allocated =     9 MB

siesta:                 ==============================
                            Begin CG move =      1
                        ==============================

outcell: Unit cell vectors (Ang):
        4.940717    0.000000    0.000000
        0.000000    4.940717    0.000000
        0.000000    0.000000    6.260717

outcell: Cell vector modules (Ang)   :    4.940717    4.940717    6.260717
outcell: Cell angles (23,13,12) (deg):     90.0000     90.0000     90.0000
outcell: Cell volume (Ang**3)        :    152.8284

NOTE: orbital pair      1    14 (at least) is multiply connected.
NOTE: Harmless for Gamma calculations, except if a COHP analysis is intended.
New_DM. Step:     2
Re-using DM from previous geometry...
Re-using DM without extrapolation (not allowed)
Density Matrix sparsity pattern changed.

siesta: iscf   Eharris(eV)      E_KS(eV)   FreeEng(eV)   dDmax  Ef(eV)
siesta:    1     -185.8724     -187.5543     -187.5543  0.2969  1.0346
siesta:    2     -185.7439     -185.4280     -185.4286  0.2590  0.6649
siesta:    3     -185.5771     -186.4227     -186.4605  0.1273  0.7770
siesta:    4     -185.6024     -185.5813     -185.6121  0.1752  0.6104
siesta:    5     -185.5706     -185.5517     -185.5965  0.0421  0.5908
siesta:    6     -185.5714     -185.5634     -185.6126  0.0544  0.6154
siesta:    7     -185.5730     -185.5701     -185.6194  0.0061  0.6300
siesta:    8     -185.5719     -185.5885     -185.6372  0.0314  0.6428
siesta:    9     -185.5724     -185.5873     -185.6367  0.0126  0.6447
siesta:   10     -185.5727     -185.5833     -185.6326  0.0075  0.6510
siesta:   11     -185.5728     -185.5751     -185.6244  0.0039  0.6557
siesta:   12     -185.5728     -185.5692     -185.6186  0.0017  0.6610
siesta:   13     -185.5728     -185.5711     -185.6204  0.0015  0.6689
siesta:   14     -185.5728     -185.5726     -185.6219  0.0003  0.6666
siesta:   15     -185.5728     -185.5727     -185.6221  0.0001  0.6671

siesta: E_KS(eV) =             -185.5729

siesta: Atomic forces (eV/Ang):
----------------------------------------
   Tot   -0.000000   -0.000000   -0.092703
----------------------------------------
   Max    0.250548
   Res    0.120892    sqrt( Sum f_i^2 / 3N )
----------------------------------------
   Max    0.250548    constrained

Stress-tensor-Voigt (kbar):        0.01        0.01       -3.47       -0.00       -0.00        0.00
(Free)E + p*V (eV/cell)     -185.5125
Target enthalpy (eV/cell)     -185.6222

* Maximum dynamic memory allocated =     9 MB

siesta:                 ==============================
                            Begin CG move =      2
                        ==============================

outcell: Unit cell vectors (Ang):
        4.940717    0.000000    0.000000
        0.000000    4.940717    0.000000
        0.000000    0.000000    6.260717

outcell: Cell vector modules (Ang)   :    4.940717    4.940717    6.260717
outcell: Cell angles (23,13,12) (deg):     90.0000     90.0000     90.0000
outcell: Cell volume (Ang**3)        :    152.8284
New_DM. Step:     3
Re-using DM from previous geometry...
Re-using DM without extrapolation (not allowed)

siesta: iscf   Eharris(eV)      E_KS(eV)   FreeEng(eV)   dDmax  Ef(eV)
siesta:    1     -185.5783     -185.5895     -185.6389  0.0371  0.6812
siesta:    2     -185.5772     -185.5771     -185.6244  0.0286  0.7083
siesta:    3     -185.5769     -185.5814     -185.6306  0.0056  0.6963
siesta:    4     -185.5771     -185.5753     -185.6236  0.0029  0.7046
siesta:    5     -185.5773     -185.5769     -185.6251  0.0032  0.7014
siesta:    6     -185.5772     -185.5770     -185.6249  0.0004  0.7022
siesta:    7     -185.5772     -185.5771     -185.6251  0.0001  0.7024

siesta: E_KS(eV) =             -185.5772

siesta: Atomic forces (eV/Ang):
----------------------------------------
   Tot   -0.000000    0.000000   -0.114015
----------------------------------------
   Max    0.564894
   Res    0.295070    sqrt( Sum f_i^2 / 3N )
----------------------------------------
   Max    0.564894    constrained

Stress-tensor-Voigt (kbar):        0.01        0.01       -9.30       -0.00       -0.00        0.00
(Free)E + p*V (eV/cell)     -185.3301
Target enthalpy (eV/cell)     -185.6252

* Maximum dynamic memory allocated =     9 MB

siesta:                 ==============================
                            Begin CG move =      3
                        ==============================

outcell: Unit cell vectors (Ang):
        4.940717    0.000000    0.000000
        0.000000    4.940717    0.000000
        0.000000    0.000000    6.260717

outcell: Cell vector modules (Ang)   :    4.940717    4.940717    6.260717
outcell: Cell angles (23,13,12) (deg):     90.0000     90.0000     90.0000
outcell: Cell volume (Ang**3)        :    152.8284
New_DM. Step:     4
Re-using DM from previous geometry...
Re-using DM without extrapolation (not allowed)
Density Matrix sparsity pattern changed.

siesta: iscf   Eharris(eV)      E_KS(eV)   FreeEng(eV)   dDmax  Ef(eV)
siesta:    1     -185.6835     -185.4490     -185.4971  0.2058  0.6151
siesta:    2     -185.6842     -185.6604     -185.6656  0.0207  0.5421
siesta:    3     -185.6804     -185.6553     -185.6682  0.0155  0.5340
siesta:    4     -185.6860     -185.6887     -185.6987  0.0023  0.5285
siesta:    5     -185.6855     -185.6838     -185.6880  0.0016  0.5436
siesta:    6     -185.6855     -185.6857     -185.6902  0.0008  0.5438
siesta:    7     -185.6855     -185.6858     -185.6903  0.0005  0.5438
siesta:    8     -185.6856     -185.6856     -185.6900  0.0001  0.5427

siesta: E_KS(eV) =             -185.6856

siesta: Atomic forces (eV/Ang):
----------------------------------------
   Tot    0.000000   -0.000000    0.028603
----------------------------------------
   Max    1.597575
   Res    0.914141    sqrt( Sum f_i^2 / 3N )
----------------------------------------
   Max    1.597575    constrained

Stress-tensor-Voigt (kbar):       -0.27       -0.27       28.51       -0.00       -0.00       -0.00
(Free)E + p*V (eV/cell)     -186.5791
Target enthalpy (eV/cell)     -185.6900

* Maximum dynamic memory allocated =     9 MB

siesta:                 ==============================
                            Begin CG move =      4
                        ==============================

outcell: Unit cell vectors (Ang):
        4.940717    0.000000    0.000000
        0.000000    4.940717    0.000000
        0.000000    0.000000    6.260717

outcell: Cell vector modules (Ang)   :    4.940717    4.940717    6.260717
outcell: Cell angles (23,13,12) (deg):     90.0000     90.0000     90.0000
outcell: Cell volume (Ang**3)        :    152.8284
New_DM. Step:     5
Re-using DM from previous geometry...
Re-using DM without extrapolation (not allowed)

siesta: iscf   Eharris(eV)      E_KS(eV)   FreeEng(eV)   dDmax  Ef(eV)
siesta:    1     -185.7115     -185.6402     -185.6446  0.0048  0.5231
siesta:    2     -185.7118     -185.7115     -185.7135  0.0011  0.5369
siesta:    3     -185.7118     -185.7086     -185.7104  0.0007  0.5360
siesta:    4     -185.7118     -185.7120     -185.7138  0.0000  0.5355

siesta: E_KS(eV) =             -185.7120

siesta: Atomic forces (eV/Ang):
----------------------------------------
   Tot   -0.000000    0.000000    0.008354
----------------------------------------
   Max    1.492052
   Res    0.859029    sqrt( Sum f_i^2 / 3N )
----------------------------------------
   Max    1.492052    constrained

Stress-tensor-Voigt (kbar):       -0.28       -0.28       26.45        0.00       -0.00       -0.00
(Free)E + p*V (eV/cell)     -186.5373
Target enthalpy (eV/cell)     -185.7138

* Maximum dynamic memory allocated =     9 MB

siesta:                 ==============================
                            Begin CG move =      5
                        ==============================

outcell: Unit cell vectors (Ang):
        4.940717    0.000000    0.000000
        0.000000    4.940717    0.000000
        0.000000    0.000000    6.260717

outcell: Cell vector modules (Ang)   :    4.940717    4.940717    6.260717
outcell: Cell angles (23,13,12) (deg):     90.0000     90.0000     90.0000
outcell: Cell volume (Ang**3)        :    152.8284
New_DM. Step:     6
Re-using DM from previous geometry...
Re-using DM without extrapolation (not allowed)

siesta: iscf   Eharris(eV)      E_KS(eV)   FreeEng(eV)   dDmax  Ef(eV)
siesta:    1     -185.6751     -185.7758     -185.7776  0.0067  0.5625
siesta:    2     -185.6741     -185.6750     -185.6803  0.0015  0.5432
siesta:    3     -185.6741     -185.6765     -185.6828  0.0010  0.5441
siesta:    4     -185.6741     -185.6730     -185.6792  0.0001  0.5452

siesta: E_KS(eV) =             -185.6731

siesta: Atomic forces (eV/Ang):
----------------------------------------
   Tot    0.000000   -0.000000    0.034967
----------------------------------------
   Max    1.624676
   Res    0.927968    sqrt( Sum f_i^2 / 3N )
----------------------------------------
   Max    1.624676    constrained

Stress-tensor-Voigt (kbar):       -0.25       -0.25       29.21       -0.00       -0.00       -0.00
(Free)E + p*V (eV/cell)     -186.5925
Target enthalpy (eV/cell)     -185.6793

* Maximum dynamic memory allocated =     9 MB

siesta:                 ==============================
                            Begin CG move =      6
                        ==============================

outcell: Unit cell vectors (Ang):
        4.940717    0.000000    0.000000
        0.000000    4.940717    0.000000
        0.000000    0.000000    6.260717

outcell: Cell vector modules (Ang)   :    4.940717    4.940717    6.260717
outcell: Cell angles (23,13,12) (deg):     90.0000     90.0000     90.0000
outcell: Cell volume (Ang**3)        :    152.8284
New_DM. Step:     7
Re-using DM from previous geometry...
Re-using DM without extrapolation (not allowed)

siesta: iscf   Eharris(eV)      E_KS(eV)   FreeEng(eV)   dDmax  Ef(eV)
siesta:    1     -185.6319     -185.7314     -185.7376  0.0143  0.5708
siesta:    2     -185.6299     -185.6323     -185.6479  0.0049  0.5546
siesta:    3     -185.6288     -185.5972     -185.6154  0.0017  0.5506
siesta:    4     -185.6284     -185.6201     -185.6395  0.0005  0.5572
siesta:    5     -185.6285     -185.6253     -185.6450  0.0003  0.5569
siesta:    6     -185.6284     -185.6280     -185.6477  0.0001  0.5567

siesta: E_KS(eV) =             -185.6284

siesta: Atomic forces (eV/Ang):
----------------------------------------
   Tot   -0.000000   -0.000000    0.032257
----------------------------------------
   Max    1.485214
   Res    0.848228    sqrt( Sum f_i^2 / 3N )
----------------------------------------
   Max    1.485214    constrained

Stress-tensor-Voigt (kbar):       -0.19       -0.19       27.07        0.00        0.00       -0.00
(Free)E + p*V (eV/cell)     -186.4966
Target enthalpy (eV/cell)     -185.6482
Cycling the Broyden process...

* Maximum dynamic memory allocated =     9 MB

siesta:                 ==============================
                            Begin CG move =      7
                        ==============================

outcell: Unit cell vectors (Ang):
        4.940717    0.000000    0.000000
        0.000000    4.940717    0.000000
        0.000000    0.000000    6.260717

outcell: Cell vector modules (Ang)   :    4.940717    4.940717    6.260717
outcell: Cell angles (23,13,12) (deg):     90.0000     90.0000     90.0000
outcell: Cell volume (Ang**3)        :    152.8284
New_DM. Step:     8
Re-using DM from previous geometry...
Re-using DM without extrapolation (not allowed)
Density Matrix sparsity pattern changed.

siesta: iscf   Eharris(eV)      E_KS(eV)   FreeEng(eV)   dDmax  Ef(eV)
siesta:    1     -185.5966     -185.8732     -185.8929  0.2426  0.7338
siesta:    2     -185.6319     -185.6047     -185.6409  0.0188  0.8435
siesta:    3     -185.6298     -185.6139     -185.6519  0.0141  0.8520
siesta:    4     -185.6300     -185.6202     -185.6572  0.0043  0.8781
siesta:    5     -185.6299     -185.6318     -185.6679  0.0046  0.8639
siesta:    6     -185.6299     -185.6303     -185.6664  0.0013  0.8632
siesta:    7     -185.6299     -185.6295     -185.6656  0.0004  0.8644
siesta:    8     -185.6299     -185.6299     -185.6660  0.0000  0.8657

siesta: E_KS(eV) =             -185.6299

siesta: Atomic forces (eV/Ang):
----------------------------------------
   Tot   -0.000000    0.000000   -0.002251
----------------------------------------
   Max    0.820531
   Res    0.473085    sqrt( Sum f_i^2 / 3N )
----------------------------------------
   Max    0.820531    constrained

Stress-tensor-Voigt (kbar):       -0.00       -0.00      -15.80        0.00       -0.00        0.00
(Free)E + p*V (eV/cell)     -185.1635
Target enthalpy (eV/cell)     -185.6660
Cycling the Broyden process...

* Maximum dynamic memory allocated =     9 MB

siesta:                 ==============================
                            Begin CG move =      8
                        ==============================

outcell: Unit cell vectors (Ang):
        4.940717    0.000000    0.000000
        0.000000    4.940717    0.000000
        0.000000    0.000000    6.260717

outcell: Cell vector modules (Ang)   :    4.940717    4.940717    6.260717
outcell: Cell angles (23,13,12) (deg):     90.0000     90.0000     90.0000
outcell: Cell volume (Ang**3)        :    152.8284
New_DM. Step:     9
Re-using DM from previous geometry...
Re-using DM without extrapolation (not allowed)
Density Matrix sparsity pattern changed.

siesta: iscf   Eharris(eV)      E_KS(eV)   FreeEng(eV)   dDmax  Ef(eV)
siesta:    1     -185.7217     -185.4325     -185.4686  0.2710  0.6498
siesta:    2     -185.7297     -185.6924     -185.6936  0.0272  0.5174
siesta:    3     -185.7258     -185.6972     -185.7013  0.0206  0.5136
siesta:    4     -185.7264     -185.7248     -185.7276  0.0026  0.5165
siesta:    5     -185.7260     -185.7228     -185.7238  0.0014  0.5286
siesta:    6     -185.7260     -185.7251     -185.7261  0.0010  0.5314
siesta:    7     -185.7260     -185.7258     -185.7269  0.0006  0.5321
siesta:    8     -185.7260     -185.7259     -185.7270  0.0000  0.5309

siesta: E_KS(eV) =             -185.7260

siesta: Atomic forces (eV/Ang):
----------------------------------------
   Tot   -0.000000    0.000000   -0.014024
----------------------------------------
   Max    1.421317
   Res    0.816559    sqrt( Sum f_i^2 / 3N )
----------------------------------------
   Max    1.421317    constrained

Stress-tensor-Voigt (kbar):       -0.27       -0.27       25.03        0.00        0.00       -0.00
(Free)E + p*V (eV/cell)     -186.5058
Target enthalpy (eV/cell)     -185.7270
Cycling the Broyden process...

* Maximum dynamic memory allocated =     9 MB

siesta:                 ==============================
                            Begin CG move =      9
                        ==============================

outcell: Unit cell vectors (Ang):
        4.940717    0.000000    0.000000
        0.000000    4.940717    0.000000
        0.000000    0.000000    6.260717

outcell: Cell vector modules (Ang)   :    4.940717    4.940717    6.260717
outcell: Cell angles (23,13,12) (deg):     90.0000     90.0000     90.0000
outcell: Cell volume (Ang**3)        :    152.8284
New_DM. Step:    10
Re-using DM from previous geometry...
Re-using DM without extrapolation (not allowed)
Density Matrix sparsity pattern changed.

siesta: iscf   Eharris(eV)      E_KS(eV)   FreeEng(eV)   dDmax  Ef(eV)
siesta:    1     -185.5855     -186.3694     -186.3704  0.2798  0.9960
siesta:    2     -185.6763     -185.6574     -185.6933  0.0151  1.0999
siesta:    3     -185.6760     -185.6597     -185.6955  0.0111  1.1065
siesta:    4     -185.6760     -185.6746     -185.7105  0.0012  1.1177
siesta:    5     -185.6760     -185.6759     -185.7117  0.0007  1.1136
siesta:    6     -185.6760     -185.6761     -185.7119  0.0004  1.1121
siesta:    7     -185.6760     -185.6760     -185.7119  0.0001  1.1120
siesta:    8     -185.6760     -185.6760     -185.7119  0.0000  1.1127

siesta: E_KS(eV) =             -185.6760

siesta: Atomic forces (eV/Ang):
----------------------------------------
   Tot   -0.000000    0.000000    0.076182
----------------------------------------
   Max    0.143593
   Res    0.064760    sqrt( Sum f_i^2 / 3N )
----------------------------------------
   Max    0.143593    constrained

Stress-tensor-Voigt (kbar):       -0.01       -0.01        4.92       -0.00       -0.00        0.00
(Free)E + p*V (eV/cell)     -185.8678
Target enthalpy (eV/cell)     -185.7118
Cycling the Broyden process...

* Maximum dynamic memory allocated =     9 MB

siesta:                 ==============================
                            Begin CG move =     10
                        ==============================

outcell: Unit cell vectors (Ang):
        4.940717    0.000000    0.000000
        0.000000    4.940717    0.000000
        0.000000    0.000000    6.260717

outcell: Cell vector modules (Ang)   :    4.940717    4.940717    6.260717
outcell: Cell angles (23,13,12) (deg):     90.0000     90.0000     90.0000
outcell: Cell volume (Ang**3)        :    152.8284
New_DM. Step:    11
Re-using DM from previous geometry...
Re-using DM without extrapolation (not allowed)
Density Matrix sparsity pattern changed.

siesta: iscf   Eharris(eV)      E_KS(eV)   FreeEng(eV)   dDmax  Ef(eV)
siesta:    1     -185.6071     -185.4423     -185.4782  0.0467  0.8051
siesta:    2     -185.5946     -185.5905     -185.6282  0.0500  0.7423
siesta:    3     -185.5935     -185.5426     -185.5902  0.0126  0.7651
siesta:    4     -185.5921     -185.5903     -185.6321  0.0103  0.7567
siesta:    5     -185.5930     -185.5931     -185.6370  0.0012  0.7639
siesta:    6     -185.5931     -185.5931     -185.6357  0.0016  0.7645
siesta:    7     -185.5930     -185.5928     -185.6353  0.0001  0.7637
siesta:    8     -185.5929     -185.5929     -185.6355  0.0000  0.7636

siesta: E_KS(eV) =             -185.5929

siesta: Atomic forces (eV/Ang):
----------------------------------------
   Tot    0.000000   -0.000000   -0.092560
----------------------------------------
   Max    0.904810
   Res    0.496392    sqrt( Sum f_i^2 / 3N )
----------------------------------------
   Max    0.904810    constrained

Stress-tensor-Voigt (kbar):        0.02        0.02      -16.17       -0.00       -0.00        0.00
(Free)E + p*V (eV/cell)     -185.1222
Target enthalpy (eV/cell)     -185.6355
Cycling the Broyden process...

* Maximum dynamic memory allocated =     9 MB

siesta:                 ==============================
                            Begin CG move =     11
                        ==============================

outcell: Unit cell vectors (Ang):
        4.940717    0.000000    0.000000
        0.000000    4.940717    0.000000
        0.000000    0.000000    6.260717

outcell: Cell vector modules (Ang)   :    4.940717    4.940717    6.260717
outcell: Cell angles (23,13,12) (deg):     90.0000     90.0000     90.0000
outcell: Cell volume (Ang**3)        :    152.8284
New_DM. Step:    12
Re-using DM from previous geometry...
Re-using DM without extrapolation (not allowed)
Density Matrix sparsity pattern changed.

siesta: iscf   Eharris(eV)      E_KS(eV)   FreeEng(eV)   dDmax  Ef(eV)
siesta:    1     -185.6504     -185.7084     -185.7510  0.0245  0.9053
siesta:    2     -185.6500     -185.6490     -185.6848  0.0012  0.9493
siesta:    3     -185.6498     -185.6500     -185.6858  0.0009  0.9426
siesta:    4     -185.6497     -185.6493     -185.6851  0.0007  0.9341
siesta:    5     -185.6497     -185.6495     -185.6854  0.0002  0.9341
siesta:    6     -185.6497     -185.6496     -185.6855  0.0000  0.9342

siesta: E_KS(eV) =             -185.6497

siesta: Atomic forces (eV/Ang):
----------------------------------------
   Tot   -0.000000    0.000000    0.065969
----------------------------------------
   Max    0.636556
   Res    0.348992    sqrt( Sum f_i^2 / 3N )
----------------------------------------
   Max    0.636556    constrained

Stress-tensor-Voigt (kbar):       -0.02       -0.02      -11.70        0.00        0.00        0.00
(Free)E + p*V (eV/cell)     -185.3124
Target enthalpy (eV/cell)     -185.6855
Cycling the Broyden process...

* Maximum dynamic memory allocated =     9 MB

siesta:                 ==============================
                            Begin CG move =     12
                        ==============================

outcell: Unit cell vectors (Ang):
        4.940717    0.000000    0.000000
        0.000000    4.940717    0.000000
        0.000000    0.000000    6.260717

outcell: Cell vector modules (Ang)   :    4.940717    4.940717    6.260717
outcell: Cell angles (23,13,12) (deg):     90.0000     90.0000     90.0000
outcell: Cell volume (Ang**3)        :    152.8284
New_DM. Step:    13
Re-using DM from previous geometry...
Re-using DM without extrapolation (not allowed)
Density Matrix sparsity pattern changed.

siesta: iscf   Eharris(eV)      E_KS(eV)   FreeEng(eV)   dDmax  Ef(eV)
siesta:    1     -185.5756     -185.4960     -185.5319  0.1551  0.7304
siesta:    2     -185.5801     -185.5695     -185.6148  0.0692  0.5974
siesta:    3     -185.5724     -185.5514     -185.6006  0.0144  0.6344
siesta:    4     -185.5761     -185.5737     -185.6225  0.0209  0.6212
siesta:    5     -185.5768     -185.5730     -185.6195  0.0290  0.6233
siesta:    6     -185.5758     -185.5755     -185.6215  0.0043  0.6216
siesta:    7     -185.5758     -185.5759     -185.6228  0.0012  0.6199
siesta:    8     -185.5759     -185.5761     -185.6229  0.0001  0.6171
siesta:    9     -185.5759     -185.5760     -185.6227  0.0002  0.6168
siesta:   10     -185.5759     -185.5760     -185.6227  0.0001  0.6166

siesta: E_KS(eV) =             -185.5759

siesta: Atomic forces (eV/Ang):
----------------------------------------
   Tot    0.000000   -0.000000   -0.039415
----------------------------------------
   Max    0.378580
   Res    0.207507    sqrt( Sum f_i^2 / 3N )
----------------------------------------
   Max    0.378580    constrained

Stress-tensor-Voigt (kbar):       -0.01       -0.01        7.01       -0.00       -0.00        0.00
(Free)E + p*V (eV/cell)     -185.8446
Target enthalpy (eV/cell)     -185.6226
Cycling the Broyden process...

* Maximum dynamic memory allocated =     9 MB

siesta:                 ==============================
                            Begin CG move =     13
                        ==============================

outcell: Unit cell vectors (Ang):
        4.940717    0.000000    0.000000
        0.000000    4.940717    0.000000
        0.000000    0.000000    6.260717

outcell: Cell vector modules (Ang)   :    4.940717    4.940717    6.260717
outcell: Cell angles (23,13,12) (deg):     90.0000     90.0000     90.0000
outcell: Cell volume (Ang**3)        :    152.8284
New_DM. Step:    14
Re-using DM from previous geometry...
Re-using DM without extrapolation (not allowed)
Density Matrix sparsity pattern changed.

siesta: iscf   Eharris(eV)      E_KS(eV)   FreeEng(eV)   dDmax  Ef(eV)
siesta:    1     -185.6179     -185.7034     -185.7502  0.1407  0.7377
siesta:    2     -185.6191     -185.6122     -185.6485  0.0111  0.8272
siesta:    3     -185.6187     -185.6164     -185.6550  0.0084  0.8282
siesta:    4     -185.6195     -185.6146     -185.6523  0.0031  0.8435
siesta:    5     -185.6196     -185.6193     -185.6560  0.0023  0.8359
siesta:    6     -185.6195     -185.6194     -185.6561  0.0007  0.8350
siesta:    7     -185.6195     -185.6193     -185.6560  0.0002  0.8357
siesta:    8     -185.6195     -185.6195     -185.6563  0.0000  0.8365

siesta: E_KS(eV) =             -185.6195

siesta: Atomic forces (eV/Ang):
----------------------------------------
   Tot   -0.000000   -0.000000   -0.062635
----------------------------------------
   Max    0.955964
   Res    0.534151    sqrt( Sum f_i^2 / 3N )
----------------------------------------
   Max    0.955964    constrained

Stress-tensor-Voigt (kbar):       -0.02       -0.02      -18.38        0.00        0.00        0.00
(Free)E + p*V (eV/cell)     -185.0707
Target enthalpy (eV/cell)     -185.6563
Cycling the Broyden process...

* Maximum dynamic memory allocated =     9 MB

siesta:                 ==============================
                            Begin CG move =     14
                        ==============================

outcell: Unit cell vectors (Ang):
        4.940717    0.000000    0.000000
        0.000000    4.940717    0.000000
        0.000000    0.000000    6.260717

outcell: Cell vector modules (Ang)   :    4.940717    4.940717    6.260717
outcell: Cell angles (23,13,12) (deg):     90.0000     90.0000     90.0000
outcell: Cell volume (Ang**3)        :    152.8284
New_DM. Step:    15
Re-using DM from previous geometry...
Re-using DM without extrapolation (not allowed)
Density Matrix sparsity pattern changed.

siesta: iscf   Eharris(eV)      E_KS(eV)   FreeEng(eV)   dDmax  Ef(eV)
siesta:    1     -185.5755     -185.5567     -185.5934  0.0708  0.7570
siesta:    2     -185.5807     -185.5735     -185.6223  0.0331  0.6914
siesta:    3     -185.5767     -185.5702     -185.6155  0.0060  0.7114
siesta:    4     -185.5760     -185.5766     -185.6240  0.0064  0.7035
siesta:    5     -185.5759     -185.5766     -185.6249  0.0075  0.7038
siesta:    6     -185.5760     -185.5763     -185.6245  0.0021  0.7043
siesta:    7     -185.5761     -185.5762     -185.6244  0.0003  0.7035
siesta:    8     -185.5761     -185.5761     -185.6242  0.0000  0.7024

siesta: E_KS(eV) =             -185.5761

siesta: Atomic forces (eV/Ang):
----------------------------------------
   Tot    0.000000   -0.000000   -0.075640
----------------------------------------
   Max    0.539791
   Res    0.290635    sqrt( Sum f_i^2 / 3N )
----------------------------------------
   Max    0.539791    constrained

Stress-tensor-Voigt (kbar):       -0.00       -0.00       -9.54        0.00       -0.00        0.00
(Free)E + p*V (eV/cell)     -185.3207
Target enthalpy (eV/cell)     -185.6242
Cycling the Broyden process...

* Maximum dynamic memory allocated =     9 MB

siesta:                 ==============================
                            Begin CG move =     15
                        ==============================

outcell: Unit cell vectors (Ang):
        4.940717    0.000000    0.000000
        0.000000    4.940717    0.000000
        0.000000    0.000000    6.260717

outcell: Cell vector modules (Ang)   :    4.940717    4.940717    6.260717
outcell: Cell angles (23,13,12) (deg):     90.0000     90.0000     90.0000
outcell: Cell volume (Ang**3)        :    152.8284
New_DM. Step:    16
Re-using DM from previous geometry...
Re-using DM without extrapolation (not allowed)

siesta: iscf   Eharris(eV)      E_KS(eV)   FreeEng(eV)   dDmax  Ef(eV)
siesta:    1     -185.5779     -185.5804     -185.6285  0.0091  0.7068
siesta:    2     -185.5773     -185.5779     -185.6252  0.0064  0.7136
siesta:    3     -185.5776     -185.5786     -185.6265  0.0011  0.7109
siesta:    4     -185.5777     -185.5774     -185.6250  0.0001  0.7125
siesta:    5     -185.5777     -185.5776     -185.6252  0.0004  0.7121
siesta:    6     -185.5777     -185.5777     -185.6251  0.0000  0.7122

siesta: E_KS(eV) =             -185.5777

siesta: Atomic forces (eV/Ang):
----------------------------------------
   Tot   -0.000000   -0.000000   -0.065161
----------------------------------------
   Max    0.606118
   Res    0.331666    sqrt( Sum f_i^2 / 3N )
----------------------------------------
   Max    0.606118    constrained

Stress-tensor-Voigt (kbar):        0.01        0.01      -11.02       -0.00        0.00        0.00
(Free)E + p*V (eV/cell)     -185.2754
Target enthalpy (eV/cell)     -185.6252
Cycling the Broyden process...

* Maximum dynamic memory allocated =     9 MB

siesta:                 ==============================
                            Begin CG move =     16
                        ==============================

outcell: Unit cell vectors (Ang):
        4.940717    0.000000    0.000000
        0.000000    4.940717    0.000000
        0.000000    0.000000    6.260717

outcell: Cell vector modules (Ang)   :    4.940717    4.940717    6.260717
outcell: Cell angles (23,13,12) (deg):     90.0000     90.0000     90.0000
outcell: Cell volume (Ang**3)        :    152.8284
New_DM. Step:    17
Re-using DM from previous geometry...
Re-using DM without extrapolation (not allowed)

siesta: iscf   Eharris(eV)      E_KS(eV)   FreeEng(eV)   dDmax  Ef(eV)
siesta:    1     -185.5854     -185.5899     -185.6374  0.0226  0.7246
siesta:    2     -185.5836     -185.5850     -185.6294  0.0120  0.7426
siesta:    3     -185.5843     -185.5861     -185.6325  0.0026  0.7365
siesta:    4     -185.5845     -185.5839     -185.6293  0.0009  0.7410
siesta:    5     -185.5847     -185.5844     -185.6296  0.0014  0.7394
siesta:    6     -185.5846     -185.5845     -185.6295  0.0001  0.7398
siesta:    7     -185.5846     -185.5845     -185.6297  0.0000  0.7399

siesta: E_KS(eV) =             -185.5846

siesta: Atomic forces (eV/Ang):
----------------------------------------
   Tot   -0.000000    0.000000   -0.074223
----------------------------------------
   Max    0.794973
   Res    0.438076    sqrt( Sum f_i^2 / 3N )
----------------------------------------
   Max    0.794973    constrained

Stress-tensor-Voigt (kbar):        0.01        0.01      -14.73        0.00        0.00        0.00
(Free)E + p*V (eV/cell)     -185.1620
Target enthalpy (eV/cell)     -185.6297
Cycling the Broyden process...

* Maximum dynamic memory allocated =     9 MB

siesta:                 ==============================
                            Begin CG move =     17
                        ==============================

outcell: Unit cell vectors (Ang):
        4.940717    0.000000    0.000000
        0.000000    4.940717    0.000000
        0.000000    0.000000    6.260717

outcell: Cell vector modules (Ang)   :    4.940717    4.940717    6.260717
outcell: Cell angles (23,13,12) (deg):     90.0000     90.0000     90.0000
outcell: Cell volume (Ang**3)        :    152.8284
New_DM. Step:    18
Re-using DM from previous geometry...
Re-using DM without extrapolation (not allowed)

siesta: iscf   Eharris(eV)      E_KS(eV)   FreeEng(eV)   dDmax  Ef(eV)
siesta:    1     -185.5750     -185.5673     -185.6124  0.0383  0.7228
siesta:    2     -185.5784     -185.5738     -185.6227  0.0280  0.6927
siesta:    3     -185.5756     -185.5723     -185.6188  0.0029  0.7042
siesta:    4     -185.5752     -185.5757     -185.6237  0.0037  0.6994
siesta:    5     -185.5753     -185.5758     -185.6242  0.0022  0.6990
siesta:    6     -185.5753     -185.5754     -185.6238  0.0008  0.6995
siesta:    7     -185.5753     -185.5754     -185.6238  0.0001  0.6992
siesta:    8     -185.5753     -185.5753     -185.6237  0.0000  0.6988

siesta: E_KS(eV) =             -185.5753

siesta: Atomic forces (eV/Ang):
----------------------------------------
   Tot   -0.000000   -0.000000   -0.071893
----------------------------------------
   Max    0.507430
   Res    0.273001    sqrt( Sum f_i^2 / 3N )
----------------------------------------
   Max    0.507430    constrained

Stress-tensor-Voigt (kbar):        0.00        0.00       -8.97        0.00        0.00        0.00
(Free)E + p*V (eV/cell)     -185.3388
Target enthalpy (eV/cell)     -185.6237
Cycling the Broyden process...

* Maximum dynamic memory allocated =     9 MB

siesta:                 ==============================
                            Begin CG move =     18
                        ==============================

outcell: Unit cell vectors (Ang):
        4.940717    0.000000    0.000000
        0.000000    4.940717    0.000000
        0.000000    0.000000    6.260717

outcell: Cell vector modules (Ang)   :    4.940717    4.940717    6.260717
outcell: Cell angles (23,13,12) (deg):     90.0000     90.0000     90.0000
outcell: Cell volume (Ang**3)        :    152.8284
New_DM. Step:    19
Re-using DM from previous geometry...
Re-using DM without extrapolation (not allowed)
Density Matrix sparsity pattern changed.

siesta: iscf   Eharris(eV)      E_KS(eV)   FreeEng(eV)   dDmax  Ef(eV)
siesta:    1     -185.6140     -185.5068     -185.5552  0.1635  0.6505
siesta:    2     -185.6036     -185.5939     -185.6202  0.0725  0.5686
siesta:    3     -185.5951     -185.5739     -185.6191  0.0101  0.5795
siesta:    4     -185.6060     -185.5983     -185.6379  0.0242  0.5681
siesta:    5     -185.6058     -185.6002     -185.6307  0.0208  0.5674
siesta:    6     -185.6063     -185.6079     -185.6385  0.0005  0.5703
siesta:    7     -185.6066     -185.6072     -185.6375  0.0002  0.5703
siesta:    8     -185.6070     -185.6073     -185.6372  0.0003  0.5685
siesta:    9     -185.6070     -185.6073     -185.6368  0.0001  0.5684
siesta:   10     -185.6070     -185.6072     -185.6367  0.0001  0.5684

siesta: E_KS(eV) =             -185.6070

siesta: Atomic forces (eV/Ang):
----------------------------------------
   Tot    0.000000   -0.000000    0.000060
----------------------------------------
   Max    1.216680
   Res    0.702433    sqrt( Sum f_i^2 / 3N )
----------------------------------------
   Max    1.216680    constrained

Stress-tensor-Voigt (kbar):       -0.15       -0.15       22.16       -0.00        0.00       -0.00
(Free)E + p*V (eV/cell)     -186.3314
Target enthalpy (eV/cell)     -185.6365
Cycling the Broyden process...

* Maximum dynamic memory allocated =     9 MB

siesta:                 ==============================
                            Begin CG move =     19
                        ==============================

outcell: Unit cell vectors (Ang):
        4.940717    0.000000    0.000000
        0.000000    4.940717    0.000000
        0.000000    0.000000    6.260717

outcell: Cell vector modules (Ang)   :    4.940717    4.940717    6.260717
outcell: Cell angles (23,13,12) (deg):     90.0000     90.0000     90.0000
outcell: Cell volume (Ang**3)        :    152.8284
New_DM. Step:    20
Re-using DM from previous geometry...
Re-using DM without extrapolation (not allowed)
Density Matrix sparsity pattern changed.

siesta: iscf   Eharris(eV)      E_KS(eV)   FreeEng(eV)   dDmax  Ef(eV)
siesta:    1     -185.6027     -185.7935     -185.8230  0.2167  0.7122
siesta:    2     -185.6200     -185.5989     -185.6355  0.0174  0.8207
siesta:    3     -185.6180     -185.6113     -185.6520  0.0130  0.8218
siesta:    4     -185.6200     -185.6026     -185.6409  0.0125  0.8568
siesta:    5     -185.6200     -185.6185     -185.6553  0.0046  0.8399
siesta:    6     -185.6199     -185.6218     -185.6584  0.0040  0.8350
siesta:    7     -185.6199     -185.6193     -185.6559  0.0003  0.8383
siesta:    8     -185.6199     -185.6199     -185.6565  0.0001  0.8398

siesta: E_KS(eV) =             -185.6199

siesta: Atomic forces (eV/Ang):
----------------------------------------
   Tot   -0.000000    0.000000   -0.014085
----------------------------------------
   Max    0.945661
   Res    0.541927    sqrt( Sum f_i^2 / 3N )
----------------------------------------
   Max    0.945661    constrained

Stress-tensor-Voigt (kbar):       -0.01       -0.01      -19.31       -0.00       -0.00        0.00
(Free)E + p*V (eV/cell)     -185.0416
Target enthalpy (eV/cell)     -185.6565
Cycling the Broyden process...

* Maximum dynamic memory allocated =     9 MB

siesta:                 ==============================
                            Begin CG move =     20
                        ==============================

outcell: Unit cell vectors (Ang):
        4.940717    0.000000    0.000000
        0.000000    4.940717    0.000000
        0.000000    0.000000    6.260717

outcell: Cell vector modules (Ang)   :    4.940717    4.940717    6.260717
outcell: Cell angles (23,13,12) (deg):     90.0000     90.0000     90.0000
outcell: Cell volume (Ang**3)        :    152.8284
New_DM. Step:    21
Re-using DM from previous geometry...
Re-using DM without extrapolation (not allowed)
Density Matrix sparsity pattern changed.

siesta: iscf   Eharris(eV)      E_KS(eV)   FreeEng(eV)   dDmax  Ef(eV)
siesta:    1     -185.5802     -185.5294     -185.5660  0.1589  0.7350
siesta:    2     -185.5903     -185.5633     -185.6074  0.1078  0.6122
siesta:    3     -185.5706     -185.5560     -185.6029  0.0096  0.6511
siesta:    4     -185.5747     -185.5689     -185.6183  0.0388  0.6418
siesta:    5     -185.5733     -185.5705     -185.6173  0.0240  0.6372
siesta:    6     -185.5729     -185.5718     -185.6193  0.0112  0.6363
siesta:    7     -185.5726     -185.5729     -185.6207  0.0012  0.6338
siesta:    8     -185.5726     -185.5729     -185.6210  0.0004  0.6314
siesta:    9     -185.5727     -185.5728     -185.6208  0.0001  0.6313

siesta: E_KS(eV) =             -185.5727

siesta: Atomic forces (eV/Ang):
----------------------------------------
   Tot    0.000000    0.000000    0.000298
----------------------------------------
   Max    0.203355
   Res    0.117321    sqrt( Sum f_i^2 / 3N )
----------------------------------------
   Max    0.203355    constrained

Stress-tensor-Voigt (kbar):       -0.06       -0.06        3.80        0.00        0.00        0.00
(Free)E + p*V (eV/cell)     -185.7374
Target enthalpy (eV/cell)     -185.6208
Cycling the Broyden process...

* Maximum dynamic memory allocated =     9 MB

siesta:                 ==============================
                            Begin CG move =     21
                        ==============================

outcell: Unit cell vectors (Ang):
        4.940717    0.000000    0.000000
        0.000000    4.940717    0.000000
        0.000000    0.000000    6.260717

outcell: Cell vector modules (Ang)   :    4.940717    4.940717    6.260717
outcell: Cell angles (23,13,12) (deg):     90.0000     90.0000     90.0000
outcell: Cell volume (Ang**3)        :    152.8284
New_DM. Step:    22
Re-using DM from previous geometry...
Re-using DM without extrapolation (not allowed)

siesta: iscf   Eharris(eV)      E_KS(eV)   FreeEng(eV)   dDmax  Ef(eV)
siesta:    1     -185.5721     -185.5937     -185.6418  0.0493  0.6465
siesta:    2     -185.5744     -185.5702     -185.6192  0.0407  0.6784
siesta:    3     -185.5713     -185.5789     -185.6275  0.0080  0.6634
siesta:    4     -185.5715     -185.5673     -185.6166  0.0050  0.6745
siesta:    5     -185.5715     -185.5708     -185.6202  0.0048  0.6701
siesta:    6     -185.5715     -185.5711     -185.6204  0.0005  0.6711
siesta:    7     -185.5715     -185.5712     -185.6206  0.0001  0.6714
siesta:    8     -185.5715     -185.5714     -185.6207  0.0000  0.6719

siesta: E_KS(eV) =             -185.5715

siesta: Atomic forces (eV/Ang):
----------------------------------------
   Tot   -0.000000    0.000000    0.000344
----------------------------------------
   Max    0.226200
   Res    0.130497    sqrt( Sum f_i^2 / 3N )
----------------------------------------
   Max    0.226200    constrained

Stress-tensor-Voigt (kbar):       -0.02       -0.02       -4.29       -0.00        0.00        0.00
(Free)E + p*V (eV/cell)     -185.4832
Target enthalpy (eV/cell)     -185.6208
Cycling the Broyden process...

* Maximum dynamic memory allocated =     9 MB

siesta:                 ==============================
                            Begin CG move =     22
                        ==============================

outcell: Unit cell vectors (Ang):
        4.940717    0.000000    0.000000
        0.000000    4.940717    0.000000
        0.000000    0.000000    6.260717

outcell: Cell vector modules (Ang)   :    4.940717    4.940717    6.260717
outcell: Cell angles (23,13,12) (deg):     90.0000     90.0000     90.0000
outcell: Cell volume (Ang**3)        :    152.8284
New_DM. Step:    23
Re-using DM from previous geometry...
Re-using DM without extrapolation (not allowed)

siesta: iscf   Eharris(eV)      E_KS(eV)   FreeEng(eV)   dDmax  Ef(eV)
siesta:    1     -185.5785     -185.5442     -185.5935  0.0713  0.6520
siesta:    2     -185.5769     -185.5743     -185.6187  0.0546  0.6097
siesta:    3     -185.5742     -185.5645     -185.6138  0.0062  0.6249
siesta:    4     -185.5759     -185.5762     -185.6237  0.0081  0.6168
siesta:    5     -185.5758     -185.5767     -185.6228  0.0061  0.6163
siesta:    6     -185.5757     -185.5760     -185.6222  0.0007  0.6167
siesta:    7     -185.5757     -185.5759     -185.6222  0.0003  0.6163
siesta:    8     -185.5758     -185.5758     -185.6221  0.0000  0.6154

siesta: E_KS(eV) =             -185.5758

siesta: Atomic forces (eV/Ang):
----------------------------------------
   Tot    0.000000    0.000000   -0.002349
----------------------------------------
   Max    0.401671
   Res    0.231228    sqrt( Sum f_i^2 / 3N )
----------------------------------------
   Max    0.401671    constrained

Stress-tensor-Voigt (kbar):       -0.08       -0.08        7.42       -0.00        0.00        0.00
(Free)E + p*V (eV/cell)     -185.8532
Target enthalpy (eV/cell)     -185.6220
Cycling the Broyden process...

* Maximum dynamic memory allocated =     9 MB

siesta:                 ==============================
                            Begin CG move =     23
                        ==============================

outcell: Unit cell vectors (Ang):
        4.940717    0.000000    0.000000
        0.000000    4.940717    0.000000
        0.000000    0.000000    6.260717

outcell: Cell vector modules (Ang)   :    4.940717    4.940717    6.260717
outcell: Cell angles (23,13,12) (deg):     90.0000     90.0000     90.0000
outcell: Cell volume (Ang**3)        :    152.8284
New_DM. Step:    24
Re-using DM from previous geometry...
Re-using DM without extrapolation (not allowed)

siesta: iscf   Eharris(eV)      E_KS(eV)   FreeEng(eV)   dDmax  Ef(eV)
siesta:    1     -185.5810     -185.6287     -185.6750  0.1082  0.6557
siesta:    2     -185.5845     -185.5730     -185.6181  0.0762  0.7271
siesta:    3     -185.5762     -185.5924     -185.6413  0.0225  0.6940
siesta:    4     -185.5772     -185.5637     -185.6117  0.0261  0.7279
siesta:    5     -185.5782     -185.5746     -185.6232  0.0102  0.7121
siesta:    6     -185.5780     -185.5772     -185.6242  0.0044  0.7125
siesta:    7     -185.5778     -185.5770     -185.6242  0.0002  0.7147
siesta:    8     -185.5778     -185.5771     -185.6245  0.0001  0.7155

siesta: E_KS(eV) =             -185.5775

siesta: Atomic forces (eV/Ang):
----------------------------------------
   Tot   -0.000000    0.000000    0.009280
----------------------------------------
   Max    0.598700
   Res    0.342991    sqrt( Sum f_i^2 / 3N )
----------------------------------------
   Max    0.598700    constrained

Stress-tensor-Voigt (kbar):        0.00        0.00      -11.59       -0.00        0.00        0.00
(Free)E + p*V (eV/cell)     -185.2563
Target enthalpy (eV/cell)     -185.6248
Cycling the Broyden process...

* Maximum dynamic memory allocated =     9 MB

siesta:                 ==============================
                            Begin CG move =     24
                        ==============================

outcell: Unit cell vectors (Ang):
        4.940717    0.000000    0.000000
        0.000000    4.940717    0.000000
        0.000000    0.000000    6.260717

outcell: Cell vector modules (Ang)   :    4.940717    4.940717    6.260717
outcell: Cell angles (23,13,12) (deg):     90.0000     90.0000     90.0000
outcell: Cell volume (Ang**3)        :    152.8284
New_DM. Step:    25
Re-using DM from previous geometry...
Re-using DM without extrapolation (not allowed)
Density Matrix sparsity pattern changed.

siesta: iscf   Eharris(eV)      E_KS(eV)   FreeEng(eV)   dDmax  Ef(eV)
siesta:    1     -185.6007     -185.5169     -185.5642  0.1571  0.6691
siesta:    2     -185.5947     -185.5804     -185.6131  0.0953  0.5802
siesta:    3     -185.5824     -185.5637     -185.6127  0.0092  0.6006
siesta:    4     -185.5904     -185.5833     -185.6280  0.0272  0.5887
siesta:    5     -185.5899     -185.5859     -185.6241  0.0201  0.5868
siesta:    6     -185.5896     -185.5899     -185.6285  0.0026  0.5868
siesta:    7     -185.5898     -185.5902     -185.6291  0.0006  0.5863
siesta:    8     -185.5901     -185.5905     -185.6291  0.0001  0.5844
siesta:    9     -185.5901     -185.5904     -185.6287  0.0001  0.5842

siesta: E_KS(eV) =             -185.5901

siesta: Atomic forces (eV/Ang):
----------------------------------------
   Tot   -0.000000    0.000000   -0.006763
----------------------------------------
   Max    0.889632
   Res    0.511681    sqrt( Sum f_i^2 / 3N )
----------------------------------------
   Max    0.889632    constrained

Stress-tensor-Voigt (kbar):       -0.12       -0.12       16.28        0.00       -0.00       -0.00
(Free)E + p*V (eV/cell)     -186.1387
Target enthalpy (eV/cell)     -185.6285
Cycling the Broyden process...

* Maximum dynamic memory allocated =     9 MB

siesta:                 ==============================
                            Begin CG move =     25
                        ==============================

outcell: Unit cell vectors (Ang):
        4.940717    0.000000    0.000000
        0.000000    4.940717    0.000000
        0.000000    0.000000    6.260717

outcell: Cell vector modules (Ang)   :    4.940717    4.940717    6.260717
outcell: Cell angles (23,13,12) (deg):     90.0000     90.0000     90.0000
outcell: Cell volume (Ang**3)        :    152.8284
New_DM. Step:    26
Re-using DM from previous geometry...
Re-using DM without extrapolation (not allowed)
Density Matrix sparsity pattern changed.

siesta: iscf   Eharris(eV)      E_KS(eV)   FreeEng(eV)   dDmax  Ef(eV)
siesta:    1     -185.5745     -185.6623     -185.7006  0.1375  0.6311
siesta:    2     -185.5888     -185.5651     -185.6122  0.0905  0.7093
siesta:    3     -185.5724     -185.5979     -185.6443  0.0315  0.6719
siesta:    4     -185.5754     -185.5471     -185.5961  0.0423  0.7168
siesta:    5     -185.5753     -185.5682     -185.6176  0.0145  0.6951
siesta:    6     -185.5749     -185.5720     -185.6200  0.0031  0.6973
siesta:    7     -185.5748     -185.5735     -185.6218  0.0003  0.6987
siesta:    8     -185.5748     -185.5744     -185.6228  0.0001  0.7002
siesta:    9     -185.5748     -185.5746     -185.6229  0.0001  0.7003
siesta:   10     -185.5748     -185.5746     -185.6230  0.0000  0.7003

siesta: E_KS(eV) =             -185.5747

siesta: Atomic forces (eV/Ang):
----------------------------------------
   Tot   -0.000000    0.000000    0.000026
----------------------------------------
   Max    0.471988
   Res    0.272495    sqrt( Sum f_i^2 / 3N )
----------------------------------------
   Max    0.471988    constrained

Stress-tensor-Voigt (kbar):        0.02        0.02       -9.11       -0.00       -0.00        0.00
(Free)E + p*V (eV/cell)     -185.3349
Target enthalpy (eV/cell)     -185.6231
Cycling the Broyden process...

* Maximum dynamic memory allocated =     9 MB

siesta:                 ==============================
                            Begin CG move =     26
                        ==============================

outcell: Unit cell vectors (Ang):
        4.940717    0.000000    0.000000
        0.000000    4.940717    0.000000
        0.000000    0.000000    6.260717

outcell: Cell vector modules (Ang)   :    4.940717    4.940717    6.260717
outcell: Cell angles (23,13,12) (deg):     90.0000     90.0000     90.0000
outcell: Cell volume (Ang**3)        :    152.8284
New_DM. Step:    27
Re-using DM from previous geometry...
Re-using DM without extrapolation (not allowed)

siesta: iscf   Eharris(eV)      E_KS(eV)   FreeEng(eV)   dDmax  Ef(eV)
siesta:    1     -185.5802     -185.5380     -185.5863  0.0992  0.6717
siesta:    2     -185.5808     -185.5716     -185.6152  0.0781  0.6094
siesta:    3     -185.5730     -185.5614     -185.6106  0.0068  0.6311
siesta:    4     -185.5754     -185.5738     -185.6220  0.0153  0.6218
siesta:    5     -185.5752     -185.5748     -185.6211  0.0108  0.6205
siesta:    6     -185.5750     -185.5750     -185.6215  0.0026  0.6204
siesta:    7     -185.5750     -185.5752     -185.6219  0.0004  0.6195
siesta:    8     -185.5751     -185.5752     -185.6218  0.0001  0.6183

siesta: E_KS(eV) =             -185.5751

siesta: Atomic forces (eV/Ang):
----------------------------------------
   Tot    0.000000    0.000000   -0.000091
----------------------------------------
   Max    0.362435
   Res    0.209225    sqrt( Sum f_i^2 / 3N )
----------------------------------------
   Max    0.362435    constrained

Stress-tensor-Voigt (kbar):       -0.08       -0.08        6.72        0.00        0.00        0.00
(Free)E + p*V (eV/cell)     -185.8300
Target enthalpy (eV/cell)     -185.6217
Cycling the Broyden process...

* Maximum dynamic memory allocated =     9 MB

siesta:                 ==============================
                            Begin CG move =     27
                        ==============================

outcell: Unit cell vectors (Ang):
        4.940717    0.000000    0.000000
        0.000000    4.940717    0.000000
        0.000000    0.000000    6.260717

outcell: Cell vector modules (Ang)   :    4.940717    4.940717    6.260717
outcell: Cell angles (23,13,12) (deg):     90.0000     90.0000     90.0000
outcell: Cell volume (Ang**3)        :    152.8284
New_DM. Step:    28
Re-using DM from previous geometry...
Re-using DM without extrapolation (not allowed)

siesta: iscf   Eharris(eV)      E_KS(eV)   FreeEng(eV)   dDmax  Ef(eV)
siesta:    1     -185.5728     -185.6066     -185.6532  0.0708  0.6405
siesta:    2     -185.5774     -185.5692     -185.6179  0.0565  0.6853
siesta:    3     -185.5714     -185.5830     -185.6309  0.0127  0.6640
siesta:    4     -185.5719     -185.5641     -185.6135  0.0107  0.6816
siesta:    5     -185.5720     -185.5704     -185.6198  0.0073  0.6741
siesta:    6     -185.5719     -185.5713     -185.6205  0.0010  0.6754
siesta:    7     -185.5719     -185.5714     -185.6207  0.0002  0.6760
siesta:    8     -185.5719     -185.5717     -185.6209  0.0000  0.6767

siesta: E_KS(eV) =             -185.5718

siesta: Atomic forces (eV/Ang):
----------------------------------------
   Tot   -0.000000    0.000000    0.000312
----------------------------------------
   Max    0.270908
   Res    0.156319    sqrt( Sum f_i^2 / 3N )
----------------------------------------
   Max    0.270908    constrained

Stress-tensor-Voigt (kbar):       -0.01       -0.01       -5.16        0.00       -0.00        0.00
(Free)E + p*V (eV/cell)     -185.4564
Target enthalpy (eV/cell)     -185.6210
Cycling the Broyden process...

* Maximum dynamic memory allocated =     9 MB

siesta:                 ==============================
                            Begin CG move =     28
                        ==============================

outcell: Unit cell vectors (Ang):
        4.940717    0.000000    0.000000
        0.000000    4.940717    0.000000
        0.000000    0.000000    6.260717

outcell: Cell vector modules (Ang)   :    4.940717    4.940717    6.260717
outcell: Cell angles (23,13,12) (deg):     90.0000     90.0000     90.0000
outcell: Cell volume (Ang**3)        :    152.8284
New_DM. Step:    29
Re-using DM from previous geometry...
Re-using DM without extrapolation (not allowed)

siesta: iscf   Eharris(eV)      E_KS(eV)   FreeEng(eV)   dDmax  Ef(eV)
siesta:    1     -185.5732     -185.5533     -185.6026  0.0488  0.6627
siesta:    2     -185.5733     -185.5712     -185.6188  0.0409  0.6313
siesta:    3     -185.5714     -185.5652     -185.6145  0.0046  0.6439
siesta:    4     -185.5720     -185.5726     -185.6215  0.0045  0.6378
siesta:    5     -185.5719     -185.5731     -185.6215  0.0016  0.6371
siesta:    6     -185.5719     -185.5721     -185.6206  0.0005  0.6379
siesta:    7     -185.5719     -185.5721     -185.6206  0.0002  0.6376
siesta:    8     -185.5719     -185.5720     -185.6205  0.0000  0.6371

siesta: E_KS(eV) =             -185.5720

siesta: Atomic forces (eV/Ang):
----------------------------------------
   Tot    0.000000    0.000000    0.000091
----------------------------------------
   Max    0.134383
   Res    0.077560    sqrt( Sum f_i^2 / 3N )
----------------------------------------
   Max    0.134383    constrained

Stress-tensor-Voigt (kbar):       -0.06       -0.06        2.52       -0.00       -0.00       -0.00
(Free)E + p*V (eV/cell)     -185.6966
Target enthalpy (eV/cell)     -185.6205
Cycling the Broyden process...

* Maximum dynamic memory allocated =     9 MB

siesta:                 ==============================
                            Begin CG move =     29
                        ==============================

outcell: Unit cell vectors (Ang):
        4.940717    0.000000    0.000000
        0.000000    4.940717    0.000000
        0.000000    0.000000    6.260717

outcell: Cell vector modules (Ang)   :    4.940717    4.940717    6.260717
outcell: Cell angles (23,13,12) (deg):     90.0000     90.0000     90.0000
outcell: Cell volume (Ang**3)        :    152.8284
New_DM. Step:    30
Re-using DM from previous geometry...
Re-using DM without extrapolation (not allowed)

siesta: iscf   Eharris(eV)      E_KS(eV)   FreeEng(eV)   dDmax  Ef(eV)
siesta:    1     -185.5710     -185.5809     -185.6293  0.0216  0.6434
siesta:    2     -185.5720     -185.5706     -185.6199  0.0179  0.6570
siesta:    3     -185.5710     -185.5744     -185.6230  0.0031  0.6509
siesta:    4     -185.5710     -185.5695     -185.6187  0.0008  0.6550
siesta:    5     -185.5710     -185.5708     -185.6201  0.0016  0.6536
siesta:    6     -185.5710     -185.5708     -185.6201  0.0001  0.6540
siesta:    7     -185.5710     -185.5709     -185.6201  0.0001  0.6541

siesta: E_KS(eV) =             -185.5710

siesta: Atomic forces (eV/Ang):
----------------------------------------
   Tot   -0.000000    0.000000   -0.000358
----------------------------------------
   Max    0.052336
   Res    0.030113    sqrt( Sum f_i^2 / 3N )
----------------------------------------
   Max    0.052336    constrained

Stress-tensor-Voigt (kbar):       -0.04       -0.04       -0.97        0.00       -0.00        0.00
(Free)E + p*V (eV/cell)     -185.5871
Target enthalpy (eV/cell)     -185.6202
Cycling the Broyden process...

* Maximum dynamic memory allocated =     9 MB

siesta:                 ==============================
                            Begin CG move =     30
                        ==============================

outcell: Unit cell vectors (Ang):
        4.940717    0.000000    0.000000
        0.000000    4.940717    0.000000
        0.000000    0.000000    6.260717

outcell: Cell vector modules (Ang)   :    4.940717    4.940717    6.260717
outcell: Cell angles (23,13,12) (deg):     90.0000     90.0000     90.0000
outcell: Cell volume (Ang**3)        :    152.8284
New_DM. Step:    31
Re-using DM from previous geometry...
Re-using DM without extrapolation (not allowed)

siesta: iscf   Eharris(eV)      E_KS(eV)   FreeEng(eV)   dDmax  Ef(eV)
siesta:    1     -185.5712     -185.5679     -185.6171  0.0080  0.6520
siesta:    2     -185.5711     -185.5712     -185.6202  0.0068  0.6469
siesta:    3     -185.5711     -185.5700     -185.6192  0.0010  0.6491
siesta:    4     -185.5712     -185.5715     -185.6206  0.0002  0.6478
siesta:    5     -185.5712     -185.5713     -185.6204  0.0003  0.6480
siesta:    6     -185.5712     -185.5712     -185.6203  0.0000  0.6480

siesta: E_KS(eV) =             -185.5712

siesta: Atomic forces (eV/Ang):
----------------------------------------
   Tot    0.000000   -0.000000   -0.001494
----------------------------------------
   Max    0.014553
   Res    0.007982    sqrt( Sum f_i^2 / 3N )
----------------------------------------
   Max    0.014553    constrained

Stress-tensor-Voigt (kbar):       -0.05       -0.05        0.27        0.00       -0.00        0.00
(Free)E + p*V (eV/cell)     -185.6255
Target enthalpy (eV/cell)     -185.6202

* Maximum dynamic memory allocated =     9 MB

outcoor: Relaxed atomic coordinates (Ang):                  
   -0.00000000   -0.00000000   -0.25579428   1       1  O-Fraction-0.50000
   -0.00000000    0.00000000    1.53140270   1       2  O-Fraction-0.50000

siesta: Program's energy decomposition (eV):
siesta: Ebs     =       -59.844373
siesta: Eions   =       388.219918
siesta: Ena     =       180.242268
siesta: Ekin    =       104.213066
siesta: Enl     =        18.731955
siesta: DEna    =       -47.504761
siesta: DUscf   =         4.658681
siesta: DUext   =         0.000000
siesta: Exc     =       -57.692485
siesta: eta*DQ  =         0.000000
siesta: Emadel  =         0.000000
siesta: Emeta   =         0.000000
siesta: Emolmec =         0.000000
siesta: Ekinion =         0.000000
siesta: Eharris =      -185.571158
siesta: Etot    =      -185.571193
siesta: FreeEng =      -185.620243

siesta: Final energy (eV):
siesta:  Band Struct. =     -59.844373
siesta:       Kinetic =     104.213066
siesta:       Hartree =      91.762031
siesta:    Ext. field =       0.000000
siesta:   Exch.-corr. =     -57.692485
siesta:  Ion-electron =    -272.159260
siesta:       Ion-ion =     -51.694545
siesta:       Ekinion =       0.000000
siesta:         Total =    -185.571193

siesta: Stress tensor (static) (eV/Ang**3):
siesta:    -0.000032    0.000000   -0.000000
siesta:     0.000000   -0.000032   -0.000000
siesta:     0.000000   -0.000000    0.000168

siesta: Cell volume =        152.828404 Ang**3

siesta: Pressure (static):
siesta:                Solid            Molecule  Units
siesta:          -0.00000038          0.00000021  Ry/Bohr**3
siesta:          -0.00003453          0.00001929  eV/Ang**3
siesta:          -0.05532506          0.03089848  kBar
(Free)E+ p_basis*V_orbitals  =        -185.188610
(Free)Eharris+ p_basis*V_orbitals  =        -185.188560

siesta: Total spin polarization (Qup-Qdown) =    1.999996

siesta: Electric dipole (a.u.)  =   -0.000000    0.000000   -0.000001
siesta: Electric dipole (Debye) =   -0.000000    0.000000   -0.000001

* Maximum dynamic memory allocated : Node    0 =     9 MB
* Maximum dynamic memory allocated : Node    1 =     7 MB

* Maximum memory occured during redistribXZ                   

timer: CPU execution times:
timer:  Routine       Calls   Time/call    Tot.time        %
timer:  siesta            1     132.336     132.336   100.00
timer:  Setup             1       0.378       0.378     0.29
timer:  bands             1       0.000       0.000     0.00
timer:  writewave         1       0.002       0.002     0.00
timer:  KSV_init          1       0.000       0.000     0.00
timer:  IterMD           31       4.256     131.944    99.70
timer:  hsparse          31       0.001       0.019     0.01
timer:  overlap          31       0.019       0.604     0.46
timer:  IterSCF         247       0.435     107.518    81.25
timer:  kinefsm          62       0.010       0.608     0.46
timer:  nlefsm           62       0.033       2.060     1.56
timer:  DHSCF           278       0.444     123.530    93.35
timer:  DHSCF1            1       0.081       0.081     0.06
timer:  DHSCF2           31       0.376      11.665     8.81
timer:  REORD          3120       0.000       1.436     1.08
timer:  POISON          309       0.064      19.822    14.98
timer:  DHSCF3          278       0.367     101.918    77.01
timer:  rhoofd          278       0.075      20.740    15.67
timer:  cellXC          278       0.116      32.270    24.38
timer:  vmat            278       0.063      17.394    13.14
timer:  MolMec           62       0.000       0.001     0.00
timer:  diagon          247       0.005       1.230     0.93
timer:  r-eigvec        247       0.007       1.815     1.37
timer:  r-buildHS       247       0.003       0.635     0.48
timer:  rdiag           494       0.002       1.172     0.89
timer:  rdiag1          494       0.000       0.115     0.09
timer:  rdiag2          494       0.000       0.108     0.08
timer:  rdiag3          494       0.002       0.817     0.62
timer:  rdiag4          494       0.000       0.071     0.05
timer:  r-buildD        247       0.000       0.010     0.01
timer:  DHSCF4           31       0.290       8.988     6.79
timer:  dfscf            31       0.261       8.082     6.11
timer:  overfsm          31       0.001       0.038     0.03
timer:  optical           1       0.000       0.000     0.00
  

elaps: ELAPSED times:
elaps:  Routine       Calls   Time/call    Tot.time        %
elaps:  siesta            1      67.597      67.597   100.00
elaps:  Setup             1       0.194       0.194     0.29
elaps:  bands             1       0.000       0.000     0.00
elaps:  writewave         1       0.001       0.001     0.00
elaps:  KSV_init          1       0.000       0.000     0.00
elaps:  IterMD           31       2.174      67.396    99.70
elaps:  hsparse          31       0.000       0.005     0.01
elaps:  overlap          31       0.010       0.313     0.46
elaps:  IterSCF         247       0.223      54.970    81.32
elaps:  kinefsm          62       0.005       0.312     0.46
elaps:  nlefsm           62       0.017       1.055     1.56
elaps:  DHSCF           278       0.232      64.458    95.35
elaps:  DHSCF1            1       0.041       0.041     0.06
elaps:  DHSCF2           31       0.191       5.933     8.78
elaps:  REORD          3120       0.000       0.689     1.02
elaps:  POISON          309       0.033      10.192    15.08
elaps:  DHSCF3          278       0.187      52.064    77.02
elaps:  rhoofd          278       0.054      14.910    22.06
elaps:  cellXC          278       0.059      16.393    24.25
elaps:  vmat            278       0.032       8.818    13.04
elaps:  MolMec           62       0.000       0.000     0.00
elaps:  diagon          247       0.003       0.621     0.92
elaps:  r-eigvec        247       0.004       0.908     1.34
elaps:  r-buildHS       247       0.001       0.317     0.47
elaps:  rdiag           494       0.001       0.586     0.87
elaps:  rdiag1          494       0.000       0.055     0.08
elaps:  rdiag2          494       0.000       0.052     0.08
elaps:  rdiag3          494       0.001       0.416     0.62
elaps:  rdiag4          494       0.000       0.038     0.06
elaps:  r-buildD        247       0.000       0.003     0.00
elaps:  DHSCF4           31       0.192       5.966     8.83
elaps:  dfscf            31       0.173       5.354     7.92
elaps:  overfsm          31       0.001       0.016     0.02
elaps:  optical           1       0.000       0.000     0.00
  
>> End of run:  30-JUN-2010  11:55:58
