Siesta Version: siesta@uam.es--2006/siesta-devel--reference--2.1--patch-28
Architecture  : i686-pc-linux-gnu--Intel
Compiler flags: ifort -O2 -mp
SERIAL version

* Running in serial mode
>> Start of run:  17-DEC-2006  20:12:10

                           ***********************       
                           *  WELCOME TO SIESTA  *       
                           ***********************       

reinit: Reading from standard input
************************** Dump of input data file ****************************
SystemName          Oxypartial
SystemLabel         oxypartial
NumberOfAtoms       2
NumberOfSpecies     1
MeshCutoff 200 Ry
%block ChemicalSpeciesLabel
 1  201  OZero.nrl-0.50000      # Species index, atomic number, species label
%endblock ChemicalSpeciesLabel
%block SyntheticAtoms
 1
 2 2 3 4
 1.0 2.0 0.0 0.0
%endblock SyntheticAtoms
%block PAO.basis
OZero.nrl-0.50000  2                 # Species label, number of l-shells
 n=2   0   2                         # n, l, Nzeta
 0.0 0.0
   1.000      1.000
 n=2   1   2 P   1                   # n, l, Nzeta, Polarization, NzetaPol
   4.139      2.740
   1.000      1.000
%endblock PAO.Basis
DM.NumberPulay 4
Spin.Polarized T
AtomicCoordinatesFormat  Ang
%block AtomicCoordinatesAndAtomicSpecies
 0.000  0.000  0.000  1
 0.000  0.000  1.200  1
%endblock AtomicCoordinatesAndAtomicSpecies
MD.TypeOfRun Broyden
MD.NumCGSteps 40
************************** End of input data file *****************************

reinit: -----------------------------------------------------------------------
reinit: System Name: Oxypartial                                                 
reinit: -----------------------------------------------------------------------
reinit: System Label: oxypartial                                                  
reinit: -----------------------------------------------------------------------

initatom: Reading input for the pseudopotentials and atomic orbitals ----------
 Species number:            1  Label: OZero.nrl-0.50000 Atomic number:
         201
Reading pseudopotential information in formatted form from OZero.nrl-0.50000.psf

Valence configuration for pseudopotential generation:
Dumping pseudopotential information in formatted form in SX.psdump
Ground state valence configuration (synthetic):   2s 1.00000  2p 2.00000
Number of synthetic species:  1
For OZero.nrl-0.50000, standard SIESTA heuristics set lmxkb to 3
 (one more than the basis l, including polarization orbitals).
Use PS.lmax or PS.KBprojectors blocks to override.

<basis_specs>
===============================================================================
OZero.nrl-0.50000    Z= 201    Mass= -1.0000        Charge= 0.17977+309
Lmxo=1 Lmxkb=3     BasisType=split      Semic=F
L=0  Nsemic=0  Cnfigmx=2
          n=1  nzeta=2  polorb=0
            splnorm:   0.15000    
               vcte:    0.0000    
               rinn:    0.0000    
                rcs:    0.0000      0.0000    
            lambdas:    1.0000      1.0000    
L=1  Nsemic=0  Cnfigmx=2
          n=1  nzeta=2  polorb=1
            splnorm:   0.15000    
               vcte:    0.0000    
               rinn:    0.0000    
                rcs:    4.1390      2.7400    
            lambdas:    1.0000      1.0000    
-------------------------------------------------------------------------------
L=0  Nkbl=1  erefs: 0.17977+309
L=1  Nkbl=1  erefs: 0.17977+309
L=2  Nkbl=1  erefs: 0.17977+309
L=3  Nkbl=1  erefs: 0.17977+309
===============================================================================
</basis_specs>

atom: Called for (synthetic) OZero.nrl-0.50000     (Z = 201)

read_vps: Pseudopotential generation method:
read_vps: MIXPS     19-FEB-98  ---      ZEROPSEUDO 4down-0up
Total valence charge:    3.00000

xc_check: Exchange-correlation functional:
xc_check: Ceperley-Alder
V l=0 = -2*Zval/r beyond r=  1.1278
V l=1 = -2*Zval/r beyond r=  1.1278
V l=2 = -2*Zval/r beyond r=  1.1278
V l=3 = -2*Zval/r beyond r=  1.1138
All V_l potentials equal beyond r=  1.1278
This should be close to max(r_c) in ps generation
All pots = -2*Zval/r beyond r=  1.1278

VLOCAL1: 99.0% of the norm of Vloc inside     34.126 Ry
VLOCAL1: 99.9% of the norm of Vloc inside     77.774 Ry
atom: Maximum radius for 4*pi*r*r*local-pseudopot. charge    1.36047
atom: Maximum radius for r*vlocal+2*Zval:    1.15638
GHOST: No ghost state for L =  0
GHOST: No ghost state for L =  1
GHOST: No ghost state for L =  2
GHOST: No ghost state for L =  3

KBgen: Kleinman-Bylander projectors: 
   l= 0   rc=  1.294105   el= -0.693307   Ekb=  4.664913   kbcos=  0.254299
   l= 1   rc=  1.343567   el=  0.001447   Ekb= -4.466139   kbcos= -0.030125
   l= 2   rc=  1.466454   el=  0.002386   Ekb= -1.010968   kbcos= -0.001863
   l= 3   rc=  1.561052   el=  0.003508   Ekb= -0.392253   kbcos= -0.000249

KBgen: Total number of  Kleinman-Bylander projectors:   16
atom: -------------------------------------------------------------------------

atom: SANKEY-TYPE ORBITALS:
atom: Selected multiple-zeta basis: split     

SPLIT: Orbitals with angular momentum L= 0

SPLIT: Basis orbitals for state 2s

SPLIT: PAO cut-off radius determined from an
SPLIT: energy shift=  0.020000 Ry

   izeta = 1
                 lambda =    1.000000
                     rc =    4.243912
                 energy =   -0.673179
                kinetic =    0.971847
    potential(screened) =   -1.645026
       potential(ionic) =   -4.821659

   izeta = 2
                 rmatch =    3.388770
              splitnorm =    0.150000
                 energy =   -0.526416
                kinetic =    1.507134
    potential(screened) =   -2.033550
       potential(ionic) =   -5.533769

SPLIT: Orbitals with angular momentum L= 1

SPLIT: Basis orbitals for state 2p

   izeta = 1
                 lambda =    1.000000
                     rc =    4.139122
                 energy =    0.491454
                kinetic =    1.445506
    potential(screened) =   -0.954052
       potential(ionic) =   -3.434023

   izeta = 2
                 rmatch =    2.774434
              splitnorm =    0.627770
                 energy =    1.483725
                kinetic =    3.945497
    potential(screened) =   -2.461771
       potential(ionic) =   -5.835431

POLgen: Perturbative polarization orbital with L=  2

POLgen: Polarization orbital for state 2p

   izeta = 1
                     rc =    4.139122
                 energy =    1.585617
                kinetic =    2.166931
    potential(screened) =   -0.581314
       potential(ionic) =   -2.778294
atom: Total number of Sankey-type orbitals: 13

atm_pop: Valence configuration (for local Pseudopot. screening):
 2s( 1.00)                                                            
 2p( 2.00)                                                            
Vna: chval, zval:    3.00000   3.00000

Vna:  Cut-off radius for the neutral-atom potential:   4.243912

atom: _________________________________________________________________________

prinput: Basis input ----------------------------------------------------------

PAO.BasisType split     

%block ChemicalSpeciesLabel
    1  201 OZero.nrl-0.50000       # Species index, atomic number, species label
%endblock ChemicalSpeciesLabel

%block SyntheticAtoms   # Valence config
  1
  2  2  3  4
  1.00000  2.00000  0.00000  0.00000
%endblock SyntheticAtoms

%block PAO.Basis                 # Define Basis set
OZero.nrl-0.50000     2                    # Species label, number of l-shells
 n=2   0   2                         # n, l, Nzeta 
   4.244      3.389   
   1.000      1.000   
 n=2   1   2 P   1                   # n, l, Nzeta, Polarization, NzetaPol
   4.139      2.774   
   1.000      1.000   
%endblock PAO.Basis

prinput: ----------------------------------------------------------------------


siesta: ******************** Simulation parameters ****************************
siesta:
siesta: The following are some of the parameters of the simulation.
siesta: A complete list of the parameters used, including default values,
siesta: can be found in file out.fdf
siesta:
coor:   Atomic-coordinates input format  =     Cartesian coordinates
coor:                                          (in Angstroms)
redata: Number of spin components        =     2
redata: Long output                      =     F
redata: Number of Atomic Species         =     1
redata: Charge density info will appear in .RHO file
redata: Write Mulliken Pop.              =     NO
redata: Mesh Cutoff                      =   200.0000  Ry
redata: Net charge of the system         =     0.0000 |e|
redata: Max. number of SCF Iter          =    50
redata: Performing Pulay mixing using    =     4 iterations
redata: Mix DM in first SCF step ?       =     F
redata: Write Pulay info on disk?        =     F
redata: New DM Mixing Weight             =     0.2500
redata: New DM Occupancy tolerance       = 0.000000000001
redata: No kicks to SCF
redata: DM Mixing Weight for Kicks       =     0.5000
redata: DM Tolerance for SCF             =     0.000100
redata: Require Energy convergence for SCF =     F
redata: DM Energy tolerance for SCF      =     0.000100 eV
redata: Antiferro initial spin density   =     F
redata: Using Saved Data (generic)   =     F
redata: Use continuation files for DM    =     F
redata: Neglect nonoverlap interactions  =     F
redata: Method of Calculation            =     Diagonalization
redata: Divide and Conquer               =     T
redata: Electronic Temperature           =     0.0019  Ry
redata: Fix the spin of the system       =     F
redata: Dynamics option                  =     Broyden coord. optimization
redata: Variable cell                    =     F
redata: Maximum number of CG moves       =    40
redata: Force tolerance                  =     0.0016  Ry/Bohr
redata: ***********************************************************************

siesta: Atomic coordinates (Bohr) and species
siesta:      0.00000   0.00000   0.00000  1        1
siesta:      0.00000   0.00000   2.26767  1        2

initatomlists: Number of atoms, orbitals, and projectors:      2    26    32
Total number of electrons:     6.000000
Total ionic charge:     6.000000

siesta: Automatic unit cell vectors (Ang):
siesta:    4.940717    0.000000    0.000000
siesta:    0.000000    4.940717    0.000000
siesta:    0.000000    0.000000    6.260717

siesta: System type = molecule  

siesta: k-grid: Number of k-points =     1
siesta: k-grid: Cutoff (effective) =     2.470 Ang
siesta: k-grid: Supercell and displacements
siesta: k-grid:    0   1   0      0.000
siesta: k-grid:    1   0   0      0.000
siesta: k-grid:    0   0   1      0.000

* Maximum dynamic memory allocated =     1 MB

siesta:                 ==============================
                            Begin CG move =      0
                        ==============================

outcell: Unit cell vectors (Ang):
        4.940717    0.000000    0.000000
        0.000000    4.940717    0.000000
        0.000000    0.000000    6.260717

outcell: Cell vector modules (Ang)   :    4.940717    4.940717    6.260717
outcell: Cell angles (23,13,12) (deg):     90.0000     90.0000     90.0000
outcell: Cell volume (Ang**3)        :    152.8284

InitMesh: MESH =    48 x    48 x    54 =      124416
InitMesh: Mesh cutoff (required, used) =   200.000   205.608 Ry

* Maximum dynamic memory allocated =    11 MB

stepf: Fermi-Dirac step function

siesta: Program's energy decomposition (eV):
siesta: Eions   =       388.219918
siesta: Ena     =       177.988389
siesta: Ekin    =       105.068031
siesta: Enl     =         7.661400
siesta: DEna    =         0.000010
siesta: DUscf   =         0.000000
siesta: DUext   =         0.000000
siesta: Exc     =       -58.957041
siesta: eta*DQ  =         0.000000
siesta: Emadel  =         0.000000
siesta: Emeta   =         0.000000
siesta: Emolmec =         0.000000
siesta: Ekinion =         0.000000
siesta: Eharris =      -176.604228
siesta: Etot    =      -156.459129
siesta: FreeEng =      -156.459129

siesta: iscf   Eharris(eV)      E_KS(eV)   FreeEng(eV)   dDmax  Ef(eV)
siesta:    1     -176.6042     -156.4591     -156.4591  0.7393 -5.8452
timer: Routine,Calls,Time,% = IterSCF        1       2.840  78.47
elaps: Routine,Calls,Wall,% = IterSCF        1       2.843  77.69
siesta:    2     -184.4812     -181.9725     -181.9725  0.3029  1.5156
siesta:    3     -183.6642     -178.5209     -178.5209  0.1176 -0.0604
siesta:    4     -183.7371     -181.9564     -181.9564  0.0606 -0.0357
siesta:    5     -183.7515     -183.5614     -183.5614  0.0131 -0.2120
siesta:    6     -183.7495     -183.7244     -183.7244  0.0027 -0.1010
siesta:    7     -183.7495     -183.7551     -183.7551  0.0011 -0.0908
siesta:    8     -183.7495     -183.7618     -183.7618  0.0004 -0.0944
siesta:    9     -183.7495     -183.7549     -183.7549  0.0002 -0.0955
siesta:   10     -183.7495     -183.7487     -183.7487  0.0001 -0.0967
siesta:   11     -183.7495     -183.7498     -183.7498  0.0000 -0.0974

siesta: E_KS(eV) =             -183.7497

siesta: E_KS - E_eggbox =      -183.7497

siesta: Atomic forces (eV/Ang):
----------------------------------------
   Tot    0.000000    0.000000    0.012326
----------------------------------------
   Max   14.370656
   Res    8.293345    sqrt( Sum f_i^2 / 3N )
----------------------------------------
   Max   14.370656    constrained

Stress-tensor-Voigt (kbar):       -0.11       -0.11     -180.66        0.00        0.00        0.00
Target enthalpy (eV/cell)     -183.7497
 
Broyden_optim: max_history for broyden:   5
Broyden_optim: cycle on maxit: T
Broyden_optim: initial inverse jacobian:   1.0000
 
Broyden_optim: No of elements:      6

* Maximum dynamic memory allocated =    11 MB

siesta:                 ==============================
                            Begin CG move =      1
                        ==============================

outcell: Unit cell vectors (Ang):
        4.940717    0.000000    0.000000
        0.000000    4.940717    0.000000
        0.000000    0.000000    6.260717

outcell: Cell vector modules (Ang)   :    4.940717    4.940717    6.260717
outcell: Cell angles (23,13,12) (deg):     90.0000     90.0000     90.0000
outcell: Cell volume (Ang**3)        :    152.8284

siesta: iscf   Eharris(eV)      E_KS(eV)   FreeEng(eV)   dDmax  Ef(eV)
siesta:    1     -185.8724     -187.5543     -187.5543  0.2969  1.0346
siesta:    2     -185.7439     -185.4280     -185.4286  0.2590  0.6649
siesta:    3     -185.5771     -186.4227     -186.4605  0.1273  0.7770
siesta:    4     -185.6024     -185.5813     -185.6121  0.1752  0.6104
siesta:    5     -185.5706     -185.5517     -185.5965  0.0421  0.5908
siesta:    6     -185.5714     -185.5634     -185.6126  0.0544  0.6154
siesta:    7     -185.5730     -185.5701     -185.6194  0.0061  0.6300
siesta:    8     -185.5719     -185.5885     -185.6372  0.0314  0.6428
siesta:    9     -185.5724     -185.5873     -185.6367  0.0126  0.6447
siesta:   10     -185.5727     -185.5833     -185.6326  0.0075  0.6510
siesta:   11     -185.5728     -185.5751     -185.6244  0.0039  0.6557
siesta:   12     -185.5728     -185.5692     -185.6186  0.0017  0.6610
siesta:   13     -185.5728     -185.5711     -185.6205  0.0014  0.6689
siesta:   14     -185.5728     -185.5726     -185.6219  0.0003  0.6666
siesta:   15     -185.5728     -185.5727     -185.6221  0.0001  0.6671

siesta: E_KS(eV) =             -185.5729

siesta: Atomic forces (eV/Ang):
----------------------------------------
   Tot    0.000000    0.000000   -0.092707
----------------------------------------
   Max    0.250548
   Res    0.120891    sqrt( Sum f_i^2 / 3N )
----------------------------------------
   Max    0.250548    constrained

Stress-tensor-Voigt (kbar):        0.01        0.01       -3.47        0.00        0.00        0.00
Target enthalpy (eV/cell)     -185.6222

* Maximum dynamic memory allocated =    11 MB

siesta:                 ==============================
                            Begin CG move =      2
                        ==============================

outcell: Unit cell vectors (Ang):
        4.940717    0.000000    0.000000
        0.000000    4.940717    0.000000
        0.000000    0.000000    6.260717

outcell: Cell vector modules (Ang)   :    4.940717    4.940717    6.260717
outcell: Cell angles (23,13,12) (deg):     90.0000     90.0000     90.0000
outcell: Cell volume (Ang**3)        :    152.8284

siesta: iscf   Eharris(eV)      E_KS(eV)   FreeEng(eV)   dDmax  Ef(eV)
siesta:    1     -185.5783     -185.5895     -185.6389  0.0371  0.6812
siesta:    2     -185.5772     -185.5771     -185.6244  0.0286  0.7083
siesta:    3     -185.5769     -185.5814     -185.6306  0.0056  0.6963
siesta:    4     -185.5771     -185.5753     -185.6236  0.0029  0.7046
siesta:    5     -185.5773     -185.5769     -185.6251  0.0032  0.7014
siesta:    6     -185.5772     -185.5770     -185.6249  0.0004  0.7022
siesta:    7     -185.5772     -185.5771     -185.6251  0.0001  0.7024

siesta: E_KS(eV) =             -185.5772

siesta: Atomic forces (eV/Ang):
----------------------------------------
   Tot    0.000000    0.000000   -0.114008
----------------------------------------
   Max    0.564890
   Res    0.295070    sqrt( Sum f_i^2 / 3N )
----------------------------------------
   Max    0.564890    constrained

Stress-tensor-Voigt (kbar):        0.01        0.01       -9.30        0.00        0.00        0.00
Target enthalpy (eV/cell)     -185.6252

* Maximum dynamic memory allocated =    11 MB

siesta:                 ==============================
                            Begin CG move =      3
                        ==============================

outcell: Unit cell vectors (Ang):
        4.940717    0.000000    0.000000
        0.000000    4.940717    0.000000
        0.000000    0.000000    6.260717

outcell: Cell vector modules (Ang)   :    4.940717    4.940717    6.260717
outcell: Cell angles (23,13,12) (deg):     90.0000     90.0000     90.0000
outcell: Cell volume (Ang**3)        :    152.8284

siesta: iscf   Eharris(eV)      E_KS(eV)   FreeEng(eV)   dDmax  Ef(eV)
siesta:    1     -185.6835     -185.4490     -185.4970  0.2058  0.6151
siesta:    2     -185.6843     -185.6604     -185.6657  0.0207  0.5420
siesta:    3     -185.6805     -185.6554     -185.6683  0.0155  0.5340
siesta:    4     -185.6861     -185.6888     -185.6988  0.0023  0.5285
siesta:    5     -185.6856     -185.6838     -185.6880  0.0016  0.5436
siesta:    6     -185.6856     -185.6858     -185.6903  0.0008  0.5438
siesta:    7     -185.6856     -185.6859     -185.6904  0.0005  0.5438
siesta:    8     -185.6856     -185.6856     -185.6901  0.0001  0.5427

siesta: E_KS(eV) =             -185.6856

siesta: Atomic forces (eV/Ang):
----------------------------------------
   Tot    0.000000    0.000000    0.028578
----------------------------------------
   Max    1.597343
   Res    0.914014    sqrt( Sum f_i^2 / 3N )
----------------------------------------
   Max    1.597343    constrained

Stress-tensor-Voigt (kbar):       -0.27       -0.27       28.50        0.00        0.00        0.00
Target enthalpy (eV/cell)     -185.6901

* Maximum dynamic memory allocated =    11 MB

siesta:                 ==============================
                            Begin CG move =      4
                        ==============================

outcell: Unit cell vectors (Ang):
        4.940717    0.000000    0.000000
        0.000000    4.940717    0.000000
        0.000000    0.000000    6.260717

outcell: Cell vector modules (Ang)   :    4.940717    4.940717    6.260717
outcell: Cell angles (23,13,12) (deg):     90.0000     90.0000     90.0000
outcell: Cell volume (Ang**3)        :    152.8284

siesta: iscf   Eharris(eV)      E_KS(eV)   FreeEng(eV)   dDmax  Ef(eV)
siesta:    1     -185.7116     -185.6403     -185.6447  0.0048  0.5231
siesta:    2     -185.7119     -185.7116     -185.7136  0.0011  0.5369
siesta:    3     -185.7118     -185.7087     -185.7104  0.0007  0.5359
siesta:    4     -185.7118     -185.7121     -185.7139  0.0000  0.5355

siesta: E_KS(eV) =             -185.7120

siesta: Atomic forces (eV/Ang):
----------------------------------------
   Tot    0.000000    0.000000    0.008344
----------------------------------------
   Max    1.491671
   Res    0.858812    sqrt( Sum f_i^2 / 3N )
----------------------------------------
   Max    1.491671    constrained

Stress-tensor-Voigt (kbar):       -0.28       -0.28       26.44        0.00        0.00        0.00
Target enthalpy (eV/cell)     -185.7138

* Maximum dynamic memory allocated =    11 MB

siesta:                 ==============================
                            Begin CG move =      5
                        ==============================

outcell: Unit cell vectors (Ang):
        4.940717    0.000000    0.000000
        0.000000    4.940717    0.000000
        0.000000    0.000000    6.260717

outcell: Cell vector modules (Ang)   :    4.940717    4.940717    6.260717
outcell: Cell angles (23,13,12) (deg):     90.0000     90.0000     90.0000
outcell: Cell volume (Ang**3)        :    152.8284

siesta: iscf   Eharris(eV)      E_KS(eV)   FreeEng(eV)   dDmax  Ef(eV)
siesta:    1     -185.6751     -185.7760     -185.7778  0.0067  0.5625
siesta:    2     -185.6741     -185.6750     -185.6803  0.0015  0.5432
siesta:    3     -185.6741     -185.6765     -185.6828  0.0010  0.5441
siesta:    4     -185.6741     -185.6730     -185.6792  0.0001  0.5452

siesta: E_KS(eV) =             -185.6731

siesta: Atomic forces (eV/Ang):
----------------------------------------
   Tot    0.000000    0.000000    0.034976
----------------------------------------
   Max    1.624681
   Res    0.927968    sqrt( Sum f_i^2 / 3N )
----------------------------------------
   Max    1.624681    constrained

Stress-tensor-Voigt (kbar):       -0.25       -0.25       29.21        0.00        0.00        0.00
Target enthalpy (eV/cell)     -185.6793

* Maximum dynamic memory allocated =    11 MB

siesta:                 ==============================
                            Begin CG move =      6
                        ==============================

outcell: Unit cell vectors (Ang):
        4.940717    0.000000    0.000000
        0.000000    4.940717    0.000000
        0.000000    0.000000    6.260717

outcell: Cell vector modules (Ang)   :    4.940717    4.940717    6.260717
outcell: Cell angles (23,13,12) (deg):     90.0000     90.0000     90.0000
outcell: Cell volume (Ang**3)        :    152.8284

siesta: iscf   Eharris(eV)      E_KS(eV)   FreeEng(eV)   dDmax  Ef(eV)
siesta:    1     -185.6317     -185.7317     -185.7379  0.0144  0.5709
siesta:    2     -185.6296     -185.6321     -185.6478  0.0050  0.5546
siesta:    3     -185.6285     -185.5966     -185.6149  0.0017  0.5506
siesta:    4     -185.6282     -185.6197     -185.6393  0.0005  0.5573
siesta:    5     -185.6282     -185.6250     -185.6448  0.0003  0.5570
siesta:    6     -185.6282     -185.6278     -185.6476  0.0001  0.5568

siesta: E_KS(eV) =             -185.6281

siesta: Atomic forces (eV/Ang):
----------------------------------------
   Tot    0.000000    0.000000    0.032233
----------------------------------------
   Max    1.483302
   Res    0.847131    sqrt( Sum f_i^2 / 3N )
----------------------------------------
   Max    1.483302    constrained

Stress-tensor-Voigt (kbar):       -0.19       -0.19       27.04        0.00        0.00        0.00
Target enthalpy (eV/cell)     -185.6480
Cycling the Broyden process...

* Maximum dynamic memory allocated =    11 MB

siesta:                 ==============================
                            Begin CG move =      7
                        ==============================

outcell: Unit cell vectors (Ang):
        4.940717    0.000000    0.000000
        0.000000    4.940717    0.000000
        0.000000    0.000000    6.260717

outcell: Cell vector modules (Ang)   :    4.940717    4.940717    6.260717
outcell: Cell angles (23,13,12) (deg):     90.0000     90.0000     90.0000
outcell: Cell volume (Ang**3)        :    152.8284

siesta: iscf   Eharris(eV)      E_KS(eV)   FreeEng(eV)   dDmax  Ef(eV)
siesta:    1     -185.5965     -185.8716     -185.8914  0.2423  0.7328
siesta:    2     -185.6315     -185.6043     -185.6406  0.0188  0.8424
siesta:    3     -185.6294     -185.6137     -185.6518  0.0141  0.8507
siesta:    4     -185.6296     -185.6195     -185.6565  0.0045  0.8771
siesta:    5     -185.6296     -185.6315     -185.6676  0.0047  0.8628
siesta:    6     -185.6295     -185.6300     -185.6661  0.0014  0.8620
siesta:    7     -185.6295     -185.6291     -185.6652  0.0004  0.8633
siesta:    8     -185.6295     -185.6295     -185.6656  0.0000  0.8646

siesta: E_KS(eV) =             -185.6295

siesta: Atomic forces (eV/Ang):
----------------------------------------
   Tot    0.000000    0.000000   -0.000082
----------------------------------------
   Max    0.823709
   Res    0.475545    sqrt( Sum f_i^2 / 3N )
----------------------------------------
   Max    0.823709    constrained

Stress-tensor-Voigt (kbar):       -0.01       -0.01      -15.90        0.00        0.00        0.00
Target enthalpy (eV/cell)     -185.6657
Cycling the Broyden process...

* Maximum dynamic memory allocated =    11 MB

siesta:                 ==============================
                            Begin CG move =      8
                        ==============================

outcell: Unit cell vectors (Ang):
        4.940717    0.000000    0.000000
        0.000000    4.940717    0.000000
        0.000000    0.000000    6.260717

outcell: Cell vector modules (Ang)   :    4.940717    4.940717    6.260717
outcell: Cell angles (23,13,12) (deg):     90.0000     90.0000     90.0000
outcell: Cell volume (Ang**3)        :    152.8284

siesta: iscf   Eharris(eV)      E_KS(eV)   FreeEng(eV)   dDmax  Ef(eV)
siesta:    1     -185.7273     -185.4290     -185.4651  0.2710  0.6452
siesta:    2     -185.7365     -185.6989     -185.6998  0.0274  0.5149
siesta:    3     -185.7326     -185.7044     -185.7076  0.0207  0.5114
siesta:    4     -185.7327     -185.7306     -185.7327  0.0026  0.5145
siesta:    5     -185.7323     -185.7294     -185.7302  0.0014  0.5265
siesta:    6     -185.7323     -185.7314     -185.7322  0.0010  0.5292
siesta:    7     -185.7323     -185.7322     -185.7329  0.0006  0.5300
siesta:    8     -185.7323     -185.7322     -185.7330  0.0000  0.5287

siesta: E_KS(eV) =             -185.7323

siesta: Atomic forces (eV/Ang):
----------------------------------------
   Tot    0.000000    0.000000   -0.013924
----------------------------------------
   Max    1.384451
   Res    0.795304    sqrt( Sum f_i^2 / 3N )
----------------------------------------
   Max    1.384451    constrained

Stress-tensor-Voigt (kbar):       -0.25       -0.25       24.35        0.00        0.00        0.00
Target enthalpy (eV/cell)     -185.7331
Cycling the Broyden process...

* Maximum dynamic memory allocated =    11 MB

siesta:                 ==============================
                            Begin CG move =      9
                        ==============================

outcell: Unit cell vectors (Ang):
        4.940717    0.000000    0.000000
        0.000000    4.940717    0.000000
        0.000000    0.000000    6.260717

outcell: Cell vector modules (Ang)   :    4.940717    4.940717    6.260717
outcell: Cell angles (23,13,12) (deg):     90.0000     90.0000     90.0000
outcell: Cell volume (Ang**3)        :    152.8284

siesta: iscf   Eharris(eV)      E_KS(eV)   FreeEng(eV)   dDmax  Ef(eV)
siesta:    1     -185.5847     -186.3675     -186.3683  0.2787  0.9737
siesta:    2     -185.6747     -185.6550     -185.6908  0.0156  1.0724
siesta:    3     -185.6743     -185.6575     -185.6934  0.0115  1.0799
siesta:    4     -185.6743     -185.6727     -185.7085  0.0012  1.0931
siesta:    5     -185.6742     -185.6741     -185.7100  0.0007  1.0879
siesta:    6     -185.6742     -185.6743     -185.7101  0.0004  1.0866
siesta:    7     -185.6742     -185.6743     -185.7101  0.0001  1.0867
siesta:    8     -185.6742     -185.6743     -185.7101  0.0000  1.0873

siesta: E_KS(eV) =             -185.6743

siesta: Atomic forces (eV/Ang):
----------------------------------------
   Tot    0.000000    0.000000    0.124464
----------------------------------------
   Max    0.244915
   Res    0.111424    sqrt( Sum f_i^2 / 3N )
----------------------------------------
   Max    0.244915    constrained

Stress-tensor-Voigt (kbar):       -0.02       -0.02        2.17        0.00        0.00        0.00
Target enthalpy (eV/cell)     -185.7101
Cycling the Broyden process...

* Maximum dynamic memory allocated =    11 MB

siesta:                 ==============================
                            Begin CG move =     10
                        ==============================

outcell: Unit cell vectors (Ang):
        4.940717    0.000000    0.000000
        0.000000    4.940717    0.000000
        0.000000    0.000000    6.260717

outcell: Cell vector modules (Ang)   :    4.940717    4.940717    6.260717
outcell: Cell angles (23,13,12) (deg):     90.0000     90.0000     90.0000
outcell: Cell volume (Ang**3)        :    152.8284

siesta: iscf   Eharris(eV)      E_KS(eV)   FreeEng(eV)   dDmax  Ef(eV)
siesta:    1     -185.6644     -185.3700     -185.4059  0.2698  0.6680
siesta:    2     -185.6886     -185.6668     -185.6741  0.0247  0.5056
siesta:    3     -185.6889     -185.6682     -185.6774  0.0189  0.5129
siesta:    4     -185.6933     -185.6963     -185.7036  0.0027  0.5335
siesta:    5     -185.6932     -185.6927     -185.6961  0.0017  0.5405
siesta:    6     -185.6931     -185.6931     -185.6966  0.0009  0.5417
siesta:    7     -185.6932     -185.6933     -185.6968  0.0002  0.5418
siesta:    8     -185.6932     -185.6932     -185.6967  0.0000  0.5408

siesta: E_KS(eV) =             -185.6932

siesta: Atomic forces (eV/Ang):
----------------------------------------
   Tot    0.000000    0.000000    0.024677
----------------------------------------
   Max    1.578237
   Res    0.904100    sqrt( Sum f_i^2 / 3N )
----------------------------------------
   Max    1.578237    constrained

Stress-tensor-Voigt (kbar):       -0.28       -0.28       28.24        0.00        0.00        0.00
Target enthalpy (eV/cell)     -185.6966
Cycling the Broyden process...

* Maximum dynamic memory allocated =    11 MB

siesta:                 ==============================
                            Begin CG move =     11
                        ==============================

outcell: Unit cell vectors (Ang):
        4.940717    0.000000    0.000000
        0.000000    4.940717    0.000000
        0.000000    0.000000    6.260717

outcell: Cell vector modules (Ang)   :    4.940717    4.940717    6.260717
outcell: Cell angles (23,13,12) (deg):     90.0000     90.0000     90.0000
outcell: Cell volume (Ang**3)        :    152.8284

siesta: iscf   Eharris(eV)      E_KS(eV)   FreeEng(eV)   dDmax  Ef(eV)
siesta:    1     -185.5810     -186.1103     -186.1138  0.2701  0.8163
siesta:    2     -185.6523     -185.6235     -185.6594  0.0189  0.9171
siesta:    3     -185.6506     -185.6292     -185.6651  0.0141  0.9287
siesta:    4     -185.6497     -185.6462     -185.6821  0.0018  0.9493
siesta:    5     -185.6496     -185.6493     -185.6851  0.0009  0.9390
siesta:    6     -185.6496     -185.6493     -185.6852  0.0006  0.9386
siesta:    7     -185.6496     -185.6493     -185.6852  0.0002  0.9393
siesta:    8     -185.6496     -185.6495     -185.6854  0.0001  0.9401

siesta: E_KS(eV) =             -185.6496

siesta: Atomic forces (eV/Ang):
----------------------------------------
   Tot    0.000000    0.000000    0.132071
----------------------------------------
   Max    0.598584
   Res    0.309822    sqrt( Sum f_i^2 / 3N )
----------------------------------------
   Max    0.598584    constrained

Stress-tensor-Voigt (kbar):        0.03        0.03       -8.98        0.00        0.00        0.00
Target enthalpy (eV/cell)     -185.6855
Cycling the Broyden process...

* Maximum dynamic memory allocated =    11 MB

siesta:                 ==============================
                            Begin CG move =     12
                        ==============================

outcell: Unit cell vectors (Ang):
        4.940717    0.000000    0.000000
        0.000000    4.940717    0.000000
        0.000000    0.000000    6.260717

outcell: Cell vector modules (Ang)   :    4.940717    4.940717    6.260717
outcell: Cell angles (23,13,12) (deg):     90.0000     90.0000     90.0000
outcell: Cell volume (Ang**3)        :    152.8284

siesta: iscf   Eharris(eV)      E_KS(eV)   FreeEng(eV)   dDmax  Ef(eV)
siesta:    1     -185.7002     -185.4249     -185.4608  0.2716  0.6583
siesta:    2     -185.7136     -185.6826     -185.6851  0.0264  0.5151
siesta:    3     -185.7111     -185.6852     -185.6911  0.0201  0.5146
siesta:    4     -185.7133     -185.7136     -185.7179  0.0025  0.5234
siesta:    5     -185.7129     -185.7092     -185.7108  0.0023  0.5354
siesta:    6     -185.7129     -185.7122     -185.7139  0.0009  0.5367
siesta:    7     -185.7129     -185.7129     -185.7146  0.0005  0.5367
siesta:    8     -185.7129     -185.7129     -185.7146  0.0000  0.5352

siesta: E_KS(eV) =             -185.7129

siesta: Atomic forces (eV/Ang):
----------------------------------------
   Tot    0.000000    0.000000   -0.008987
----------------------------------------
   Max    1.513729
   Res    0.871361    sqrt( Sum f_i^2 / 3N )
----------------------------------------
   Max    1.513729    constrained

Stress-tensor-Voigt (kbar):       -0.22       -0.22       27.57        0.00        0.00        0.00
Target enthalpy (eV/cell)     -185.7146
Cycling the Broyden process...

* Maximum dynamic memory allocated =    11 MB

siesta:                 ==============================
                            Begin CG move =     13
                        ==============================

outcell: Unit cell vectors (Ang):
        4.940717    0.000000    0.000000
        0.000000    4.940717    0.000000
        0.000000    0.000000    6.260717

outcell: Cell vector modules (Ang)   :    4.940717    4.940717    6.260717
outcell: Cell angles (23,13,12) (deg):     90.0000     90.0000     90.0000
outcell: Cell volume (Ang**3)        :    152.8284

siesta: iscf   Eharris(eV)      E_KS(eV)   FreeEng(eV)   dDmax  Ef(eV)
siesta:    1     -185.5412     -186.0008     -186.0025  0.2046  0.6690
siesta:    2     -185.5847     -185.5620     -185.6104  0.0208  0.7057
siesta:    3     -185.5816     -185.5986     -185.6479  0.0366  0.7025
siesta:    4     -185.5878     -185.4809     -185.5279  0.0429  0.7510
siesta:    5     -185.5908     -185.5757     -185.6235  0.0291  0.7364
siesta:    6     -185.5899     -185.5865     -185.6293  0.0134  0.7421
siesta:    7     -185.5891     -185.5869     -185.6303  0.0006  0.7469
siesta:    8     -185.5891     -185.5891     -185.6331  0.0001  0.7488
siesta:    9     -185.5891     -185.5894     -185.6335  0.0001  0.7491
siesta:   10     -185.5892     -185.5896     -185.6336  0.0000  0.7495

siesta: E_KS(eV) =             -185.5895

siesta: Atomic forces (eV/Ang):
----------------------------------------
   Tot    0.000000    0.000000   -0.129244
----------------------------------------
   Max    0.866957
   Res    0.464728    sqrt( Sum f_i^2 / 3N )
----------------------------------------
   Max    0.866957    constrained

Stress-tensor-Voigt (kbar):       -0.02       -0.02      -14.98        0.00        0.00        0.00
Target enthalpy (eV/cell)     -185.6335
Cycling the Broyden process...

* Maximum dynamic memory allocated =    11 MB

siesta:                 ==============================
                            Begin CG move =     14
                        ==============================

outcell: Unit cell vectors (Ang):
        4.940717    0.000000    0.000000
        0.000000    4.940717    0.000000
        0.000000    0.000000    6.260717

outcell: Cell vector modules (Ang)   :    4.940717    4.940717    6.260717
outcell: Cell angles (23,13,12) (deg):     90.0000     90.0000     90.0000
outcell: Cell volume (Ang**3)        :    152.8284

siesta: iscf   Eharris(eV)      E_KS(eV)   FreeEng(eV)   dDmax  Ef(eV)
siesta:    1     -185.5747     -185.5568     -185.6008  0.0776  0.7177
siesta:    2     -185.5817     -185.5695     -185.6186  0.0607  0.6591
siesta:    3     -185.5734     -185.5668     -185.6131  0.0044  0.6812
siesta:    4     -185.5733     -185.5730     -185.6219  0.0140  0.6749
siesta:    5     -185.5732     -185.5734     -185.6228  0.0089  0.6732
siesta:    6     -185.5732     -185.5733     -185.6226  0.0042  0.6732
siesta:    7     -185.5732     -185.5734     -185.6227  0.0003  0.6720
siesta:    8     -185.5732     -185.5732     -185.6225  0.0000  0.6712

siesta: E_KS(eV) =             -185.5732

siesta: Atomic forces (eV/Ang):
----------------------------------------
   Tot    0.000000    0.000000   -0.092237
----------------------------------------
   Max    0.293227
   Res    0.145132    sqrt( Sum f_i^2 / 3N )
----------------------------------------
   Max    0.293227    constrained

Stress-tensor-Voigt (kbar):        0.01        0.01       -4.31        0.00        0.00        0.00
Target enthalpy (eV/cell)     -185.6225
Cycling the Broyden process...

* Maximum dynamic memory allocated =    11 MB

siesta:                 ==============================
                            Begin CG move =     15
                        ==============================

outcell: Unit cell vectors (Ang):
        4.940717    0.000000    0.000000
        0.000000    4.940717    0.000000
        0.000000    0.000000    6.260717

outcell: Cell vector modules (Ang)   :    4.940717    4.940717    6.260717
outcell: Cell angles (23,13,12) (deg):     90.0000     90.0000     90.0000
outcell: Cell volume (Ang**3)        :    152.8284

siesta: iscf   Eharris(eV)      E_KS(eV)   FreeEng(eV)   dDmax  Ef(eV)
siesta:    1     -185.6047     -185.6328     -185.6821  0.0793  0.7326
siesta:    2     -185.6010     -185.6015     -185.6399  0.0136  0.7907
siesta:    3     -185.6015     -185.6054     -185.6480  0.0061  0.7823
siesta:    4     -185.6025     -185.5986     -185.6395  0.0048  0.7964
siesta:    5     -185.6029     -185.6017     -185.6418  0.0023  0.7907
siesta:    6     -185.6029     -185.6024     -185.6421  0.0009  0.7902
siesta:    7     -185.6028     -185.6025     -185.6422  0.0001  0.7908
siesta:    8     -185.6028     -185.6027     -185.6424  0.0000  0.7913

siesta: E_KS(eV) =             -185.6028

siesta: Atomic forces (eV/Ang):
----------------------------------------
   Tot    0.000000    0.000000   -0.097590
----------------------------------------
   Max    0.987758
   Res    0.542842    sqrt( Sum f_i^2 / 3N )
----------------------------------------
   Max    0.987758    constrained

Stress-tensor-Voigt (kbar):        0.00        0.00      -18.08        0.00        0.00        0.00
Target enthalpy (eV/cell)     -185.6425
Cycling the Broyden process...

* Maximum dynamic memory allocated =    11 MB

siesta:                 ==============================
                            Begin CG move =     16
                        ==============================

outcell: Unit cell vectors (Ang):
        4.940717    0.000000    0.000000
        0.000000    4.940717    0.000000
        0.000000    0.000000    6.260717

outcell: Cell vector modules (Ang)   :    4.940717    4.940717    6.260717
outcell: Cell angles (23,13,12) (deg):     90.0000     90.0000     90.0000
outcell: Cell volume (Ang**3)        :    152.8284

siesta: iscf   Eharris(eV)      E_KS(eV)   FreeEng(eV)   dDmax  Ef(eV)
siesta:    1     -185.5811     -185.5392     -185.5789  0.1463  0.7255
siesta:    2     -185.5924     -185.5635     -185.6082  0.1094  0.6188
siesta:    3     -185.5715     -185.5594     -185.6056  0.0085  0.6540
siesta:    4     -185.5746     -185.5693     -185.6187  0.0386  0.6475
siesta:    5     -185.5732     -185.5714     -185.6189  0.0198  0.6412
siesta:    6     -185.5730     -185.5721     -185.6204  0.0112  0.6408
siesta:    7     -185.5728     -185.5730     -185.6214  0.0009  0.6384
siesta:    8     -185.5728     -185.5728     -185.6214  0.0001  0.6367
siesta:    9     -185.5728     -185.5728     -185.6214  0.0002  0.6365
siesta:   10     -185.5728     -185.5728     -185.6214  0.0000  0.6362

siesta: E_KS(eV) =             -185.5728

siesta: Atomic forces (eV/Ang):
----------------------------------------
   Tot    0.000001    0.000000   -0.056943
----------------------------------------
   Max    0.149568
   Res    0.071821    sqrt( Sum f_i^2 / 3N )
----------------------------------------
   Max    0.149568    constrained

Stress-tensor-Voigt (kbar):        0.02        0.02        2.60        0.00        0.00        0.00
Target enthalpy (eV/cell)     -185.6214
Cycling the Broyden process...

* Maximum dynamic memory allocated =    11 MB

siesta:                 ==============================
                            Begin CG move =     17
                        ==============================

outcell: Unit cell vectors (Ang):
        4.940717    0.000000    0.000000
        0.000000    4.940717    0.000000
        0.000000    0.000000    6.260717

outcell: Cell vector modules (Ang)   :    4.940717    4.940717    6.260717
outcell: Cell angles (23,13,12) (deg):     90.0000     90.0000     90.0000
outcell: Cell volume (Ang**3)        :    152.8284

siesta: iscf   Eharris(eV)      E_KS(eV)   FreeEng(eV)   dDmax  Ef(eV)
siesta:    1     -185.5807     -185.6103     -185.6589  0.0789  0.6668
siesta:    2     -185.5809     -185.5761     -185.6219  0.0577  0.7210
siesta:    3     -185.5771     -185.5880     -185.6373  0.0147  0.6964
siesta:    4     -185.5776     -185.5711     -185.6192  0.0131  0.7176
siesta:    5     -185.5784     -185.5765     -185.6247  0.0073  0.7086
siesta:    6     -185.5782     -185.5776     -185.6249  0.0024  0.7094
siesta:    7     -185.5781     -185.5776     -185.6251  0.0001  0.7106
siesta:    8     -185.5781     -185.5777     -185.6253  0.0000  0.7112

siesta: E_KS(eV) =             -185.5779

siesta: Atomic forces (eV/Ang):
----------------------------------------
   Tot    0.000001    0.000000   -0.090955
----------------------------------------
   Max    0.615451
   Res    0.330120    sqrt( Sum f_i^2 / 3N )
----------------------------------------
   Max    0.615451    constrained

Stress-tensor-Voigt (kbar):        0.01        0.01      -10.79        0.00        0.00        0.00
Target enthalpy (eV/cell)     -185.6254
Cycling the Broyden process...

* Maximum dynamic memory allocated =    11 MB

siesta:                 ==============================
                            Begin CG move =     18
                        ==============================

outcell: Unit cell vectors (Ang):
        4.940717    0.000000    0.000000
        0.000000    4.940717    0.000000
        0.000000    0.000000    6.260717

outcell: Cell vector modules (Ang)   :    4.940717    4.940717    6.260717
outcell: Cell angles (23,13,12) (deg):     90.0000     90.0000     90.0000
outcell: Cell volume (Ang**3)        :    152.8284

siesta: iscf   Eharris(eV)      E_KS(eV)   FreeEng(eV)   dDmax  Ef(eV)
siesta:    1     -185.5788     -185.5409     -185.5884  0.1002  0.6815
siesta:    2     -185.5817     -185.5698     -185.6148  0.0815  0.6161
siesta:    3     -185.5722     -185.5614     -185.6101  0.0063  0.6397
siesta:    4     -185.5742     -185.5723     -185.6212  0.0168  0.6310
siesta:    5     -185.5739     -185.5734     -185.6208  0.0112  0.6292
siesta:    6     -185.5737     -185.5736     -185.6212  0.0037  0.6291
siesta:    7     -185.5737     -185.5739     -185.6216  0.0005  0.6280
siesta:    8     -185.5737     -185.5738     -185.6216  0.0001  0.6268

siesta: E_KS(eV) =             -185.5737

siesta: Atomic forces (eV/Ang):
----------------------------------------
   Tot   -0.000001    0.000000   -0.033102
----------------------------------------
   Max    0.253307
   Res    0.137025    sqrt( Sum f_i^2 / 3N )
----------------------------------------
   Max    0.253307    constrained

Stress-tensor-Voigt (kbar):       -0.05       -0.05        4.60        0.00        0.00        0.00
Target enthalpy (eV/cell)     -185.6215
Cycling the Broyden process...

* Maximum dynamic memory allocated =    11 MB

siesta:                 ==============================
                            Begin CG move =     19
                        ==============================

outcell: Unit cell vectors (Ang):
        4.940717    0.000000    0.000000
        0.000000    4.940717    0.000000
        0.000000    0.000000    6.260717

outcell: Cell vector modules (Ang)   :    4.940717    4.940717    6.260717
outcell: Cell angles (23,13,12) (deg):     90.0000     90.0000     90.0000
outcell: Cell volume (Ang**3)        :    152.8284

siesta: iscf   Eharris(eV)      E_KS(eV)   FreeEng(eV)   dDmax  Ef(eV)
siesta:    1     -185.5844     -185.5540     -185.6018  0.0454  0.6150
siesta:    2     -185.5812     -185.5831     -185.6244  0.0263  0.5932
siesta:    3     -185.5819     -185.5745     -185.6203  0.0046  0.5996
siesta:    4     -185.5836     -185.5859     -185.6296  0.0034  0.5940
siesta:    5     -185.5835     -185.5869     -185.6289  0.0005  0.5935
siesta:    6     -185.5837     -185.5841     -185.6263  0.0001  0.5949
siesta:    7     -185.5837     -185.5839     -185.6259  0.0001  0.5947
siesta:    8     -185.5837     -185.5838     -185.6258  0.0000  0.5941

siesta: E_KS(eV) =             -185.5838

siesta: Atomic forces (eV/Ang):
----------------------------------------
   Tot   -0.000001    0.000000   -0.003913
----------------------------------------
   Max    0.712443
   Res    0.410201    sqrt( Sum f_i^2 / 3N )
----------------------------------------
   Max    0.712443    constrained

Stress-tensor-Voigt (kbar):       -0.08       -0.08       13.39        0.00        0.00        0.00
Target enthalpy (eV/cell)     -185.6258
Cycling the Broyden process...

* Maximum dynamic memory allocated =    11 MB

siesta:                 ==============================
                            Begin CG move =     20
                        ==============================

outcell: Unit cell vectors (Ang):
        4.940717    0.000000    0.000000
        0.000000    4.940717    0.000000
        0.000000    0.000000    6.260717

outcell: Cell vector modules (Ang)   :    4.940717    4.940717    6.260717
outcell: Cell angles (23,13,12) (deg):     90.0000     90.0000     90.0000
outcell: Cell volume (Ang**3)        :    152.8284

siesta: iscf   Eharris(eV)      E_KS(eV)   FreeEng(eV)   dDmax  Ef(eV)
siesta:    1     -185.5770     -185.6476     -185.6896  0.1258  0.6382
siesta:    2     -185.5872     -185.5678     -185.6143  0.0874  0.7141
siesta:    3     -185.5735     -185.5956     -185.6429  0.0277  0.6778
siesta:    4     -185.5755     -185.5544     -185.6032  0.0341  0.7172
siesta:    5     -185.5759     -185.5702     -185.6194  0.0122  0.6990
siesta:    6     -185.5756     -185.5739     -185.6217  0.0039  0.7001
siesta:    7     -185.5755     -185.5744     -185.6224  0.0003  0.7019
siesta:    8     -185.5755     -185.5746     -185.6228  0.0001  0.7030

siesta: E_KS(eV) =             -185.5750

siesta: Atomic forces (eV/Ang):
----------------------------------------
   Tot    0.000000    0.000000   -0.027285
----------------------------------------
   Max    0.515855
   Res    0.290060    sqrt( Sum f_i^2 / 3N )
----------------------------------------
   Max    0.515855    constrained

Stress-tensor-Voigt (kbar):       -0.02       -0.02       -9.74        0.00        0.00        0.00
Target enthalpy (eV/cell)     -185.6232
Cycling the Broyden process...

* Maximum dynamic memory allocated =    11 MB

siesta:                 ==============================
                            Begin CG move =     21
                        ==============================

outcell: Unit cell vectors (Ang):
        4.940717    0.000000    0.000000
        0.000000    4.940717    0.000000
        0.000000    0.000000    6.260717

outcell: Cell vector modules (Ang)   :    4.940717    4.940717    6.260717
outcell: Cell angles (23,13,12) (deg):     90.0000     90.0000     90.0000
outcell: Cell volume (Ang**3)        :    152.8284

siesta: iscf   Eharris(eV)      E_KS(eV)   FreeEng(eV)   dDmax  Ef(eV)
siesta:    1     -185.5757     -185.5446     -185.5927  0.0824  0.6789
siesta:    2     -185.5779     -185.5696     -185.6160  0.0685  0.6246
siesta:    3     -185.5713     -185.5619     -185.6108  0.0058  0.6451
siesta:    4     -185.5725     -185.5718     -185.6208  0.0121  0.6370
siesta:    5     -185.5724     -185.5725     -185.6205  0.0083  0.6359
siesta:    6     -185.5723     -185.5723     -185.6205  0.0024  0.6360
siesta:    7     -185.5723     -185.5725     -185.6207  0.0003  0.6351
siesta:    8     -185.5723     -185.5723     -185.6206  0.0000  0.6341

siesta: E_KS(eV) =             -185.5723

siesta: Atomic forces (eV/Ang):
----------------------------------------
   Tot    0.000000    0.000000   -0.003019
----------------------------------------
   Max    0.172360
   Res    0.098644    sqrt( Sum f_i^2 / 3N )
----------------------------------------
   Max    0.172360    constrained

Stress-tensor-Voigt (kbar):       -0.02       -0.02        3.29        0.00        0.00        0.00
Target enthalpy (eV/cell)     -185.6206
Cycling the Broyden process...

* Maximum dynamic memory allocated =    11 MB

siesta:                 ==============================
                            Begin CG move =     22
                        ==============================

outcell: Unit cell vectors (Ang):
        4.940717    0.000000    0.000000
        0.000000    4.940717    0.000000
        0.000000    0.000000    6.260717

outcell: Cell vector modules (Ang)   :    4.940717    4.940717    6.260717
outcell: Cell angles (23,13,12) (deg):     90.0000     90.0000     90.0000
outcell: Cell volume (Ang**3)        :    152.8284

siesta: iscf   Eharris(eV)      E_KS(eV)   FreeEng(eV)   dDmax  Ef(eV)
siesta:    1     -185.5740     -185.5983     -185.6466  0.0597  0.6538
siesta:    2     -185.5760     -185.5712     -185.6195  0.0488  0.6937
siesta:    3     -185.5723     -185.5812     -185.6301  0.0102  0.6749
siesta:    4     -185.5727     -185.5676     -185.6168  0.0076  0.6893
siesta:    5     -185.5729     -185.5719     -185.6211  0.0060  0.6833
siesta:    6     -185.5728     -185.5724     -185.6213  0.0009  0.6844
siesta:    7     -185.5728     -185.5724     -185.6214  0.0001  0.6849
siesta:    8     -185.5728     -185.5726     -185.6216  0.0000  0.6855

siesta: E_KS(eV) =             -185.5727

siesta: Atomic forces (eV/Ang):
----------------------------------------
   Tot   -0.000001    0.000000   -0.008856
----------------------------------------
   Max    0.356785
   Res    0.203449    sqrt( Sum f_i^2 / 3N )
----------------------------------------
   Max    0.356785    constrained

Stress-tensor-Voigt (kbar):       -0.03       -0.03       -6.78        0.00        0.00        0.00
Target enthalpy (eV/cell)     -185.6217
Cycling the Broyden process...

* Maximum dynamic memory allocated =    11 MB

siesta:                 ==============================
                            Begin CG move =     23
                        ==============================

outcell: Unit cell vectors (Ang):
        4.940717    0.000000    0.000000
        0.000000    4.940717    0.000000
        0.000000    0.000000    6.260717

outcell: Cell vector modules (Ang)   :    4.940717    4.940717    6.260717
outcell: Cell angles (23,13,12) (deg):     90.0000     90.0000     90.0000
outcell: Cell volume (Ang**3)        :    152.8284

siesta: iscf   Eharris(eV)      E_KS(eV)   FreeEng(eV)   dDmax  Ef(eV)
siesta:    1     -185.5765     -185.5451     -185.5941  0.0738  0.6644
siesta:    2     -185.5765     -185.5718     -185.6174  0.0598  0.6181
siesta:    3     -185.5723     -185.5632     -185.6125  0.0060  0.6354
siesta:    4     -185.5737     -185.5736     -185.6221  0.0092  0.6274
siesta:    5     -185.5736     -185.5742     -185.6215  0.0065  0.6266
siesta:    6     -185.5735     -185.5737     -185.6211  0.0013  0.6269
siesta:    7     -185.5735     -185.5737     -185.6213  0.0003  0.6264
siesta:    8     -185.5736     -185.5736     -185.6212  0.0000  0.6255

siesta: E_KS(eV) =             -185.5736

siesta: Atomic forces (eV/Ang):
----------------------------------------
   Tot   -0.000002    0.000000   -0.002198
----------------------------------------
   Max    0.275075
   Res    0.158182    sqrt( Sum f_i^2 / 3N )
----------------------------------------
   Max    0.275075    constrained

Stress-tensor-Voigt (kbar):       -0.04       -0.04        5.20        0.00        0.00        0.00
Target enthalpy (eV/cell)     -185.6211
Cycling the Broyden process...

* Maximum dynamic memory allocated =    11 MB

siesta:                 ==============================
                            Begin CG move =     24
                        ==============================

outcell: Unit cell vectors (Ang):
        4.940717    0.000000    0.000000
        0.000000    4.940717    0.000000
        0.000000    0.000000    6.260717

outcell: Cell vector modules (Ang)   :    4.940717    4.940717    6.260717
outcell: Cell angles (23,13,12) (deg):     90.0000     90.0000     90.0000
outcell: Cell volume (Ang**3)        :    152.8284

siesta: iscf   Eharris(eV)      E_KS(eV)   FreeEng(eV)   dDmax  Ef(eV)
siesta:    1     -185.5737     -185.6034     -185.6509  0.0676  0.6474
siesta:    2     -185.5770     -185.5702     -185.6186  0.0546  0.6915
siesta:    3     -185.5719     -185.5825     -185.6310  0.0120  0.6705
siesta:    4     -185.5724     -185.5658     -185.6150  0.0098  0.6874
siesta:    5     -185.5726     -185.5712     -185.6205  0.0069  0.6802
siesta:    6     -185.5725     -185.5720     -185.6210  0.0011  0.6814
siesta:    7     -185.5724     -185.5720     -185.6211  0.0002  0.6820
siesta:    8     -185.5725     -185.5722     -185.6213  0.0000  0.6827

siesta: E_KS(eV) =             -185.5723

siesta: Atomic forces (eV/Ang):
----------------------------------------
   Tot   -0.000001    0.000000   -0.006343
----------------------------------------
   Max    0.328783
   Res    0.188001    sqrt( Sum f_i^2 / 3N )
----------------------------------------
   Max    0.328783    constrained

Stress-tensor-Voigt (kbar):       -0.01       -0.01       -6.23        0.00        0.00        0.00
Target enthalpy (eV/cell)     -185.6214
Cycling the Broyden process...

* Maximum dynamic memory allocated =    11 MB

siesta:                 ==============================
                            Begin CG move =     25
                        ==============================

outcell: Unit cell vectors (Ang):
        4.940717    0.000000    0.000000
        0.000000    4.940717    0.000000
        0.000000    0.000000    6.260717

outcell: Cell vector modules (Ang)   :    4.940717    4.940717    6.260717
outcell: Cell angles (23,13,12) (deg):     90.0000     90.0000     90.0000
outcell: Cell volume (Ang**3)        :    152.8284

siesta: iscf   Eharris(eV)      E_KS(eV)   FreeEng(eV)   dDmax  Ef(eV)
siesta:    1     -185.5744     -185.5494     -185.5985  0.0612  0.6651
siesta:    2     -185.5747     -185.5712     -185.6181  0.0508  0.6259
siesta:    3     -185.5717     -185.5640     -185.6133  0.0053  0.6412
siesta:    4     -185.5725     -185.5729     -185.6216  0.0067  0.6341
siesta:    5     -185.5724     -185.5733     -185.6214  0.0042  0.6334
siesta:    6     -185.5724     -185.5726     -185.6207  0.0009  0.6340
siesta:    7     -185.5724     -185.5726     -185.6208  0.0002  0.6335
siesta:    8     -185.5724     -185.5725     -185.6207  0.0000  0.6328

siesta: E_KS(eV) =             -185.5725

siesta: Atomic forces (eV/Ang):
----------------------------------------
   Tot    0.000000    0.000000    0.000777
----------------------------------------
   Max    0.184180
   Res    0.106112    sqrt( Sum f_i^2 / 3N )
----------------------------------------
   Max    0.184180    constrained

Stress-tensor-Voigt (kbar):       -0.05       -0.05        3.45        0.00        0.00        0.00
Target enthalpy (eV/cell)     -185.6206
Cycling the Broyden process...

* Maximum dynamic memory allocated =    11 MB

siesta:                 ==============================
                            Begin CG move =     26
                        ==============================

outcell: Unit cell vectors (Ang):
        4.940717    0.000000    0.000000
        0.000000    4.940717    0.000000
        0.000000    0.000000    6.260717

outcell: Cell vector modules (Ang)   :    4.940717    4.940717    6.260717
outcell: Cell angles (23,13,12) (deg):     90.0000     90.0000     90.0000
outcell: Cell volume (Ang**3)        :    152.8284

siesta: iscf   Eharris(eV)      E_KS(eV)   FreeEng(eV)   dDmax  Ef(eV)
siesta:    1     -185.5712     -185.5873     -185.6355  0.0354  0.6434
siesta:    2     -185.5730     -185.5702     -185.6196  0.0293  0.6659
siesta:    3     -185.5710     -185.5765     -185.6251  0.0054  0.6556
siesta:    4     -185.5711     -185.5683     -185.6176  0.0024  0.6628
siesta:    5     -185.5710     -185.5707     -185.6200  0.0032  0.6601
siesta:    6     -185.5710     -185.5708     -185.6201  0.0002  0.6608
siesta:    7     -185.5710     -185.5709     -185.6202  0.0001  0.6611

siesta: E_KS(eV) =             -185.5710

siesta: Atomic forces (eV/Ang):
----------------------------------------
   Tot    0.000001    0.000000   -0.000911
----------------------------------------
   Max    0.124836
   Res    0.071812    sqrt( Sum f_i^2 / 3N )
----------------------------------------
   Max    0.124836    constrained

Stress-tensor-Voigt (kbar):       -0.02       -0.02       -2.35        0.00        0.00        0.00
Target enthalpy (eV/cell)     -185.6204
Cycling the Broyden process...

* Maximum dynamic memory allocated =    11 MB

siesta:                 ==============================
                            Begin CG move =     27
                        ==============================

outcell: Unit cell vectors (Ang):
        4.940717    0.000000    0.000000
        0.000000    4.940717    0.000000
        0.000000    0.000000    6.260717

outcell: Cell vector modules (Ang)   :    4.940717    4.940717    6.260717
outcell: Cell angles (23,13,12) (deg):     90.0000     90.0000     90.0000
outcell: Cell volume (Ang**3)        :    152.8284

siesta: iscf   Eharris(eV)      E_KS(eV)   FreeEng(eV)   dDmax  Ef(eV)
siesta:    1     -185.5719     -185.5616     -185.6110  0.0241  0.6544
siesta:    2     -185.5715     -185.5714     -185.6199  0.0203  0.6391
siesta:    3     -185.5713     -185.5680     -185.6173  0.0027  0.6455
siesta:    4     -185.5715     -185.5722     -185.6212  0.0012  0.6420
siesta:    5     -185.5715     -185.5724     -185.6212  0.0023  0.6416
siesta:    6     -185.5715     -185.5716     -185.6205  0.0001  0.6424
siesta:    7     -185.5715     -185.5716     -185.6204  0.0001  0.6423

siesta: E_KS(eV) =             -185.5715

siesta: Atomic forces (eV/Ang):
----------------------------------------
   Tot    0.000000    0.000000   -0.002580
----------------------------------------
   Max    0.080866
   Res    0.045949    sqrt( Sum f_i^2 / 3N )
----------------------------------------
   Max    0.080866    constrained

Stress-tensor-Voigt (kbar):       -0.04       -0.04        1.54        0.00        0.00        0.00
Target enthalpy (eV/cell)     -185.6203
Cycling the Broyden process...

* Maximum dynamic memory allocated =    11 MB

siesta:                 ==============================
                            Begin CG move =     28
                        ==============================

outcell: Unit cell vectors (Ang):
        4.940717    0.000000    0.000000
        0.000000    4.940717    0.000000
        0.000000    0.000000    6.260717

outcell: Cell vector modules (Ang)   :    4.940717    4.940717    6.260717
outcell: Cell angles (23,13,12) (deg):     90.0000     90.0000     90.0000
outcell: Cell volume (Ang**3)        :    152.8284

siesta: iscf   Eharris(eV)      E_KS(eV)   FreeEng(eV)   dDmax  Ef(eV)
siesta:    1     -185.5710     -185.5757     -185.6245  0.0102  0.6450
siesta:    2     -185.5714     -185.5709     -185.6201  0.0086  0.6514
siesta:    3     -185.5711     -185.5727     -185.6215  0.0014  0.6486
siesta:    4     -185.5711     -185.5705     -185.6196  0.0002  0.6504
siesta:    5     -185.5711     -185.5710     -185.6201  0.0005  0.6499
siesta:    6     -185.5711     -185.5710     -185.6201  0.0000  0.6500

siesta: E_KS(eV) =             -185.5710

siesta: Atomic forces (eV/Ang):
----------------------------------------
   Tot    0.000000   -0.000001   -0.000534
----------------------------------------
   Max    0.009316
   Res    0.005227    sqrt( Sum f_i^2 / 3N )
----------------------------------------
   Max    0.009316    constrained

Stress-tensor-Voigt (kbar):       -0.03       -0.03       -0.16        0.00        0.00        0.00
Target enthalpy (eV/cell)     -185.6202

* Maximum dynamic memory allocated =    11 MB

outcoor: Relaxed atomic coordinates (Ang):                  
    0.00000006   -0.00000001   -0.25962875   1       1  OZero.nrl-0.50000
   -0.00000018    0.00000001    1.52813382   1       2  OZero.nrl-0.50000

siesta: Program's energy decomposition (eV):
siesta: Eions   =       388.219918
siesta: Ena     =       180.245734
siesta: Ekin    =       104.231315
siesta: Enl     =        18.730098
siesta: DEna    =       -47.525128
siesta: DUscf   =         4.664374
siesta: DUext   =         0.000000
siesta: Exc     =       -57.697512
siesta: eta*DQ  =         0.000000
siesta: Emadel  =         0.000000
siesta: Emeta   =         0.000000
siesta: Emolmec =         0.000000
siesta: Ekinion =         0.000000
siesta: Eharris =      -185.571080
siesta: Etot    =      -185.571037
siesta: FreeEng =      -185.620165

siesta: Final energy (eV):
siesta:       Kinetic =     104.231315
siesta:       Hartree =      91.761307
siesta:    Ext. field =       0.000000
siesta:   Exch.-corr. =     -57.697512
siesta:  Ion-electron =    -272.150847
siesta:       Ion-ion =     -51.715300
siesta:       Ekinion =       0.000000
siesta:         Total =    -185.571037

siesta: Stress tensor (static) (eV/Ang**3):
siesta:    -0.000019    0.000000    0.000000
siesta:     0.000000   -0.000019    0.000000
siesta:     0.000000    0.000000   -0.000101

siesta: Cell volume =        152.828404 Ang**3

siesta: Pressure (static):
siesta:                Solid            Molecule  Units
siesta:           0.00000051          0.00000012  Ry/Bohr**3
siesta:           0.00004664          0.00001136  eV/Ang**3
siesta:           0.07472753          0.01819301  kBar

siesta: Total spin polarization (Qup-Qdown) =    2.000005

siesta: Electric dipole (a.u.)  =    0.000000    0.000000    0.000013
siesta: Electric dipole (Debye) =    0.000000    0.000000    0.000033

* Maximum dynamic memory allocated : Node    0 =    11 MB

* Maximum memory occured during poison                        

timer: CPU execution times:
timer:  Routine       Calls   Time/call    Tot.time        %
timer:  siesta            1     148.775     148.775   100.00
timer:  Setup             1       0.284       0.284     0.19
timer:  bands             1       0.000       0.000     0.00
timer:  writewave         1       0.001       0.001     0.00
timer:  KSV_init          1       0.000       0.000     0.00
timer:  IterMD           29       5.120     148.486    99.81
timer:  hsparse          30       0.003       0.085     0.06
timer:  overfsm          58       0.011       0.613     0.41
timer:  IterSCF         260       0.568     147.754    99.31
timer:  kinefsm          58       0.010       0.579     0.39
timer:  nlefsm           58       0.029       1.677     1.13
timer:  DHSCF           260       0.556     144.488    97.12
timer:  DHSCF1            1       0.172       0.172     0.12
timer:  DHSCF2           29       0.545      15.818    10.63
timer:  REORD          2918       0.001       2.590     1.74
timer:  POISON          289       0.060      17.337    11.65
timer:  DHSCF3          260       0.431     112.082    75.34
timer:  rhoofd          260       0.088      22.786    15.32
timer:  cellXC          260       0.119      31.057    20.88
timer:  vmat            260       0.121      31.437    21.13
timer:  diagon          231       0.001       0.330     0.22
timer:  rdiag           462       0.001       0.266     0.18
timer:  rdiag1          462       0.000       0.016     0.01
timer:  rdiag2          462       0.000       0.025     0.02
timer:  rdiag3          462       0.000       0.198     0.13
timer:  rdiag4          462       0.000       0.012     0.01
timer:  MolMec           58       0.000       0.000     0.00
timer:  DHSCF4           29       0.527      15.286    10.27
timer:  dfscf            29       0.486      14.094     9.47
timer:  optical           1       0.000       0.000     0.00
  

elaps: ELAPSED times:
elaps:  Routine       Calls   Time/call    Tot.time        %
elaps:  siesta            1     149.429     149.429   100.00
elaps:  Setup             1       0.321       0.321     0.21
elaps:  bands             1       0.000       0.000     0.00
elaps:  writewave         1       0.001       0.001     0.00
elaps:  KSV_init          1       0.000       0.000     0.00
elaps:  IterMD           29       5.141     149.100    99.78
elaps:  hsparse          30       0.003       0.086     0.06
elaps:  overfsm          58       0.011       0.617     0.41
elaps:  IterSCF         260       0.570     148.208    99.18
elaps:  kinefsm          58       0.010       0.579     0.39
elaps:  nlefsm           58       0.029       1.678     1.12
elaps:  DHSCF           260       0.556     144.477    96.69
elaps:  DHSCF1            1       0.172       0.172     0.12
elaps:  DHSCF2           29       0.545      15.817    10.58
elaps:  REORD          2918       0.001       2.594     1.74
elaps:  POISON          289       0.060      17.328    11.60
elaps:  DHSCF3          260       0.431     112.076    75.00
elaps:  rhoofd          260       0.088      22.793    15.25
elaps:  cellXC          260       0.119      31.055    20.78
elaps:  vmat            260       0.121      31.439    21.04
elaps:  diagon          231       0.001       0.327     0.22
elaps:  rdiag           462       0.001       0.268     0.18
elaps:  rdiag1          462       0.000       0.013     0.01
elaps:  rdiag2          462       0.000       0.030     0.02
elaps:  rdiag3          462       0.000       0.197     0.13
elaps:  rdiag4          462       0.000       0.015     0.01
elaps:  MolMec           58       0.000       0.001     0.00
elaps:  DHSCF4           29       0.527      15.283    10.23
elaps:  dfscf            29       0.486      14.094     9.43
elaps:  optical           1       0.000       0.000     0.00
  
>> End of run:  17-DEC-2006  20:14:39
