Siesta Version:                                        siesta-3.1
Architecture  : ifort11-macosx64
Compiler flags: ifort  -O2
SERIAL version

* Running in serial mode
>> Start of run:  10-JUN-2011  14:36:38

                           ***********************       
                           *  WELCOME TO SIESTA  *       
                           ***********************       

reinit: Reading from standard input
************************** Dump of input data file ****************************
SystemName          Oxypartial
SystemLabel         oxypartial
NumberOfAtoms       2
NumberOfSpecies     1
MeshCutoff 200 Ry
%block ChemicalSpeciesLabel
 1  201  O-Fraction-0.50000      # Species index, atomic number, species label
%endblock ChemicalSpeciesLabel
%block SyntheticAtoms
 1
 2 2 3 4
 1.0 2.0 0.0 0.0
%endblock SyntheticAtoms
%block PAO.basis
O-Fraction-0.50000  2                 # Species label, number of l-shells
 n=2   0   2                         # n, l, Nzeta
 0.0 0.0
   1.000      1.000
 n=2   1   2 P   1                   # n, l, Nzeta, Polarization, NzetaPol
   4.139      2.740
   1.000      1.000
%endblock PAO.Basis
DM.NumberPulay 4
Spin.Polarized T
AtomicCoordinatesFormat  Ang
%block AtomicCoordinatesAndAtomicSpecies
 0.000  0.000  0.000  1
 0.000  0.000  1.200  1
%endblock AtomicCoordinatesAndAtomicSpecies
MD.TypeOfRun Broyden
MD.NumCGSteps 40
************************** End of input data file *****************************

reinit: -----------------------------------------------------------------------
reinit: System Name: Oxypartial
reinit: -----------------------------------------------------------------------
reinit: System Label: oxypartial                                                  
reinit: -----------------------------------------------------------------------

initatom: Reading input for the pseudopotentials and atomic orbitals ----------
 Species number:            1  Label: O-Fraction-0.50000 Atomic number:
         201
Reading pseudopotential information in formatted form from O-Fraction-0.50000.psf

Valence configuration for pseudopotential generation:
Ground state valence configuration (synthetic):   2s 1.00000  2p 2.00000
Number of synthetic species:  1
For O-Fraction-0.50000, standard SIESTA heuristics set lmxkb to 3
 (one more than the basis l, including polarization orbitals).
Use PS.lmax or PS.KBprojectors blocks to override.

<basis_specs>
===============================================================================
O-Fraction-0.50000   Z= 201    Mass= -1.0000        Charge= 0.17977+309
Lmxo=1 Lmxkb=3     BasisType=split      Semic=F
L=0  Nsemic=0  Cnfigmx=2
          n=1  nzeta=2  polorb=0
            splnorm:   0.15000    
               vcte:    0.0000    
               rinn:    0.0000    
                rcs:    0.0000      0.0000    
            lambdas:    1.0000      1.0000    
L=1  Nsemic=0  Cnfigmx=2
          n=1  nzeta=2  polorb=1
            splnorm:   0.15000    
               vcte:    0.0000    
               rinn:    0.0000    
                rcs:    4.1390      2.7400    
            lambdas:    1.0000      1.0000    
-------------------------------------------------------------------------------
L=0  Nkbl=1  erefs: 0.17977+309
L=1  Nkbl=1  erefs: 0.17977+309
L=2  Nkbl=1  erefs: 0.17977+309
L=3  Nkbl=1  erefs: 0.17977+309
===============================================================================
</basis_specs>

atom: Called for (synthetic) O-Fraction-0.50000    (Z = 201)

read_vps: Pseudopotential generation method:
read_vps: FRACT     19-FEB-98  ---       fraction  fraction 
Total valence charge:    3.00000

xc_check: Exchange-correlation functional:
xc_check: Ceperley-Alder
V l=0 = -2*Zval/r beyond r=  1.1278
V l=1 = -2*Zval/r beyond r=  1.1278
V l=2 = -2*Zval/r beyond r=  1.1278
V l=3 = -2*Zval/r beyond r=  1.1138
All V_l potentials equal beyond r=  1.1278
This should be close to max(r_c) in ps generation
All pots = -2*Zval/r beyond r=  1.1278

VLOCAL1: 99.0% of the norm of Vloc inside     34.126 Ry
VLOCAL1: 99.9% of the norm of Vloc inside     77.774 Ry
atom: Maximum radius for 4*pi*r*r*local-pseudopot. charge    1.36047
atom: Maximum radius for r*vlocal+2*Zval:    1.15638
GHOST: No ghost state for L =  0
GHOST: No ghost state for L =  1
GHOST: No ghost state for L =  2
GHOST: No ghost state for L =  3

KBgen: Kleinman-Bylander projectors: 
   l= 0   rc=  1.294105   el= -0.693307   Ekb=  4.664913   kbcos=  0.254299
   l= 1   rc=  1.343567   el=  0.001447   Ekb= -4.466139   kbcos= -0.030125
   l= 2   rc=  1.466454   el=  0.002386   Ekb= -1.010968   kbcos= -0.001863
   l= 3   rc=  1.561052   el=  0.003508   Ekb= -0.392253   kbcos= -0.000249

KBgen: Total number of  Kleinman-Bylander projectors:   16
atom: -------------------------------------------------------------------------

atom: SANKEY-TYPE ORBITALS:
atom: Selected multiple-zeta basis: split     

SPLIT: Orbitals with angular momentum L= 0

SPLIT: Basis orbitals for state 2s

SPLIT: PAO cut-off radius determined from an
SPLIT: energy shift=  0.020000 Ry

   izeta = 1
                 lambda =    1.000000
                     rc =    4.243912
                 energy =   -0.673179
                kinetic =    0.971847
    potential(screened) =   -1.645026
       potential(ionic) =   -4.821659

   izeta = 2
                 rmatch =    3.388770
              splitnorm =    0.150000
                 energy =   -0.526416
                kinetic =    1.507134
    potential(screened) =   -2.033550
       potential(ionic) =   -5.533769

SPLIT: Orbitals with angular momentum L= 1

SPLIT: Basis orbitals for state 2p

   izeta = 1
                 lambda =    1.000000
                     rc =    4.139122
                 energy =    0.491454
                kinetic =    1.445506
    potential(screened) =   -0.954052
       potential(ionic) =   -3.434023

   izeta = 2
                 rmatch =    2.774434
              splitnorm =    0.627770
                 energy =    1.483725
                kinetic =    3.945497
    potential(screened) =   -2.461771
       potential(ionic) =   -5.835431

POLgen: Perturbative polarization orbital with L=  2

POLgen: Polarization orbital for state 2p

   izeta = 1
                     rc =    4.139122
                 energy =    1.585617
                kinetic =    2.166931
    potential(screened) =   -0.581314
       potential(ionic) =   -2.778294
atom: Total number of Sankey-type orbitals: 13

atm_pop: Valence configuration (for local Pseudopot. screening):
 2s( 1.00)                                                            
 2p( 2.00)                                                            
Vna: chval, zval:    3.00000   3.00000

Vna:  Cut-off radius for the neutral-atom potential:   4.243912

atom: _________________________________________________________________________

prinput: Basis input ----------------------------------------------------------

PAO.BasisType split     

%block ChemicalSpeciesLabel
    1  201 O-Fraction-0.50000      # Species index, atomic number, species label
%endblock ChemicalSpeciesLabel

%block SyntheticAtoms   # Valence config
  1
  2  2  3  4
  1.00000  2.00000  0.00000  0.00000
%endblock SyntheticAtoms

%block PAO.Basis                 # Define Basis set
O-Fraction-0.50000    2                    # Species label, number of l-shells
 n=2   0   2                         # n, l, Nzeta 
   4.244      3.389   
   1.000      1.000   
 n=2   1   2 P   1                   # n, l, Nzeta, Polarization, NzetaPol
   4.139      2.774   
   1.000      1.000   
%endblock PAO.Basis

prinput: ----------------------------------------------------------------------

coor:   Atomic-coordinates input format  =     Cartesian coordinates
coor:                                          (in Angstroms)

siesta: Atomic coordinates (Bohr) and species
siesta:      0.00000   0.00000   0.00000  1        1
siesta:      0.00000   0.00000   2.26767  1        2

siesta: Automatic unit cell vectors (Ang):
siesta:    4.940717    0.000000    0.000000
siesta:    0.000000    4.940717    0.000000
siesta:    0.000000    0.000000    6.260717

siesta: System type = molecule  

initatomlists: Number of atoms, orbitals, and projectors:      2    26    32

siesta: ******************** Simulation parameters ****************************
siesta:
siesta: The following are some of the parameters of the simulation.
siesta: A complete list of the parameters used, including default values,
siesta: can be found in file out.fdf
siesta:
redata: Non-Collinear-spin run           =     F
redata: SpinPolarized (Up/Down) run      =     T
redata: Number of spin components        =     2
redata: Long output                      =     F
redata: Number of Atomic Species         =        1
redata: Charge density info will appear in .RHO file
redata: Write Mulliken Pop.              =     NO
redata: Mesh Cutoff                      =   200.0000  Ry
redata: Net charge of the system         =     0.0000 |e|
redata: Max. number of SCF Iter          =       50
redata: Performing Pulay mixing using    =     4 iterations
redata: Mix DM in first SCF step ?       =     F
redata: Write Pulay info on disk?        =     F
redata: Discard 1st Pulay DM after  kick =     F
redata: New DM Mixing Weight             =     0.2500
redata: New DM Occupancy tolerance       = 0.000000000001
redata: No kicks to SCF
redata: DM Mixing Weight for Kicks       =     0.5000
redata: DM Tolerance for SCF             =     0.000100
redata: Require Energy convergence for SCF =     F
redata: DM Energy tolerance for SCF      =     0.000100 eV
redata: Require Harris convergence for SCF =     F
redata: DM Harris energy tolerance for SCF =     0.000100 eV
redata: Antiferro initial spin density   =     F
redata: Using Saved Data (generic)   =     F
redata: Use continuation files for DM    =     F
redata: Neglect nonoverlap interactions  =     F
redata: Method of Calculation            =     Diagonalization
redata: Divide and Conquer               =     T
redata: Electronic Temperature           =     0.0019  Ry
redata: Fix the spin of the system       =     F
redata: Dynamics option                  =     Broyden coord. optimization
redata: Variable cell                    =     F
redata: Maximum number of CG moves       =       40
redata: Force tolerance                  =     0.0016  Ry/Bohr
redata: ***********************************************************************
Total number of electrons:     6.000000
Total ionic charge:     6.000000
 Kpoints in:            1 . Kpoints trimmed:            1

siesta: k-grid: Number of k-points =     1
siesta: k-grid: Cutoff (effective) =     2.470 Ang
siesta: k-grid: Supercell and displacements
siesta: k-grid:    1   0   0      0.000
siesta: k-grid:    0   1   0      0.000
siesta: k-grid:    0   0   1      0.000

* Maximum dynamic memory allocated =     1 MB

siesta:                 ==============================
                            Begin CG move =      0
                        ==============================

outcell: Unit cell vectors (Ang):
        4.940717    0.000000    0.000000
        0.000000    4.940717    0.000000
        0.000000    0.000000    6.260717

outcell: Cell vector modules (Ang)   :    4.940717    4.940717    6.260717
outcell: Cell angles (23,13,12) (deg):     90.0000     90.0000     90.0000
outcell: Cell volume (Ang**3)        :    152.8284
New_DM. Step:     1
Initializing Density Matrix...

InitMesh: MESH =    48 x    48 x    54 =      124416
InitMesh: Mesh cutoff (required, used) =   200.000   205.608 Ry

* Maximum dynamic memory allocated =    11 MB

stepf: Fermi-Dirac step function

siesta: Program's energy decomposition (eV):
siesta: Ebs     =       -95.102891
siesta: Eions   =       388.219918
siesta: Ena     =       177.988389
siesta: Ekin    =       105.068031
siesta: Enl     =         7.661400
siesta: DEna    =         0.000000
siesta: DUscf   =         0.000000
siesta: DUext   =         0.000000
siesta: Exc     =       -58.957041
siesta: eta*DQ  =         0.000000
siesta: Emadel  =         0.000000
siesta: Emeta   =         0.000000
siesta: Emolmec =         0.000000
siesta: Ekinion =         0.000000
siesta: Eharris =      -176.604234
siesta: Etot    =      -156.459139
siesta: FreeEng =      -156.459139

siesta: iscf   Eharris(eV)      E_KS(eV)   FreeEng(eV)   dDmax  Ef(eV)
siesta:    1     -176.6042     -156.4591     -156.4591  0.7393 -5.8452
timer: Routine,Calls,Time,% = IterSCF        1       1.484  75.43
elaps: Routine,Calls,Wall,% = IterSCF        1       1.501  74.09
siesta:    2     -184.4812     -181.9725     -181.9725  0.3029  1.5156
siesta:    3     -183.6642     -178.5209     -178.5209  0.1176 -0.0604
siesta:    4     -183.7371     -181.9564     -181.9564  0.0606 -0.0357
siesta:    5     -183.7515     -183.5614     -183.5614  0.0131 -0.2120
siesta:    6     -183.7495     -183.7244     -183.7244  0.0027 -0.1010
siesta:    7     -183.7495     -183.7551     -183.7551  0.0011 -0.0908
siesta:    8     -183.7495     -183.7618     -183.7618  0.0004 -0.0944
siesta:    9     -183.7495     -183.7549     -183.7549  0.0002 -0.0955
siesta:   10     -183.7495     -183.7487     -183.7487  0.0001 -0.0967
siesta:   11     -183.7495     -183.7498     -183.7498  0.0000 -0.0973

siesta: E_KS(eV) =             -183.7497

siesta: E_KS - E_eggbox =      -183.7497

siesta: Atomic forces (eV/Ang):
----------------------------------------
   Tot    0.000000    0.000000    0.012326
----------------------------------------
   Max   14.370658
   Res    8.293345    sqrt( Sum f_i^2 / 3N )
----------------------------------------
   Max   14.370658    constrained

Stress-tensor-Voigt (kbar):       -0.11       -0.11     -180.66        0.00        0.00        0.00
(Free)E + p*V (eV/cell)     -177.9986
Target enthalpy (eV/cell)     -183.7497
 
Broyden_optim: max_history for broyden:   5
Broyden_optim: cycle on maxit: T
Broyden_optim: initial inverse jacobian:   1.0000
 
Broyden_optim: No of elements:      6

* Maximum dynamic memory allocated =    11 MB

siesta:                 ==============================
                            Begin CG move =      1
                        ==============================

outcell: Unit cell vectors (Ang):
        4.940717    0.000000    0.000000
        0.000000    4.940717    0.000000
        0.000000    0.000000    6.260717

outcell: Cell vector modules (Ang)   :    4.940717    4.940717    6.260717
outcell: Cell angles (23,13,12) (deg):     90.0000     90.0000     90.0000
outcell: Cell volume (Ang**3)        :    152.8284
New_DM. Step:     2
Re-using DM from previous geometry...
Re-using DM without extrapolation (not allowed)
Density Matrix sparsity pattern changed.

siesta: iscf   Eharris(eV)      E_KS(eV)   FreeEng(eV)   dDmax  Ef(eV)
siesta:    1     -185.8724     -187.5543     -187.5543  0.2969  1.0346
siesta:    2     -185.7439     -185.4280     -185.4286  0.2590  0.6649
siesta:    3     -185.5771     -186.4227     -186.4605  0.1273  0.7770
siesta:    4     -185.6024     -185.5813     -185.6121  0.1752  0.6104
siesta:    5     -185.5706     -185.5517     -185.5965  0.0421  0.5908
siesta:    6     -185.5714     -185.5635     -185.6126  0.0544  0.6154
siesta:    7     -185.5730     -185.5701     -185.6194  0.0061  0.6300
siesta:    8     -185.5719     -185.5885     -185.6372  0.0314  0.6428
siesta:    9     -185.5724     -185.5873     -185.6367  0.0126  0.6447
siesta:   10     -185.5727     -185.5833     -185.6326  0.0075  0.6510
siesta:   11     -185.5728     -185.5751     -185.6244  0.0039  0.6557
siesta:   12     -185.5728     -185.5692     -185.6186  0.0017  0.6610
siesta:   13     -185.5728     -185.5711     -185.6204  0.0014  0.6689
siesta:   14     -185.5728     -185.5726     -185.6219  0.0003  0.6666
siesta:   15     -185.5728     -185.5727     -185.6221  0.0001  0.6671

siesta: E_KS(eV) =             -185.5729

siesta: Atomic forces (eV/Ang):
----------------------------------------
   Tot    0.000000    0.000000   -0.092705
----------------------------------------
   Max    0.250548
   Res    0.120891    sqrt( Sum f_i^2 / 3N )
----------------------------------------
   Max    0.250548    constrained

Stress-tensor-Voigt (kbar):        0.01        0.01       -3.47        0.00        0.00        0.00
(Free)E + p*V (eV/cell)     -185.5125
Target enthalpy (eV/cell)     -185.6222

* Maximum dynamic memory allocated =    11 MB

siesta:                 ==============================
                            Begin CG move =      2
                        ==============================

outcell: Unit cell vectors (Ang):
        4.940717    0.000000    0.000000
        0.000000    4.940717    0.000000
        0.000000    0.000000    6.260717

outcell: Cell vector modules (Ang)   :    4.940717    4.940717    6.260717
outcell: Cell angles (23,13,12) (deg):     90.0000     90.0000     90.0000
outcell: Cell volume (Ang**3)        :    152.8284
New_DM. Step:     3
Re-using DM from previous geometry...
Re-using DM without extrapolation (not allowed)

siesta: iscf   Eharris(eV)      E_KS(eV)   FreeEng(eV)   dDmax  Ef(eV)
siesta:    1     -185.5783     -185.5895     -185.6389  0.0371  0.6812
siesta:    2     -185.5772     -185.5771     -185.6244  0.0286  0.7083
siesta:    3     -185.5769     -185.5814     -185.6306  0.0056  0.6963
siesta:    4     -185.5771     -185.5753     -185.6236  0.0029  0.7046
siesta:    5     -185.5773     -185.5769     -185.6251  0.0032  0.7014
siesta:    6     -185.5772     -185.5770     -185.6250  0.0004  0.7022
siesta:    7     -185.5772     -185.5771     -185.6251  0.0001  0.7024

siesta: E_KS(eV) =             -185.5772

siesta: Atomic forces (eV/Ang):
----------------------------------------
   Tot    0.000000    0.000000   -0.114015
----------------------------------------
   Max    0.564894
   Res    0.295070    sqrt( Sum f_i^2 / 3N )
----------------------------------------
   Max    0.564894    constrained

Stress-tensor-Voigt (kbar):        0.01        0.01       -9.30        0.00        0.00        0.00
(Free)E + p*V (eV/cell)     -185.3301
Target enthalpy (eV/cell)     -185.6252

* Maximum dynamic memory allocated =    11 MB

siesta:                 ==============================
                            Begin CG move =      3
                        ==============================

outcell: Unit cell vectors (Ang):
        4.940717    0.000000    0.000000
        0.000000    4.940717    0.000000
        0.000000    0.000000    6.260717

outcell: Cell vector modules (Ang)   :    4.940717    4.940717    6.260717
outcell: Cell angles (23,13,12) (deg):     90.0000     90.0000     90.0000
outcell: Cell volume (Ang**3)        :    152.8284
New_DM. Step:     4
Re-using DM from previous geometry...
Re-using DM without extrapolation (not allowed)
Density Matrix sparsity pattern changed.

siesta: iscf   Eharris(eV)      E_KS(eV)   FreeEng(eV)   dDmax  Ef(eV)
siesta:    1     -185.6835     -185.4490     -185.4971  0.2058  0.6151
siesta:    2     -185.6843     -185.6604     -185.6656  0.0207  0.5420
siesta:    3     -185.6804     -185.6553     -185.6682  0.0155  0.5340
siesta:    4     -185.6860     -185.6888     -185.6987  0.0023  0.5285
siesta:    5     -185.6855     -185.6838     -185.6880  0.0016  0.5436
siesta:    6     -185.6856     -185.6857     -185.6902  0.0008  0.5438
siesta:    7     -185.6856     -185.6859     -185.6903  0.0005  0.5438
siesta:    8     -185.6856     -185.6856     -185.6900  0.0001  0.5427

siesta: E_KS(eV) =             -185.6856

siesta: Atomic forces (eV/Ang):
----------------------------------------
   Tot    0.000000    0.000000    0.028604
----------------------------------------
   Max    1.597515
   Res    0.914106    sqrt( Sum f_i^2 / 3N )
----------------------------------------
   Max    1.597515    constrained

Stress-tensor-Voigt (kbar):       -0.27       -0.27       28.51        0.00        0.00        0.00
(Free)E + p*V (eV/cell)     -186.5791
Target enthalpy (eV/cell)     -185.6900

* Maximum dynamic memory allocated =    11 MB

siesta:                 ==============================
                            Begin CG move =      4
                        ==============================

outcell: Unit cell vectors (Ang):
        4.940717    0.000000    0.000000
        0.000000    4.940717    0.000000
        0.000000    0.000000    6.260717

outcell: Cell vector modules (Ang)   :    4.940717    4.940717    6.260717
outcell: Cell angles (23,13,12) (deg):     90.0000     90.0000     90.0000
outcell: Cell volume (Ang**3)        :    152.8284
New_DM. Step:     5
Re-using DM from previous geometry...
Re-using DM without extrapolation (not allowed)

siesta: iscf   Eharris(eV)      E_KS(eV)   FreeEng(eV)   dDmax  Ef(eV)
siesta:    1     -185.7115     -185.6403     -185.6447  0.0048  0.5231
siesta:    2     -185.7118     -185.7115     -185.7135  0.0010  0.5369
siesta:    3     -185.7118     -185.7086     -185.7104  0.0007  0.5360
siesta:    4     -185.7118     -185.7120     -185.7138  0.0000  0.5355

siesta: E_KS(eV) =             -185.7120

siesta: Atomic forces (eV/Ang):
----------------------------------------
   Tot    0.000000    0.000000    0.008366
----------------------------------------
   Max    1.492133
   Res    0.859072    sqrt( Sum f_i^2 / 3N )
----------------------------------------
   Max    1.492133    constrained

Stress-tensor-Voigt (kbar):       -0.28       -0.28       26.45        0.00        0.00        0.00
(Free)E + p*V (eV/cell)     -186.5374
Target enthalpy (eV/cell)     -185.7138

* Maximum dynamic memory allocated =    11 MB

siesta:                 ==============================
                            Begin CG move =      5
                        ==============================

outcell: Unit cell vectors (Ang):
        4.940717    0.000000    0.000000
        0.000000    4.940717    0.000000
        0.000000    0.000000    6.260717

outcell: Cell vector modules (Ang)   :    4.940717    4.940717    6.260717
outcell: Cell angles (23,13,12) (deg):     90.0000     90.0000     90.0000
outcell: Cell volume (Ang**3)        :    152.8284
New_DM. Step:     6
Re-using DM from previous geometry...
Re-using DM without extrapolation (not allowed)

siesta: iscf   Eharris(eV)      E_KS(eV)   FreeEng(eV)   dDmax  Ef(eV)
siesta:    1     -185.6750     -185.7759     -185.7777  0.0067  0.5625
siesta:    2     -185.6740     -185.6750     -185.6803  0.0015  0.5432
siesta:    3     -185.6741     -185.6764     -185.6827  0.0010  0.5441
siesta:    4     -185.6741     -185.6730     -185.6792  0.0001  0.5452

siesta: E_KS(eV) =             -185.6731

siesta: Atomic forces (eV/Ang):
----------------------------------------
   Tot    0.000000    0.000000    0.034938
----------------------------------------
   Max    1.624766
   Res    0.928028    sqrt( Sum f_i^2 / 3N )
----------------------------------------
   Max    1.624766    constrained

Stress-tensor-Voigt (kbar):       -0.25       -0.25       29.22        0.00        0.00        0.00
(Free)E + p*V (eV/cell)     -186.5926
Target enthalpy (eV/cell)     -185.6793

* Maximum dynamic memory allocated =    11 MB

siesta:                 ==============================
                            Begin CG move =      6
                        ==============================

outcell: Unit cell vectors (Ang):
        4.940717    0.000000    0.000000
        0.000000    4.940717    0.000000
        0.000000    0.000000    6.260717

outcell: Cell vector modules (Ang)   :    4.940717    4.940717    6.260717
outcell: Cell angles (23,13,12) (deg):     90.0000     90.0000     90.0000
outcell: Cell volume (Ang**3)        :    152.8284
New_DM. Step:     7
Re-using DM from previous geometry...
Re-using DM without extrapolation (not allowed)

siesta: iscf   Eharris(eV)      E_KS(eV)   FreeEng(eV)   dDmax  Ef(eV)
siesta:    1     -185.6319     -185.7313     -185.7376  0.0143  0.5708
siesta:    2     -185.6299     -185.6323     -185.6479  0.0049  0.5546
siesta:    3     -185.6287     -185.5972     -185.6154  0.0017  0.5506
siesta:    4     -185.6284     -185.6200     -185.6395  0.0005  0.5572
siesta:    5     -185.6285     -185.6252     -185.6450  0.0003  0.5569
siesta:    6     -185.6284     -185.6280     -185.6477  0.0001  0.5567

siesta: E_KS(eV) =             -185.6283

siesta: Atomic forces (eV/Ang):
----------------------------------------
   Tot    0.000000    0.000000    0.032263
----------------------------------------
   Max    1.484978
   Res    0.848090    sqrt( Sum f_i^2 / 3N )
----------------------------------------
   Max    1.484978    constrained

Stress-tensor-Voigt (kbar):       -0.19       -0.19       27.07        0.00        0.00        0.00
(Free)E + p*V (eV/cell)     -186.4965
Target enthalpy (eV/cell)     -185.6481
Cycling the Broyden process...

* Maximum dynamic memory allocated =    11 MB

siesta:                 ==============================
                            Begin CG move =      7
                        ==============================

outcell: Unit cell vectors (Ang):
        4.940717    0.000000    0.000000
        0.000000    4.940717    0.000000
        0.000000    0.000000    6.260717

outcell: Cell vector modules (Ang)   :    4.940717    4.940717    6.260717
outcell: Cell angles (23,13,12) (deg):     90.0000     90.0000     90.0000
outcell: Cell volume (Ang**3)        :    152.8284
New_DM. Step:     8
Re-using DM from previous geometry...
Re-using DM without extrapolation (not allowed)
Density Matrix sparsity pattern changed.

siesta: iscf   Eharris(eV)      E_KS(eV)   FreeEng(eV)   dDmax  Ef(eV)
siesta:    1     -185.5965     -185.8727     -185.8925  0.2426  0.7334
siesta:    2     -185.6317     -185.6045     -185.6408  0.0188  0.8431
siesta:    3     -185.6297     -185.6138     -185.6518  0.0141  0.8515
siesta:    4     -185.6299     -185.6200     -185.6569  0.0044  0.8777
siesta:    5     -185.6298     -185.6317     -185.6678  0.0047  0.8635
siesta:    6     -185.6298     -185.6302     -185.6663  0.0014  0.8628
siesta:    7     -185.6298     -185.6294     -185.6655  0.0004  0.8640
siesta:    8     -185.6298     -185.6298     -185.6659  0.0000  0.8653

siesta: E_KS(eV) =             -185.6298

siesta: Atomic forces (eV/Ang):
----------------------------------------
   Tot    0.000000    0.000000    0.000125
----------------------------------------
   Max    0.821811
   Res    0.474437    sqrt( Sum f_i^2 / 3N )
----------------------------------------
   Max    0.821811    constrained

Stress-tensor-Voigt (kbar):       -0.01       -0.01      -15.87        0.00        0.00        0.00
(Free)E + p*V (eV/cell)     -185.1609
Target enthalpy (eV/cell)     -185.6659
Cycling the Broyden process...

* Maximum dynamic memory allocated =    11 MB

siesta:                 ==============================
                            Begin CG move =      8
                        ==============================

outcell: Unit cell vectors (Ang):
        4.940717    0.000000    0.000000
        0.000000    4.940717    0.000000
        0.000000    0.000000    6.260717

outcell: Cell vector modules (Ang)   :    4.940717    4.940717    6.260717
outcell: Cell angles (23,13,12) (deg):     90.0000     90.0000     90.0000
outcell: Cell volume (Ang**3)        :    152.8284
New_DM. Step:     9
Re-using DM from previous geometry...
Re-using DM without extrapolation (not allowed)
Density Matrix sparsity pattern changed.

siesta: iscf   Eharris(eV)      E_KS(eV)   FreeEng(eV)   dDmax  Ef(eV)
siesta:    1     -185.7270     -185.4291     -185.4652  0.2711  0.6455
siesta:    2     -185.7361     -185.6986     -185.6996  0.0274  0.5150
siesta:    3     -185.7323     -185.7041     -185.7073  0.0207  0.5115
siesta:    4     -185.7324     -185.7303     -185.7325  0.0026  0.5146
siesta:    5     -185.7320     -185.7292     -185.7299  0.0014  0.5266
siesta:    6     -185.7320     -185.7311     -185.7319  0.0010  0.5293
siesta:    7     -185.7320     -185.7319     -185.7327  0.0006  0.5301
siesta:    8     -185.7320     -185.7320     -185.7328  0.0000  0.5288

siesta: E_KS(eV) =             -185.7320

siesta: Atomic forces (eV/Ang):
----------------------------------------
   Tot    0.000000    0.000000   -0.013890
----------------------------------------
   Max    1.386682
   Res    0.796602    sqrt( Sum f_i^2 / 3N )
----------------------------------------
   Max    1.386682    constrained

Stress-tensor-Voigt (kbar):       -0.25       -0.25       24.40        0.00        0.00        0.00
(Free)E + p*V (eV/cell)     -186.4928
Target enthalpy (eV/cell)     -185.7328
Cycling the Broyden process...

* Maximum dynamic memory allocated =    11 MB

siesta:                 ==============================
                            Begin CG move =      9
                        ==============================

outcell: Unit cell vectors (Ang):
        4.940717    0.000000    0.000000
        0.000000    4.940717    0.000000
        0.000000    0.000000    6.260717

outcell: Cell vector modules (Ang)   :    4.940717    4.940717    6.260717
outcell: Cell angles (23,13,12) (deg):     90.0000     90.0000     90.0000
outcell: Cell volume (Ang**3)        :    152.8284
New_DM. Step:    10
Re-using DM from previous geometry...
Re-using DM without extrapolation (not allowed)
Density Matrix sparsity pattern changed.

siesta: iscf   Eharris(eV)      E_KS(eV)   FreeEng(eV)   dDmax  Ef(eV)
siesta:    1     -185.5848     -186.3683     -186.3691  0.2788  0.9754
siesta:    2     -185.6749     -185.6552     -185.6911  0.0156  1.0745
siesta:    3     -185.6745     -185.6577     -185.6936  0.0115  1.0818
siesta:    4     -185.6744     -185.6729     -185.7087  0.0012  1.0949
siesta:    5     -185.6744     -185.6743     -185.7101  0.0007  1.0898
siesta:    6     -185.6744     -185.6745     -185.7103  0.0004  1.0885
siesta:    7     -185.6744     -185.6744     -185.7103  0.0001  1.0886
siesta:    8     -185.6744     -185.6744     -185.7103  0.0000  1.0892

siesta: E_KS(eV) =             -185.6744

siesta: Atomic forces (eV/Ang):
----------------------------------------
   Tot    0.000000    0.000000    0.127943
----------------------------------------
   Max    0.243596
   Res    0.110087    sqrt( Sum f_i^2 / 3N )
----------------------------------------
   Max    0.243596    constrained

Stress-tensor-Voigt (kbar):       -0.02       -0.02        2.25        0.00        0.00        0.00
(Free)E + p*V (eV/cell)     -185.7805
Target enthalpy (eV/cell)     -185.7103
Cycling the Broyden process...

* Maximum dynamic memory allocated =    11 MB

siesta:                 ==============================
                            Begin CG move =     10
                        ==============================

outcell: Unit cell vectors (Ang):
        4.940717    0.000000    0.000000
        0.000000    4.940717    0.000000
        0.000000    0.000000    6.260717

outcell: Cell vector modules (Ang)   :    4.940717    4.940717    6.260717
outcell: Cell angles (23,13,12) (deg):     90.0000     90.0000     90.0000
outcell: Cell volume (Ang**3)        :    152.8284
New_DM. Step:    11
Re-using DM from previous geometry...
Re-using DM without extrapolation (not allowed)
Density Matrix sparsity pattern changed.

siesta: iscf   Eharris(eV)      E_KS(eV)   FreeEng(eV)   dDmax  Ef(eV)
siesta:    1     -185.6710     -185.3665     -185.4024  0.2715  0.6638
siesta:    2     -185.6967     -185.6742     -185.6802  0.0250  0.5034
siesta:    3     -185.6968     -185.6766     -185.6840  0.0190  0.5107
siesta:    4     -185.7002     -185.7025     -185.7083  0.0027  0.5323
siesta:    5     -185.7001     -185.6993     -185.7020  0.0017  0.5384
siesta:    6     -185.7001     -185.7000     -185.7027  0.0010  0.5396
siesta:    7     -185.7001     -185.7003     -185.7030  0.0002  0.5399
siesta:    8     -185.7001     -185.7001     -185.7029  0.0001  0.5390

siesta: E_KS(eV) =             -185.7001

siesta: Atomic forces (eV/Ang):
----------------------------------------
   Tot    0.000000    0.000000    0.042719
----------------------------------------
   Max    1.571027
   Res    0.894786    sqrt( Sum f_i^2 / 3N )
----------------------------------------
   Max    1.571027    constrained

Stress-tensor-Voigt (kbar):       -0.26       -0.26       28.05        0.00        0.00        0.00
(Free)E + p*V (eV/cell)     -186.5780
Target enthalpy (eV/cell)     -185.7028
Cycling the Broyden process...

* Maximum dynamic memory allocated =    11 MB

siesta:                 ==============================
                            Begin CG move =     11
                        ==============================

outcell: Unit cell vectors (Ang):
        4.940717    0.000000    0.000000
        0.000000    4.940717    0.000000
        0.000000    0.000000    6.260717

outcell: Cell vector modules (Ang)   :    4.940717    4.940717    6.260717
outcell: Cell angles (23,13,12) (deg):     90.0000     90.0000     90.0000
outcell: Cell volume (Ang**3)        :    152.8284
New_DM. Step:    12
Re-using DM from previous geometry...
Re-using DM without extrapolation (not allowed)
Density Matrix sparsity pattern changed.

siesta: iscf   Eharris(eV)      E_KS(eV)   FreeEng(eV)   dDmax  Ef(eV)
siesta:    1     -185.5693     -186.0611     -186.0638  0.2675  0.7491
siesta:    2     -185.6323     -185.6001     -185.6370  0.0206  0.8391
siesta:    3     -185.6303     -185.6107     -185.6489  0.0155  0.8503
siesta:    4     -185.6305     -185.6150     -185.6520  0.0050  0.8803
siesta:    5     -185.6305     -185.6358     -185.6719  0.0056  0.8654
siesta:    6     -185.6304     -185.6322     -185.6682  0.0018  0.8644
siesta:    7     -185.6304     -185.6299     -185.6660  0.0004  0.8658
siesta:    8     -185.6304     -185.6304     -185.6665  0.0000  0.8672

siesta: E_KS(eV) =             -185.6304

siesta: Atomic forces (eV/Ang):
----------------------------------------
   Tot    0.000000    0.000000    0.030202
----------------------------------------
   Max    0.789893
   Res    0.447411    sqrt( Sum f_i^2 / 3N )
----------------------------------------
   Max    0.789893    constrained

Stress-tensor-Voigt (kbar):        0.01        0.01      -13.86        0.00        0.00        0.00
(Free)E + p*V (eV/cell)     -185.2265
Target enthalpy (eV/cell)     -185.6665
Cycling the Broyden process...

* Maximum dynamic memory allocated =    11 MB

siesta:                 ==============================
                            Begin CG move =     12
                        ==============================

outcell: Unit cell vectors (Ang):
        4.940717    0.000000    0.000000
        0.000000    4.940717    0.000000
        0.000000    0.000000    6.260717

outcell: Cell vector modules (Ang)   :    4.940717    4.940717    6.260717
outcell: Cell angles (23,13,12) (deg):     90.0000     90.0000     90.0000
outcell: Cell volume (Ang**3)        :    152.8284
New_DM. Step:    13
Re-using DM from previous geometry...
Re-using DM without extrapolation (not allowed)
Density Matrix sparsity pattern changed.

siesta: iscf   Eharris(eV)      E_KS(eV)   FreeEng(eV)   dDmax  Ef(eV)
siesta:    1     -185.6442     -185.4800     -185.5160  0.2541  0.6967
siesta:    2     -185.6316     -185.6092     -185.6238  0.0568  0.5449
siesta:    3     -185.6195     -185.5916     -185.6287  0.0181  0.5516
siesta:    4     -185.6369     -185.6214     -185.6534  0.0255  0.5430
siesta:    5     -185.6368     -185.6220     -185.6396  0.0246  0.5430
siesta:    6     -185.6386     -185.6415     -185.6591  0.0034  0.5569
siesta:    7     -185.6388     -185.6396     -185.6558  0.0004  0.5557
siesta:    8     -185.6391     -185.6392     -185.6551  0.0005  0.5533
siesta:    9     -185.6391     -185.6394     -185.6551  0.0001  0.5534
siesta:   10     -185.6391     -185.6394     -185.6549  0.0001  0.5534

siesta: E_KS(eV) =             -185.6391

siesta: Atomic forces (eV/Ang):
----------------------------------------
   Tot    0.000000    0.000000    0.028566
----------------------------------------
   Max    1.549409
   Res    0.886344    sqrt( Sum f_i^2 / 3N )
----------------------------------------
   Max    1.549409    constrained

Stress-tensor-Voigt (kbar):       -0.25       -0.25       28.11        0.00        0.00        0.00
(Free)E + p*V (eV/cell)     -186.5329
Target enthalpy (eV/cell)     -185.6547
Cycling the Broyden process...

* Maximum dynamic memory allocated =    11 MB

siesta:                 ==============================
                            Begin CG move =     13
                        ==============================

outcell: Unit cell vectors (Ang):
        4.940717    0.000000    0.000000
        0.000000    4.940717    0.000000
        0.000000    0.000000    6.260717

outcell: Cell vector modules (Ang)   :    4.940717    4.940717    6.260717
outcell: Cell angles (23,13,12) (deg):     90.0000     90.0000     90.0000
outcell: Cell volume (Ang**3)        :    152.8284
New_DM. Step:    14
Re-using DM from previous geometry...
Re-using DM without extrapolation (not allowed)
Density Matrix sparsity pattern changed.

siesta: iscf   Eharris(eV)      E_KS(eV)   FreeEng(eV)   dDmax  Ef(eV)
siesta:    1     -185.5931     -185.9148     -185.9304  0.2510  0.7487
siesta:    2     -185.6371     -185.6082     -185.6444  0.0191  0.8582
siesta:    3     -185.6350     -185.6162     -185.6532  0.0143  0.8685
siesta:    4     -185.6346     -185.6276     -185.6641  0.0020  0.8920
siesta:    5     -185.6345     -185.6362     -185.6722  0.0031  0.8787
siesta:    6     -185.6345     -185.6346     -185.6705  0.0007  0.8789
siesta:    7     -185.6345     -185.6342     -185.6702  0.0004  0.8796
siesta:    8     -185.6345     -185.6345     -185.6704  0.0000  0.8809

siesta: E_KS(eV) =             -185.6345

siesta: Atomic forces (eV/Ang):
----------------------------------------
   Tot    0.000000    0.000000    0.057072
----------------------------------------
   Max    0.747766
   Res    0.415574    sqrt( Sum f_i^2 / 3N )
----------------------------------------
   Max    0.747766    constrained

Stress-tensor-Voigt (kbar):        0.02        0.02      -12.48        0.00        0.00        0.00
(Free)E + p*V (eV/cell)     -185.2748
Target enthalpy (eV/cell)     -185.6705
Cycling the Broyden process...

* Maximum dynamic memory allocated =    11 MB

siesta:                 ==============================
                            Begin CG move =     14
                        ==============================

outcell: Unit cell vectors (Ang):
        4.940717    0.000000    0.000000
        0.000000    4.940717    0.000000
        0.000000    0.000000    6.260717

outcell: Cell vector modules (Ang)   :    4.940717    4.940717    6.260717
outcell: Cell angles (23,13,12) (deg):     90.0000     90.0000     90.0000
outcell: Cell volume (Ang**3)        :    152.8284
New_DM. Step:    15
Re-using DM from previous geometry...
Re-using DM without extrapolation (not allowed)
Density Matrix sparsity pattern changed.

siesta: iscf   Eharris(eV)      E_KS(eV)   FreeEng(eV)   dDmax  Ef(eV)
siesta:    1     -185.6533     -185.4707     -185.5066  0.2592  0.6912
siesta:    2     -185.6443     -185.6207     -185.6322  0.0401  0.5396
siesta:    3     -185.6350     -185.6060     -185.6364  0.0188  0.5418
siesta:    4     -185.6506     -185.6394     -185.6653  0.0150  0.5361
siesta:    5     -185.6506     -185.6380     -185.6508  0.0168  0.5357
siesta:    6     -185.6519     -185.6547     -185.6675  0.0031  0.5545
siesta:    7     -185.6519     -185.6523     -185.6640  0.0004  0.5524
siesta:    8     -185.6521     -185.6522     -185.6638  0.0002  0.5501
siesta:    9     -185.6522     -185.6523     -185.6637  0.0001  0.5502

siesta: E_KS(eV) =             -185.6523

siesta: Atomic forces (eV/Ang):
----------------------------------------
   Tot    0.000000    0.000000    0.029451
----------------------------------------
   Max    1.601827
   Res    0.916353    sqrt( Sum f_i^2 / 3N )
----------------------------------------
   Max    1.601827    constrained

Stress-tensor-Voigt (kbar):       -0.27       -0.27       29.02        0.00        0.00        0.00
(Free)E + p*V (eV/cell)     -186.5694
Target enthalpy (eV/cell)     -185.6636
Cycling the Broyden process...

* Maximum dynamic memory allocated =    11 MB

siesta:                 ==============================
                            Begin CG move =     15
                        ==============================

outcell: Unit cell vectors (Ang):
        4.940717    0.000000    0.000000
        0.000000    4.940717    0.000000
        0.000000    0.000000    6.260717

outcell: Cell vector modules (Ang)   :    4.940717    4.940717    6.260717
outcell: Cell angles (23,13,12) (deg):     90.0000     90.0000     90.0000
outcell: Cell volume (Ang**3)        :    152.8284
New_DM. Step:    16
Re-using DM from previous geometry...
Re-using DM without extrapolation (not allowed)
Density Matrix sparsity pattern changed.

siesta: iscf   Eharris(eV)      E_KS(eV)   FreeEng(eV)   dDmax  Ef(eV)
siesta:    1     -185.5729     -185.8852     -185.8965  0.2486  0.6891
siesta:    2     -185.6107     -185.5812     -185.6203  0.0327  0.7905
siesta:    3     -185.6057     -185.6161     -185.6627  0.0282  0.7773
siesta:    4     -185.6125     -185.5443     -185.5852  0.0469  0.8478
siesta:    5     -185.6119     -185.5957     -185.6359  0.0014  0.8172
siesta:    6     -185.6122     -185.6136     -185.6515  0.0091  0.8076
siesta:    7     -185.6119     -185.6109     -185.6486  0.0011  0.8106
siesta:    8     -185.6119     -185.6104     -185.6483  0.0014  0.8137
siesta:    9     -185.6119     -185.6116     -185.6495  0.0001  0.8132

siesta: E_KS(eV) =             -185.6119

siesta: Atomic forces (eV/Ang):
----------------------------------------
   Tot    0.000000    0.000000   -0.083684
----------------------------------------
   Max    0.962056
   Res    0.531835    sqrt( Sum f_i^2 / 3N )
----------------------------------------
   Max    0.962056    constrained

Stress-tensor-Voigt (kbar):        0.00        0.00      -16.97        0.00        0.00        0.00
(Free)E + p*V (eV/cell)     -185.1099
Target enthalpy (eV/cell)     -185.6497
Cycling the Broyden process...

* Maximum dynamic memory allocated =    11 MB

siesta:                 ==============================
                            Begin CG move =     16
                        ==============================

outcell: Unit cell vectors (Ang):
        4.940717    0.000000    0.000000
        0.000000    4.940717    0.000000
        0.000000    0.000000    6.260717

outcell: Cell vector modules (Ang)   :    4.940717    4.940717    6.260717
outcell: Cell angles (23,13,12) (deg):     90.0000     90.0000     90.0000
outcell: Cell volume (Ang**3)        :    152.8284
New_DM. Step:    17
Re-using DM from previous geometry...
Re-using DM without extrapolation (not allowed)

siesta: iscf   Eharris(eV)      E_KS(eV)   FreeEng(eV)   dDmax  Ef(eV)
siesta:    1     -185.6242     -185.6338     -185.6717  0.0044  0.8435
siesta:    2     -185.6243     -185.6241     -185.6606  0.0003  0.8522
siesta:    3     -185.6243     -185.6243     -185.6607  0.0002  0.8507
siesta:    4     -185.6243     -185.6242     -185.6605  0.0001  0.8488
siesta:    5     -185.6243     -185.6242     -185.6606  0.0000  0.8488

siesta: E_KS(eV) =             -185.6243

siesta: Atomic forces (eV/Ang):
----------------------------------------
   Tot    0.000000    0.000000   -0.029721
----------------------------------------
   Max    0.877334
   Res    0.498023    sqrt( Sum f_i^2 / 3N )
----------------------------------------
   Max    0.877334    constrained

Stress-tensor-Voigt (kbar):        0.01        0.01      -16.40        0.00        0.00        0.00
(Free)E + p*V (eV/cell)     -185.1396
Target enthalpy (eV/cell)     -185.6606
Cycling the Broyden process...

* Maximum dynamic memory allocated =    11 MB

siesta:                 ==============================
                            Begin CG move =     17
                        ==============================

outcell: Unit cell vectors (Ang):
        4.940717    0.000000    0.000000
        0.000000    4.940717    0.000000
        0.000000    0.000000    6.260717

outcell: Cell vector modules (Ang)   :    4.940717    4.940717    6.260717
outcell: Cell angles (23,13,12) (deg):     90.0000     90.0000     90.0000
outcell: Cell volume (Ang**3)        :    152.8284
New_DM. Step:    18
Re-using DM from previous geometry...
Re-using DM without extrapolation (not allowed)
Density Matrix sparsity pattern changed.

siesta: iscf   Eharris(eV)      E_KS(eV)   FreeEng(eV)   dDmax  Ef(eV)
siesta:    1     -185.5860     -185.5692     -185.6056  0.0328  0.7748
siesta:    2     -185.5866     -185.5860     -185.6306  0.0023  0.7379
siesta:    3     -185.5863     -185.5854     -185.6297  0.0019  0.7416
siesta:    4     -185.5861     -185.5867     -185.6312  0.0007  0.7420
siesta:    5     -185.5861     -185.5862     -185.6309  0.0002  0.7431
siesta:    6     -185.5860     -185.5861     -185.6309  0.0001  0.7431
siesta:    7     -185.5860     -185.5861     -185.6309  0.0001  0.7430

siesta: E_KS(eV) =             -185.5860

siesta: Atomic forces (eV/Ang):
----------------------------------------
   Tot    0.000000    0.000000   -0.093152
----------------------------------------
   Max    0.814900
   Res    0.444406    sqrt( Sum f_i^2 / 3N )
----------------------------------------
   Max    0.814900    constrained

Stress-tensor-Voigt (kbar):       -0.01       -0.01      -14.62        0.00        0.00        0.00
(Free)E + p*V (eV/cell)     -185.1653
Target enthalpy (eV/cell)     -185.6308
Cycling the Broyden process...

* Maximum dynamic memory allocated =    11 MB

siesta:                 ==============================
                            Begin CG move =     18
                        ==============================

outcell: Unit cell vectors (Ang):
        4.940717    0.000000    0.000000
        0.000000    4.940717    0.000000
        0.000000    0.000000    6.260717

outcell: Cell vector modules (Ang)   :    4.940717    4.940717    6.260717
outcell: Cell angles (23,13,12) (deg):     90.0000     90.0000     90.0000
outcell: Cell volume (Ang**3)        :    152.8284
New_DM. Step:    19
Re-using DM from previous geometry...
Re-using DM without extrapolation (not allowed)

siesta: iscf   Eharris(eV)      E_KS(eV)   FreeEng(eV)   dDmax  Ef(eV)
siesta:    1     -185.5852     -185.5329     -185.5777  0.1415  0.6990
siesta:    2     -185.5902     -185.5672     -185.6086  0.1092  0.6055
siesta:    3     -185.5723     -185.5589     -185.6071  0.0072  0.6355
siesta:    4     -185.5763     -185.5708     -185.6195  0.0302  0.6265
siesta:    5     -185.5755     -185.5732     -185.6189  0.0180  0.6224
siesta:    6     -185.5752     -185.5743     -185.6206  0.0078  0.6219
siesta:    7     -185.5750     -185.5753     -185.6218  0.0009  0.6202
siesta:    8     -185.5751     -185.5752     -185.6219  0.0002  0.6184
siesta:    9     -185.5751     -185.5751     -185.6218  0.0001  0.6184
siesta:   10     -185.5751     -185.5751     -185.6218  0.0000  0.6182

siesta: E_KS(eV) =             -185.5751

siesta: Atomic forces (eV/Ang):
----------------------------------------
   Tot    0.000000    0.000000   -0.005566
----------------------------------------
   Max    0.371839
   Res    0.213081    sqrt( Sum f_i^2 / 3N )
----------------------------------------
   Max    0.371839    constrained

Stress-tensor-Voigt (kbar):       -0.04       -0.04        7.00        0.00        0.00        0.00
(Free)E + p*V (eV/cell)     -185.8419
Target enthalpy (eV/cell)     -185.6217
Cycling the Broyden process...

* Maximum dynamic memory allocated =    11 MB

siesta:                 ==============================
                            Begin CG move =     19
                        ==============================

outcell: Unit cell vectors (Ang):
        4.940717    0.000000    0.000000
        0.000000    4.940717    0.000000
        0.000000    0.000000    6.260717

outcell: Cell vector modules (Ang)   :    4.940717    4.940717    6.260717
outcell: Cell angles (23,13,12) (deg):     90.0000     90.0000     90.0000
outcell: Cell volume (Ang**3)        :    152.8284
New_DM. Step:    20
Re-using DM from previous geometry...
Re-using DM without extrapolation (not allowed)

siesta: iscf   Eharris(eV)      E_KS(eV)   FreeEng(eV)   dDmax  Ef(eV)
siesta:    1     -185.5921     -185.6448     -185.6914  0.1250  0.6757
siesta:    2     -185.5900     -185.5824     -185.6235  0.0629  0.7582
siesta:    3     -185.5856     -185.6002     -185.6494  0.0245  0.7268
siesta:    4     -185.5868     -185.5709     -185.6162  0.0311  0.7692
siesta:    5     -185.5885     -185.5839     -185.6302  0.0086  0.7492
siesta:    6     -185.5883     -185.5877     -185.6312  0.0068  0.7474
siesta:    7     -185.5880     -185.5871     -185.6307  0.0004  0.7509
siesta:    8     -185.5880     -185.5873     -185.6312  0.0001  0.7517
siesta:    9     -185.5880     -185.5877     -185.6316  0.0001  0.7522

siesta: E_KS(eV) =             -185.5880

siesta: Atomic forces (eV/Ang):
----------------------------------------
   Tot    0.000000    0.000000   -0.062328
----------------------------------------
   Max    0.855452
   Res    0.476243    sqrt( Sum f_i^2 / 3N )
----------------------------------------
   Max    0.855452    constrained

Stress-tensor-Voigt (kbar):        0.00        0.00      -16.17        0.00        0.00        0.00
(Free)E + p*V (eV/cell)     -185.1175
Target enthalpy (eV/cell)     -185.6320
Cycling the Broyden process...

* Maximum dynamic memory allocated =    11 MB

siesta:                 ==============================
                            Begin CG move =     20
                        ==============================

outcell: Unit cell vectors (Ang):
        4.940717    0.000000    0.000000
        0.000000    4.940717    0.000000
        0.000000    0.000000    6.260717

outcell: Cell vector modules (Ang)   :    4.940717    4.940717    6.260717
outcell: Cell angles (23,13,12) (deg):     90.0000     90.0000     90.0000
outcell: Cell volume (Ang**3)        :    152.8284
New_DM. Step:    21
Re-using DM from previous geometry...
Re-using DM without extrapolation (not allowed)
Density Matrix sparsity pattern changed.

siesta: iscf   Eharris(eV)      E_KS(eV)   FreeEng(eV)   dDmax  Ef(eV)
siesta:    1     -185.6172     -185.5076     -185.5515  0.2013  0.6853
siesta:    2     -185.6063     -185.5844     -185.6099  0.1027  0.5697
siesta:    3     -185.5890     -185.5672     -185.6154  0.0124  0.5886
siesta:    4     -185.6016     -185.5887     -185.6316  0.0360  0.5754
siesta:    5     -185.6008     -185.5926     -185.6253  0.0260  0.5729
siesta:    6     -185.6007     -185.6007     -185.6340  0.0033  0.5741
siesta:    7     -185.6013     -185.6019     -185.6352  0.0007  0.5742
siesta:    8     -185.6018     -185.6024     -185.6352  0.0002  0.5720
siesta:    9     -185.6018     -185.6023     -185.6346  0.0002  0.5718
siesta:   10     -185.6018     -185.6019     -185.6342  0.0001  0.5716

siesta: E_KS(eV) =             -185.6018

siesta: Atomic forces (eV/Ang):
----------------------------------------
   Tot    0.000000    0.000000   -0.028798
----------------------------------------
   Max    1.147761
   Res    0.654400    sqrt( Sum f_i^2 / 3N )
----------------------------------------
   Max    1.147761    constrained

Stress-tensor-Voigt (kbar):       -0.09       -0.09       20.95        0.00        0.00        0.00
(Free)E + p*V (eV/cell)     -186.2948
Target enthalpy (eV/cell)     -185.6342
Cycling the Broyden process...

* Maximum dynamic memory allocated =    11 MB

siesta:                 ==============================
                            Begin CG move =     21
                        ==============================

outcell: Unit cell vectors (Ang):
        4.940717    0.000000    0.000000
        0.000000    4.940717    0.000000
        0.000000    0.000000    6.260717

outcell: Cell vector modules (Ang)   :    4.940717    4.940717    6.260717
outcell: Cell angles (23,13,12) (deg):     90.0000     90.0000     90.0000
outcell: Cell volume (Ang**3)        :    152.8284
New_DM. Step:    22
Re-using DM from previous geometry...
Re-using DM without extrapolation (not allowed)
Density Matrix sparsity pattern changed.

siesta: iscf   Eharris(eV)      E_KS(eV)   FreeEng(eV)   dDmax  Ef(eV)
siesta:    1     -185.6236     -185.8560     -185.8883  0.2128  0.7923
siesta:    2     -185.6483     -185.6306     -185.6665  0.0152  0.9091
siesta:    3     -185.6472     -185.6347     -185.6706  0.0114  0.9167
siesta:    4     -185.6467     -185.6446     -185.6805  0.0014  0.9299
siesta:    5     -185.6466     -185.6465     -185.6823  0.0007  0.9214
siesta:    6     -185.6466     -185.6462     -185.6821  0.0003  0.9226
siesta:    7     -185.6466     -185.6464     -185.6823  0.0002  0.9224
siesta:    8     -185.6466     -185.6466     -185.6825  0.0000  0.9231

siesta: E_KS(eV) =             -185.6466

siesta: Atomic forces (eV/Ang):
----------------------------------------
   Tot    0.000000    0.000000    0.091558
----------------------------------------
   Max    0.672703
   Res    0.362919    sqrt( Sum f_i^2 / 3N )
----------------------------------------
   Max    0.672703    constrained

Stress-tensor-Voigt (kbar):       -0.01       -0.01      -11.81        0.00        0.00        0.00
(Free)E + p*V (eV/cell)     -185.3064
Target enthalpy (eV/cell)     -185.6825
Cycling the Broyden process...

* Maximum dynamic memory allocated =    11 MB

siesta:                 ==============================
                            Begin CG move =     22
                        ==============================

outcell: Unit cell vectors (Ang):
        4.940717    0.000000    0.000000
        0.000000    4.940717    0.000000
        0.000000    0.000000    6.260717

outcell: Cell vector modules (Ang)   :    4.940717    4.940717    6.260717
outcell: Cell angles (23,13,12) (deg):     90.0000     90.0000     90.0000
outcell: Cell volume (Ang**3)        :    152.8284
New_DM. Step:    23
Re-using DM from previous geometry...
Re-using DM without extrapolation (not allowed)
Density Matrix sparsity pattern changed.

siesta: iscf   Eharris(eV)      E_KS(eV)   FreeEng(eV)   dDmax  Ef(eV)
siesta:    1     -185.5734     -185.5026     -185.5384  0.1465  0.7358
siesta:    2     -185.5786     -185.5675     -185.6138  0.0688  0.6084
siesta:    3     -185.5706     -185.5513     -185.6001  0.0136  0.6453
siesta:    4     -185.5734     -185.5715     -185.6207  0.0197  0.6320
siesta:    5     -185.5740     -185.5710     -185.6185  0.0267  0.6338
siesta:    6     -185.5732     -185.5729     -185.6200  0.0048  0.6325
siesta:    7     -185.5731     -185.5733     -185.6210  0.0011  0.6307
siesta:    8     -185.5732     -185.5734     -185.6212  0.0001  0.6280
siesta:    9     -185.5732     -185.5734     -185.6211  0.0001  0.6278
siesta:   10     -185.5732     -185.5733     -185.6210  0.0001  0.6276

siesta: E_KS(eV) =             -185.5732

siesta: Atomic forces (eV/Ang):
----------------------------------------
   Tot    0.000000    0.000000    0.000770
----------------------------------------
   Max    0.248058
   Res    0.142994    sqrt( Sum f_i^2 / 3N )
----------------------------------------
   Max    0.248058    constrained

Stress-tensor-Voigt (kbar):       -0.05       -0.05        4.66        0.00        0.00        0.00
(Free)E + p*V (eV/cell)     -185.7658
Target enthalpy (eV/cell)     -185.6209
Cycling the Broyden process...

* Maximum dynamic memory allocated =    11 MB

siesta:                 ==============================
                            Begin CG move =     23
                        ==============================

outcell: Unit cell vectors (Ang):
        4.940717    0.000000    0.000000
        0.000000    4.940717    0.000000
        0.000000    0.000000    6.260717

outcell: Cell vector modules (Ang)   :    4.940717    4.940717    6.260717
outcell: Cell angles (23,13,12) (deg):     90.0000     90.0000     90.0000
outcell: Cell volume (Ang**3)        :    152.8284
New_DM. Step:    24
Re-using DM from previous geometry...
Re-using DM without extrapolation (not allowed)

siesta: iscf   Eharris(eV)      E_KS(eV)   FreeEng(eV)   dDmax  Ef(eV)
siesta:    1     -185.5770     -185.6096     -185.6573  0.0806  0.6552
siesta:    2     -185.5796     -185.5721     -185.6191  0.0628  0.7091
siesta:    3     -185.5739     -185.5858     -185.6346  0.0151  0.6836
siesta:    4     -185.5745     -185.5665     -185.6153  0.0145  0.7057
siesta:    5     -185.5750     -185.5733     -185.6222  0.0083  0.6957
siesta:    6     -185.5748     -185.5743     -185.6225  0.0022  0.6969
siesta:    7     -185.5748     -185.5743     -185.6227  0.0002  0.6980
siesta:    8     -185.5748     -185.5744     -185.6228  0.0000  0.6987

siesta: E_KS(eV) =             -185.5746

siesta: Atomic forces (eV/Ang):
----------------------------------------
   Tot    0.000000    0.000000   -0.026419
----------------------------------------
   Max    0.481081
   Res    0.270233    sqrt( Sum f_i^2 / 3N )
----------------------------------------
   Max    0.481081    constrained

Stress-tensor-Voigt (kbar):       -0.02       -0.02       -9.06        0.00        0.00        0.00
(Free)E + p*V (eV/cell)     -185.3338
Target enthalpy (eV/cell)     -185.6230
Cycling the Broyden process...

* Maximum dynamic memory allocated =    11 MB

siesta:                 ==============================
                            Begin CG move =     24
                        ==============================

outcell: Unit cell vectors (Ang):
        4.940717    0.000000    0.000000
        0.000000    4.940717    0.000000
        0.000000    0.000000    6.260717

outcell: Cell vector modules (Ang)   :    4.940717    4.940717    6.260717
outcell: Cell angles (23,13,12) (deg):     90.0000     90.0000     90.0000
outcell: Cell volume (Ang**3)        :    152.8284
New_DM. Step:    25
Re-using DM from previous geometry...
Re-using DM without extrapolation (not allowed)

siesta: iscf   Eharris(eV)      E_KS(eV)   FreeEng(eV)   dDmax  Ef(eV)
siesta:    1     -185.5782     -185.5410     -185.5894  0.0912  0.6728
siesta:    2     -185.5793     -185.5709     -185.6156  0.0735  0.6149
siesta:    3     -185.5723     -185.5617     -185.6109  0.0064  0.6358
siesta:    4     -185.5742     -185.5730     -185.6215  0.0136  0.6270
siesta:    5     -185.5740     -185.5739     -185.6209  0.0096  0.6258
siesta:    6     -185.5739     -185.5739     -185.6211  0.0024  0.6258
siesta:    7     -185.5738     -185.5740     -185.6214  0.0004  0.6250
siesta:    8     -185.5739     -185.5739     -185.6213  0.0000  0.6239

siesta: E_KS(eV) =             -185.5739

siesta: Atomic forces (eV/Ang):
----------------------------------------
   Tot    0.000000    0.000000   -0.000468
----------------------------------------
   Max    0.292754
   Res    0.168887    sqrt( Sum f_i^2 / 3N )
----------------------------------------
   Max    0.292754    constrained

Stress-tensor-Voigt (kbar):       -0.07       -0.07        5.46        0.00        0.00        0.00
(Free)E + p*V (eV/cell)     -185.7907
Target enthalpy (eV/cell)     -185.6212
Cycling the Broyden process...

* Maximum dynamic memory allocated =    11 MB

siesta:                 ==============================
                            Begin CG move =     25
                        ==============================

outcell: Unit cell vectors (Ang):
        4.940717    0.000000    0.000000
        0.000000    4.940717    0.000000
        0.000000    0.000000    6.260717

outcell: Cell vector modules (Ang)   :    4.940717    4.940717    6.260717
outcell: Cell angles (23,13,12) (deg):     90.0000     90.0000     90.0000
outcell: Cell volume (Ang**3)        :    152.8284
New_DM. Step:    26
Re-using DM from previous geometry...
Re-using DM without extrapolation (not allowed)

siesta: iscf   Eharris(eV)      E_KS(eV)   FreeEng(eV)   dDmax  Ef(eV)
siesta:    1     -185.5751     -185.6083     -185.6557  0.0772  0.6493
siesta:    2     -185.5787     -185.5707     -185.6185  0.0613  0.7001
siesta:    3     -185.5727     -185.5846     -185.6331  0.0143  0.6759
siesta:    4     -185.5732     -185.5653     -185.6144  0.0131  0.6963
siesta:    5     -185.5736     -185.5719     -185.6211  0.0080  0.6872
siesta:    6     -185.5734     -185.5729     -185.6216  0.0017  0.6885
siesta:    7     -185.5734     -185.5729     -185.6217  0.0002  0.6894
siesta:    8     -185.5734     -185.5731     -185.6219  0.0000  0.6902

siesta: E_KS(eV) =             -185.5732

siesta: Atomic forces (eV/Ang):
----------------------------------------
   Tot    0.000000    0.000000   -0.023575
----------------------------------------
   Max    0.407949
   Res    0.228825    sqrt( Sum f_i^2 / 3N )
----------------------------------------
   Max    0.407949    constrained

Stress-tensor-Voigt (kbar):       -0.02       -0.02       -7.70        0.00        0.00        0.00
(Free)E + p*V (eV/cell)     -185.3757
Target enthalpy (eV/cell)     -185.6220
Cycling the Broyden process...

* Maximum dynamic memory allocated =    11 MB

siesta:                 ==============================
                            Begin CG move =     26
                        ==============================

outcell: Unit cell vectors (Ang):
        4.940717    0.000000    0.000000
        0.000000    4.940717    0.000000
        0.000000    0.000000    6.260717

outcell: Cell vector modules (Ang)   :    4.940717    4.940717    6.260717
outcell: Cell angles (23,13,12) (deg):     90.0000     90.0000     90.0000
outcell: Cell volume (Ang**3)        :    152.8284
New_DM. Step:    27
Re-using DM from previous geometry...
Re-using DM without extrapolation (not allowed)

siesta: iscf   Eharris(eV)      E_KS(eV)   FreeEng(eV)   dDmax  Ef(eV)
siesta:    1     -185.5741     -185.5493     -185.5981  0.0646  0.6715
siesta:    2     -185.5752     -185.5704     -185.6176  0.0542  0.6293
siesta:    3     -185.5712     -185.5636     -185.6127  0.0053  0.6458
siesta:    4     -185.5721     -185.5722     -185.6211  0.0077  0.6386
siesta:    5     -185.5720     -185.5726     -185.6210  0.0051  0.6379
siesta:    6     -185.5720     -185.5721     -185.6205  0.0012  0.6383
siesta:    7     -185.5719     -185.5721     -185.6206  0.0002  0.6377
siesta:    8     -185.5720     -185.5720     -185.6205  0.0000  0.6370

siesta: E_KS(eV) =             -185.5720

siesta: Atomic forces (eV/Ang):
----------------------------------------
   Tot    0.000000    0.000000    0.001026
----------------------------------------
   Max    0.135683
   Res    0.078041    sqrt( Sum f_i^2 / 3N )
----------------------------------------
   Max    0.135683    constrained

Stress-tensor-Voigt (kbar):       -0.06       -0.06        2.53        0.00        0.00        0.00
(Free)E + p*V (eV/cell)     -185.6973
Target enthalpy (eV/cell)     -185.6205
Cycling the Broyden process...

* Maximum dynamic memory allocated =    11 MB

siesta:                 ==============================
                            Begin CG move =     27
                        ==============================

outcell: Unit cell vectors (Ang):
        4.940717    0.000000    0.000000
        0.000000    4.940717    0.000000
        0.000000    0.000000    6.260717

outcell: Cell vector modules (Ang)   :    4.940717    4.940717    6.260717
outcell: Cell angles (23,13,12) (deg):     90.0000     90.0000     90.0000
outcell: Cell volume (Ang**3)        :    152.8284
New_DM. Step:    28
Re-using DM from previous geometry...
Re-using DM without extrapolation (not allowed)

siesta: iscf   Eharris(eV)      E_KS(eV)   FreeEng(eV)   dDmax  Ef(eV)
siesta:    1     -185.5714     -185.5860     -185.6344  0.0338  0.6471
siesta:    2     -185.5728     -185.5704     -185.6197  0.0283  0.6689
siesta:    3     -185.5711     -185.5762     -185.6249  0.0051  0.6589
siesta:    4     -185.5711     -185.5687     -185.6180  0.0022  0.6658
siesta:    5     -185.5711     -185.5708     -185.6202  0.0030  0.6632
siesta:    6     -185.5711     -185.5709     -185.6202  0.0002  0.6639
siesta:    7     -185.5711     -185.5710     -185.6203  0.0001  0.6641

siesta: E_KS(eV) =             -185.5711

siesta: Atomic forces (eV/Ang):
----------------------------------------
   Tot    0.000000    0.000000   -0.003817
----------------------------------------
   Max    0.155092
   Res    0.088447    sqrt( Sum f_i^2 / 3N )
----------------------------------------
   Max    0.155092    constrained

Stress-tensor-Voigt (kbar):        0.00        0.00       -2.87        0.00        0.00        0.00
(Free)E + p*V (eV/cell)     -185.5291
Target enthalpy (eV/cell)     -185.6205
Cycling the Broyden process...

* Maximum dynamic memory allocated =    11 MB

siesta:                 ==============================
                            Begin CG move =     28
                        ==============================

outcell: Unit cell vectors (Ang):
        4.940717    0.000000    0.000000
        0.000000    4.940717    0.000000
        0.000000    0.000000    6.260717

outcell: Cell vector modules (Ang)   :    4.940717    4.940717    6.260717
outcell: Cell angles (23,13,12) (deg):     90.0000     90.0000     90.0000
outcell: Cell volume (Ang**3)        :    152.8284
New_DM. Step:    29
Re-using DM from previous geometry...
Re-using DM without extrapolation (not allowed)

siesta: iscf   Eharris(eV)      E_KS(eV)   FreeEng(eV)   dDmax  Ef(eV)
siesta:    1     -185.5727     -185.5580     -185.6074  0.0340  0.6548
siesta:    2     -185.5722     -185.5717     -185.6197  0.0284  0.6333
siesta:    3     -185.5716     -185.5670     -185.6163  0.0035  0.6421
siesta:    4     -185.5719     -185.5728     -185.6216  0.0023  0.6375
siesta:    5     -185.5719     -185.5733     -185.6217  0.0017  0.6367
siesta:    6     -185.5719     -185.5721     -185.6207  0.0002  0.6378
siesta:    7     -185.5719     -185.5720     -185.6205  0.0001  0.6376
siesta:    8     -185.5719     -185.5720     -185.6205  0.0000  0.6373

siesta: E_KS(eV) =             -185.5720

siesta: Atomic forces (eV/Ang):
----------------------------------------
   Tot    0.000000    0.000000    0.001472
----------------------------------------
   Max    0.132767
   Res    0.076229    sqrt( Sum f_i^2 / 3N )
----------------------------------------
   Max    0.132767    constrained

Stress-tensor-Voigt (kbar):       -0.05       -0.05        2.48        0.00        0.00        0.00
(Free)E + p*V (eV/cell)     -185.6958
Target enthalpy (eV/cell)     -185.6205
Cycling the Broyden process...

* Maximum dynamic memory allocated =    11 MB

siesta:                 ==============================
                            Begin CG move =     29
                        ==============================

outcell: Unit cell vectors (Ang):
        4.940717    0.000000    0.000000
        0.000000    4.940717    0.000000
        0.000000    0.000000    6.260717

outcell: Cell vector modules (Ang)   :    4.940717    4.940717    6.260717
outcell: Cell angles (23,13,12) (deg):     90.0000     90.0000     90.0000
outcell: Cell volume (Ang**3)        :    152.8284
New_DM. Step:    30
Re-using DM from previous geometry...
Re-using DM without extrapolation (not allowed)

siesta: iscf   Eharris(eV)      E_KS(eV)   FreeEng(eV)   dDmax  Ef(eV)
siesta:    1     -185.5711     -185.5828     -185.6313  0.0263  0.6450
siesta:    2     -185.5722     -185.5705     -185.6199  0.0220  0.6618
siesta:    3     -185.5710     -185.5750     -185.6238  0.0038  0.6542
siesta:    4     -185.5710     -185.5692     -185.6184  0.0013  0.6594
siesta:    5     -185.5710     -185.5708     -185.6201  0.0021  0.6575
siesta:    6     -185.5710     -185.5708     -185.6201  0.0001  0.6581
siesta:    7     -185.5710     -185.5709     -185.6202  0.0001  0.6582

siesta: E_KS(eV) =             -185.5710

siesta: Atomic forces (eV/Ang):
----------------------------------------
   Tot    0.000000    0.000000   -0.003029
----------------------------------------
   Max    0.095254
   Res    0.054128    sqrt( Sum f_i^2 / 3N )
----------------------------------------
   Max    0.095254    constrained

Stress-tensor-Voigt (kbar):       -0.01       -0.01       -1.74        0.00        0.00        0.00
(Free)E + p*V (eV/cell)     -185.5642
Target enthalpy (eV/cell)     -185.6203
Cycling the Broyden process...

* Maximum dynamic memory allocated =    11 MB

siesta:                 ==============================
                            Begin CG move =     30
                        ==============================

outcell: Unit cell vectors (Ang):
        4.940717    0.000000    0.000000
        0.000000    4.940717    0.000000
        0.000000    0.000000    6.260717

outcell: Cell vector modules (Ang)   :    4.940717    4.940717    6.260717
outcell: Cell angles (23,13,12) (deg):     90.0000     90.0000     90.0000
outcell: Cell volume (Ang**3)        :    152.8284
New_DM. Step:    31
Re-using DM from previous geometry...
Re-using DM without extrapolation (not allowed)

siesta: iscf   Eharris(eV)      E_KS(eV)   FreeEng(eV)   dDmax  Ef(eV)
siesta:    1     -185.5715     -185.5649     -185.6142  0.0157  0.6539
siesta:    2     -185.5712     -185.5713     -185.6201  0.0134  0.6438
siesta:    3     -185.5712     -185.5690     -185.6183  0.0018  0.6482
siesta:    4     -185.5713     -185.5718     -185.6209  0.0006  0.6457
siesta:    5     -185.5712     -185.5717     -185.6207  0.0013  0.6457
siesta:    6     -185.5713     -185.5714     -185.6203  0.0001  0.6461

siesta: E_KS(eV) =             -185.5713

siesta: Atomic forces (eV/Ang):
----------------------------------------
   Tot    0.000000    0.000000   -0.000394
----------------------------------------
   Max    0.036000
   Res    0.020671    sqrt( Sum f_i^2 / 3N )
----------------------------------------
   Max    0.036000    constrained

Stress-tensor-Voigt (kbar):       -0.04       -0.04        0.68        0.00        0.00        0.00
(Free)E + p*V (eV/cell)     -185.6394
Target enthalpy (eV/cell)     -185.6203

* Maximum dynamic memory allocated =    11 MB

outcoor: Relaxed atomic coordinates (Ang):                  
    0.00000000    0.00000000   -0.25836571   1       1  O-Fraction-0.50000
    0.00000000    0.00000000    1.52829559   1       2  O-Fraction-0.50000

siesta: Program's energy decomposition (eV):
siesta: Ebs     =       -59.861641
siesta: Eions   =       388.219918
siesta: Ena     =       180.238984
siesta: Ekin    =       104.196018
siesta: Enl     =        18.733714
siesta: DEna    =       -47.485665
siesta: DUscf   =         4.653411
siesta: DUext   =         0.000000
siesta: Exc     =       -57.687868
siesta: eta*DQ  =         0.000000
siesta: Emadel  =         0.000000
siesta: Emeta   =         0.000000
siesta: Emolmec =         0.000000
siesta: Ekinion =         0.000000
siesta: Eharris =      -185.571262
siesta: Etot    =      -185.571324
siesta: FreeEng =      -185.620291

siesta: Final energy (eV):
siesta:  Band Struct. =     -59.861641
siesta:       Kinetic =     104.196018
siesta:       Hartree =      91.762741
siesta:    Ext. field =       0.000000
siesta:   Exch.-corr. =     -57.687868
siesta:  Ion-electron =    -272.167342
siesta:       Ion-ion =     -51.674872
siesta:       Ekinion =       0.000000
siesta:         Total =    -185.571324

siesta: Stress tensor (static) (eV/Ang**3):
siesta:    -0.000025    0.000000    0.000000
siesta:     0.000000   -0.000025    0.000000
siesta:     0.000000    0.000000    0.000425

siesta: Cell volume =        152.828404 Ang**3

siesta: Pressure (static):
siesta:                Solid            Molecule  Units
siesta:          -0.00000136          0.00000016  Ry/Bohr**3
siesta:          -0.00012496          0.00001456  eV/Ang**3
siesta:          -0.20021402          0.02332548  kBar
(Free)E+ p_basis*V_orbitals  =        -185.188658
(Free)Eharris+ p_basis*V_orbitals  =        -185.188568

siesta: Total spin polarization (Qup-Qdown) =    1.999992

siesta: Electric dipole (a.u.)  =    0.000000    0.000000    0.000009
siesta: Electric dipole (Debye) =    0.000000    0.000000    0.000022

* Maximum dynamic memory allocated : Node    0 =    11 MB

* Maximum memory occured during poison                        

timer: CPU execution times:
timer:  Routine       Calls   Time/call    Tot.time        %
timer:  siesta            1      78.338      78.338   100.00
timer:  Setup             1       0.184       0.184     0.24
timer:  bands             1       0.000       0.000     0.00
timer:  writewave         1       0.001       0.001     0.00
timer:  KSV_init          1       0.000       0.000     0.00
timer:  IterMD           31       2.521      78.147    99.76
timer:  hsparse          31       0.001       0.024     0.03
timer:  overlap          31       0.011       0.338     0.43
timer:  IterSCF         250       0.254      63.540    81.11
timer:  kinefsm          62       0.006       0.353     0.45
timer:  nlefsm           62       0.017       1.063     1.36
timer:  DHSCF           281       0.269      75.453    96.32
timer:  DHSCF1            1       0.029       0.029     0.04
timer:  DHSCF2           31       0.215       6.652     8.49
timer:  REORD          3153       0.000       1.037     1.32
timer:  POISON          312       0.017       5.434     6.94
timer:  DHSCF3          281       0.218      61.360    78.33
timer:  rhoofd          281       0.050      13.942    17.80
timer:  cellXC          281       0.078      21.944    28.01
timer:  vmat            281       0.061      17.244    22.01
timer:  MolMec           62       0.000       0.001     0.00
timer:  diagon          250       0.001       0.216     0.28
timer:  r-eigvec        250       0.001       0.300     0.38
timer:  r-buildHS       250       0.000       0.112     0.14
timer:  rdiag           500       0.000       0.185     0.24
timer:  rdiag1          500       0.000       0.007     0.01
timer:  rdiag2          500       0.000       0.019     0.02
timer:  rdiag3          500       0.000       0.140     0.18
timer:  rdiag4          500       0.000       0.008     0.01
timer:  r-buildD        250       0.000       0.005     0.01
timer:  DHSCF4           31       0.232       7.196     9.19
timer:  dfscf            31       0.210       6.512     8.31
timer:  overfsm          31       0.001       0.033     0.04
timer:  optical           1       0.000       0.000     0.00
  

elaps: ELAPSED times:
elaps:  Routine       Calls   Time/call    Tot.time        %
elaps:  siesta            1      79.567      79.567   100.00
elaps:  Setup             1       0.206       0.206     0.26
elaps:  bands             1       0.000       0.000     0.00
elaps:  writewave         1       0.001       0.001     0.00
elaps:  KSV_init          1       0.000       0.000     0.00
elaps:  IterMD           31       2.560      79.355    99.73
elaps:  hsparse          31       0.001       0.024     0.03
elaps:  overlap          31       0.012       0.358     0.45
elaps:  IterSCF         250       0.257      64.165    80.64
elaps:  kinefsm          62       0.006       0.364     0.46
elaps:  nlefsm           62       0.017       1.071     1.35
elaps:  DHSCF           281       0.270      75.877    95.36
elaps:  DHSCF1            1       0.029       0.029     0.04
elaps:  DHSCF2           31       0.216       6.699     8.42
elaps:  REORD          3153       0.000       1.043     1.31
elaps:  POISON          312       0.018       5.476     6.88
elaps:  DHSCF3          281       0.220      61.699    77.54
elaps:  rhoofd          281       0.050      14.032    17.64
elaps:  cellXC          281       0.078      22.050    27.71
elaps:  vmat            281       0.062      17.333    21.78
elaps:  MolMec           62       0.000       0.000     0.00
elaps:  diagon          250       0.001       0.218     0.27
elaps:  r-eigvec        250       0.001       0.304     0.38
elaps:  r-buildHS       250       0.000       0.113     0.14
elaps:  rdiag           500       0.000       0.187     0.24
elaps:  rdiag1          500       0.000       0.006     0.01
elaps:  rdiag2          500       0.000       0.019     0.02
elaps:  rdiag3          500       0.000       0.143     0.18
elaps:  rdiag4          500       0.000       0.009     0.01
elaps:  r-buildD        250       0.000       0.005     0.01
elaps:  DHSCF4           31       0.233       7.232     9.09
elaps:  dfscf            31       0.211       6.542     8.22
elaps:  overfsm          31       0.001       0.033     0.04
elaps:  optical           1       0.000       0.000     0.00
  
>> End of run:  10-JUN-2011  14:37:58
