Siesta Version: siesta@uam.es--2006/siesta-devel--reference--2.1--patch-32
Architecture  : i686-pc-linux-gnu--Intel
Compiler flags: ifort -O2 -mp -check all
SERIAL version

* Running in serial mode
>> Start of run:  22-JAN-2007   9:22:00

                           ***********************       
                           *  WELCOME TO SIESTA  *       
                           ***********************       

reinit: Reading from standard input
************************** Dump of input data file ****************************
SystemName          Oxypartial
SystemLabel         oxypartial
NumberOfAtoms       2
NumberOfSpecies     1
MeshCutoff 200 Ry
%block ChemicalSpeciesLabel
 1  201  O-Fraction-0.50000      # Species index, atomic number, species label
%endblock ChemicalSpeciesLabel
%block SyntheticAtoms
 1
 2 2 3 4
 1.0 2.0 0.0 0.0
%endblock SyntheticAtoms
%block PAO.basis
O-Fraction-0.50000  2                 # Species label, number of l-shells
 n=2   0   2                         # n, l, Nzeta
 0.0 0.0
   1.000      1.000
 n=2   1   2 P   1                   # n, l, Nzeta, Polarization, NzetaPol
   4.139      2.740
   1.000      1.000
%endblock PAO.Basis
DM.NumberPulay 4
Spin.Polarized T
AtomicCoordinatesFormat  Ang
%block AtomicCoordinatesAndAtomicSpecies
 0.000  0.000  0.000  1
 0.000  0.000  1.200  1
%endblock AtomicCoordinatesAndAtomicSpecies
MD.TypeOfRun Broyden
MD.NumCGSteps 40
************************** End of input data file *****************************

reinit: -----------------------------------------------------------------------
reinit: System Name: Oxypartial                                                 
reinit: -----------------------------------------------------------------------
reinit: System Label: oxypartial                                                  
reinit: -----------------------------------------------------------------------

initatom: Reading input for the pseudopotentials and atomic orbitals ----------
 Species number:            1  Label: O-Fraction-0.50000 Atomic number:
         201
Reading pseudopotential information in formatted form from O-Fraction-0.50000.psf

Valence configuration for pseudopotential generation:
Dumping pseudopotential information in formatted form in SX.psdump
Ground state valence configuration (synthetic):   2s 1.00000  2p 2.00000
Number of synthetic species:  1
For O-Fraction-0.50000, standard SIESTA heuristics set lmxkb to 3
 (one more than the basis l, including polarization orbitals).
Use PS.lmax or PS.KBprojectors blocks to override.

<basis_specs>
===============================================================================
O-Fraction-0.50000   Z= 201    Mass= -1.0000        Charge= 0.17977+309
Lmxo=1 Lmxkb=3     BasisType=split      Semic=F
L=0  Nsemic=0  Cnfigmx=2
          n=1  nzeta=2  polorb=0
            splnorm:   0.15000    
               vcte:    0.0000    
               rinn:    0.0000    
                rcs:    0.0000      0.0000    
            lambdas:    1.0000      1.0000    
L=1  Nsemic=0  Cnfigmx=2
          n=1  nzeta=2  polorb=1
            splnorm:   0.15000    
               vcte:    0.0000    
               rinn:    0.0000    
                rcs:    4.1390      2.7400    
            lambdas:    1.0000      1.0000    
-------------------------------------------------------------------------------
L=0  Nkbl=1  erefs: 0.17977+309
L=1  Nkbl=1  erefs: 0.17977+309
L=2  Nkbl=1  erefs: 0.17977+309
L=3  Nkbl=1  erefs: 0.17977+309
===============================================================================
</basis_specs>

atom: Called for (synthetic) O-Fraction-0.50000    (Z = 201)

read_vps: Pseudopotential generation method:
read_vps: FRACT     19-FEB-98  ---       fraction  fraction 
Total valence charge:    3.00000

xc_check: Exchange-correlation functional:
xc_check: Ceperley-Alder
V l=0 = -2*Zval/r beyond r=  1.1278
V l=1 = -2*Zval/r beyond r=  1.1278
V l=2 = -2*Zval/r beyond r=  1.1278
V l=3 = -2*Zval/r beyond r=  1.1138
All V_l potentials equal beyond r=  1.1278
This should be close to max(r_c) in ps generation
All pots = -2*Zval/r beyond r=  1.1278

VLOCAL1: 99.0% of the norm of Vloc inside     34.126 Ry
VLOCAL1: 99.9% of the norm of Vloc inside     77.774 Ry
atom: Maximum radius for 4*pi*r*r*local-pseudopot. charge    1.36047
atom: Maximum radius for r*vlocal+2*Zval:    1.15638
GHOST: No ghost state for L =  0
GHOST: No ghost state for L =  1
GHOST: No ghost state for L =  2
GHOST: No ghost state for L =  3

KBgen: Kleinman-Bylander projectors: 
   l= 0   rc=  1.294105   el= -0.693307   Ekb=  4.664913   kbcos=  0.254299
   l= 1   rc=  1.343567   el=  0.001447   Ekb= -4.466139   kbcos= -0.030125
   l= 2   rc=  1.466454   el=  0.002386   Ekb= -1.010968   kbcos= -0.001863
   l= 3   rc=  1.561052   el=  0.003508   Ekb= -0.392253   kbcos= -0.000249

KBgen: Total number of  Kleinman-Bylander projectors:   16
atom: -------------------------------------------------------------------------

atom: SANKEY-TYPE ORBITALS:
atom: Selected multiple-zeta basis: split     

SPLIT: Orbitals with angular momentum L= 0

SPLIT: Basis orbitals for state 2s

SPLIT: PAO cut-off radius determined from an
SPLIT: energy shift=  0.020000 Ry

   izeta = 1
                 lambda =    1.000000
                     rc =    4.243912
                 energy =   -0.673179
                kinetic =    0.971847
    potential(screened) =   -1.645026
       potential(ionic) =   -4.821659

   izeta = 2
                 rmatch =    3.388770
              splitnorm =    0.150000
                 energy =   -0.526416
                kinetic =    1.507134
    potential(screened) =   -2.033550
       potential(ionic) =   -5.533769

SPLIT: Orbitals with angular momentum L= 1

SPLIT: Basis orbitals for state 2p

   izeta = 1
                 lambda =    1.000000
                     rc =    4.139122
                 energy =    0.491454
                kinetic =    1.445506
    potential(screened) =   -0.954052
       potential(ionic) =   -3.434023

   izeta = 2
                 rmatch =    2.774434
              splitnorm =    0.627770
                 energy =    1.483725
                kinetic =    3.945497
    potential(screened) =   -2.461771
       potential(ionic) =   -5.835431

POLgen: Perturbative polarization orbital with L=  2

POLgen: Polarization orbital for state 2p

   izeta = 1
                     rc =    4.139122
                 energy =    1.585617
                kinetic =    2.166931
    potential(screened) =   -0.581314
       potential(ionic) =   -2.778294
atom: Total number of Sankey-type orbitals: 13

atm_pop: Valence configuration (for local Pseudopot. screening):
 2s( 1.00)                                                            
 2p( 2.00)                                                            
Vna: chval, zval:    3.00000   3.00000

Vna:  Cut-off radius for the neutral-atom potential:   4.243912

atom: _________________________________________________________________________

prinput: Basis input ----------------------------------------------------------

PAO.BasisType split     

%block ChemicalSpeciesLabel
    1  201 O-Fraction-0.50000      # Species index, atomic number, species label
%endblock ChemicalSpeciesLabel

%block SyntheticAtoms   # Valence config
  1
  2  2  3  4
  1.00000  2.00000  0.00000  0.00000
%endblock SyntheticAtoms

%block PAO.Basis                 # Define Basis set
O-Fraction-0.50000    2                    # Species label, number of l-shells
 n=2   0   2                         # n, l, Nzeta 
   4.244      3.389   
   1.000      1.000   
 n=2   1   2 P   1                   # n, l, Nzeta, Polarization, NzetaPol
   4.139      2.774   
   1.000      1.000   
%endblock PAO.Basis

prinput: ----------------------------------------------------------------------


siesta: ******************** Simulation parameters ****************************
siesta:
siesta: The following are some of the parameters of the simulation.
siesta: A complete list of the parameters used, including default values,
siesta: can be found in file out.fdf
siesta:
coor:   Atomic-coordinates input format  =     Cartesian coordinates
coor:                                          (in Angstroms)
redata: Number of spin components        =     2
redata: Long output                      =     F
redata: Number of Atomic Species         =     1
redata: Charge density info will appear in .RHO file
redata: Write Mulliken Pop.              =     NO
redata: Mesh Cutoff                      =   200.0000  Ry
redata: Net charge of the system         =     0.0000 |e|
redata: Max. number of SCF Iter          =    50
redata: Performing Pulay mixing using    =     4 iterations
redata: Mix DM in first SCF step ?       =     F
redata: Write Pulay info on disk?        =     F
redata: New DM Mixing Weight             =     0.2500
redata: New DM Occupancy tolerance       = 0.000000000001
redata: No kicks to SCF
redata: DM Mixing Weight for Kicks       =     0.5000
redata: DM Tolerance for SCF             =     0.000100
redata: Require Energy convergence for SCF =     F
redata: DM Energy tolerance for SCF      =     0.000100 eV
redata: Antiferro initial spin density   =     F
redata: Using Saved Data (generic)   =     F
redata: Use continuation files for DM    =     F
redata: Neglect nonoverlap interactions  =     F
redata: Method of Calculation            =     Diagonalization
redata: Divide and Conquer               =     T
redata: Electronic Temperature           =     0.0019  Ry
redata: Fix the spin of the system       =     F
redata: Dynamics option                  =     Broyden coord. optimization
redata: Variable cell                    =     F
redata: Maximum number of CG moves       =    40
redata: Force tolerance                  =     0.0016  Ry/Bohr
redata: ***********************************************************************

siesta: Atomic coordinates (Bohr) and species
siesta:      0.00000   0.00000   0.00000  1        1
siesta:      0.00000   0.00000   2.26767  1        2

initatomlists: Number of atoms, orbitals, and projectors:      2    26    32
Total number of electrons:     6.000000
Total ionic charge:     6.000000

siesta: Automatic unit cell vectors (Ang):
siesta:    4.940717    0.000000    0.000000
siesta:    0.000000    4.940717    0.000000
siesta:    0.000000    0.000000    6.260717

siesta: System type = molecule  

siesta: k-grid: Number of k-points =     1
siesta: k-grid: Cutoff (effective) =     2.470 Ang
siesta: k-grid: Supercell and displacements
siesta: k-grid:    0   1   0      0.000
siesta: k-grid:    1   0   0      0.000
siesta: k-grid:    0   0   1      0.000

* Maximum dynamic memory allocated =     1 MB

siesta:                 ==============================
                            Begin CG move =      0
                        ==============================

outcell: Unit cell vectors (Ang):
        4.940717    0.000000    0.000000
        0.000000    4.940717    0.000000
        0.000000    0.000000    6.260717

outcell: Cell vector modules (Ang)   :    4.940717    4.940717    6.260717
outcell: Cell angles (23,13,12) (deg):     90.0000     90.0000     90.0000
outcell: Cell volume (Ang**3)        :    152.8284

InitMesh: MESH =    48 x    48 x    54 =      124416
InitMesh: Mesh cutoff (required, used) =   200.000   205.608 Ry

* Maximum dynamic memory allocated =    11 MB

stepf: Fermi-Dirac step function

siesta: Program's energy decomposition (eV):
siesta: Eions   =       388.219918
siesta: Ena     =       177.988389
siesta: Ekin    =       105.068031
siesta: Enl     =         7.661400
siesta: DEna    =         0.000010
siesta: DUscf   =         0.000000
siesta: DUext   =         0.000000
siesta: Exc     =       -58.957041
siesta: eta*DQ  =         0.000000
siesta: Emadel  =         0.000000
siesta: Emeta   =         0.000000
siesta: Emolmec =         0.000000
siesta: Ekinion =         0.000000
siesta: Eharris =      -176.604228
siesta: Etot    =      -156.459129
siesta: FreeEng =      -156.459129

siesta: iscf   Eharris(eV)      E_KS(eV)   FreeEng(eV)   dDmax  Ef(eV)
siesta:    1     -176.6042     -156.4591     -156.4591  0.7393 -5.8452
timer: Routine,Calls,Time,% = IterSCF        1       5.753  79.83
elaps: Routine,Calls,Wall,% = IterSCF        1       5.808  56.14
siesta:    2     -184.4812     -181.9725     -181.9725  0.3029  1.5156
siesta:    3     -183.6642     -178.5209     -178.5209  0.1176 -0.0604
siesta:    4     -183.7371     -181.9564     -181.9564  0.0606 -0.0357
siesta:    5     -183.7515     -183.5614     -183.5614  0.0131 -0.2120
siesta:    6     -183.7495     -183.7244     -183.7244  0.0027 -0.1010
siesta:    7     -183.7495     -183.7551     -183.7551  0.0011 -0.0908
siesta:    8     -183.7495     -183.7618     -183.7618  0.0004 -0.0944
siesta:    9     -183.7495     -183.7549     -183.7549  0.0002 -0.0955
siesta:   10     -183.7495     -183.7487     -183.7487  0.0001 -0.0967
siesta:   11     -183.7495     -183.7498     -183.7498  0.0000 -0.0974

siesta: E_KS(eV) =             -183.7497

siesta: E_KS - E_eggbox =      -183.7497

siesta: Atomic forces (eV/Ang):
----------------------------------------
   Tot    0.000000    0.000000    0.012326
----------------------------------------
   Max   14.370656
   Res    8.293345    sqrt( Sum f_i^2 / 3N )
----------------------------------------
   Max   14.370656    constrained

Stress-tensor-Voigt (kbar):       -0.11       -0.11     -180.66        0.00        0.00        0.00
Target enthalpy (eV/cell)     -183.7497
 
Broyden_optim: max_history for broyden:   5
Broyden_optim: cycle on maxit: T
Broyden_optim: initial inverse jacobian:   1.0000
 
Broyden_optim: No of elements:      6

* Maximum dynamic memory allocated =    11 MB

siesta:                 ==============================
                            Begin CG move =      1
                        ==============================

outcell: Unit cell vectors (Ang):
        4.940717    0.000000    0.000000
        0.000000    4.940717    0.000000
        0.000000    0.000000    6.260717

outcell: Cell vector modules (Ang)   :    4.940717    4.940717    6.260717
outcell: Cell angles (23,13,12) (deg):     90.0000     90.0000     90.0000
outcell: Cell volume (Ang**3)        :    152.8284

siesta: iscf   Eharris(eV)      E_KS(eV)   FreeEng(eV)   dDmax  Ef(eV)
siesta:    1     -185.8724     -187.5543     -187.5543  0.2969  1.0346
siesta:    2     -185.7439     -185.4280     -185.4286  0.2590  0.6649
siesta:    3     -185.5771     -186.4227     -186.4605  0.1273  0.7770
siesta:    4     -185.6024     -185.5813     -185.6121  0.1752  0.6104
siesta:    5     -185.5706     -185.5517     -185.5965  0.0421  0.5908
siesta:    6     -185.5714     -185.5634     -185.6126  0.0544  0.6154
siesta:    7     -185.5730     -185.5701     -185.6194  0.0061  0.6300
siesta:    8     -185.5719     -185.5885     -185.6372  0.0314  0.6428
siesta:    9     -185.5724     -185.5873     -185.6367  0.0126  0.6447
siesta:   10     -185.5727     -185.5833     -185.6326  0.0075  0.6510
siesta:   11     -185.5728     -185.5751     -185.6244  0.0039  0.6557
siesta:   12     -185.5728     -185.5692     -185.6186  0.0017  0.6610
siesta:   13     -185.5728     -185.5711     -185.6205  0.0014  0.6689
siesta:   14     -185.5728     -185.5726     -185.6219  0.0003  0.6666
siesta:   15     -185.5728     -185.5727     -185.6221  0.0001  0.6671

siesta: E_KS(eV) =             -185.5729

siesta: Atomic forces (eV/Ang):
----------------------------------------
   Tot    0.000000    0.000000   -0.092707
----------------------------------------
   Max    0.250551
   Res    0.120893    sqrt( Sum f_i^2 / 3N )
----------------------------------------
   Max    0.250551    constrained

Stress-tensor-Voigt (kbar):        0.01        0.01       -3.47        0.00        0.00        0.00
Target enthalpy (eV/cell)     -185.6222

* Maximum dynamic memory allocated =    11 MB

siesta:                 ==============================
                            Begin CG move =      2
                        ==============================

outcell: Unit cell vectors (Ang):
        4.940717    0.000000    0.000000
        0.000000    4.940717    0.000000
        0.000000    0.000000    6.260717

outcell: Cell vector modules (Ang)   :    4.940717    4.940717    6.260717
outcell: Cell angles (23,13,12) (deg):     90.0000     90.0000     90.0000
outcell: Cell volume (Ang**3)        :    152.8284

siesta: iscf   Eharris(eV)      E_KS(eV)   FreeEng(eV)   dDmax  Ef(eV)
siesta:    1     -185.5783     -185.5895     -185.6389  0.0371  0.6812
siesta:    2     -185.5772     -185.5771     -185.6244  0.0286  0.7083
siesta:    3     -185.5769     -185.5814     -185.6306  0.0056  0.6963
siesta:    4     -185.5771     -185.5753     -185.6236  0.0029  0.7046
siesta:    5     -185.5773     -185.5769     -185.6251  0.0032  0.7014
siesta:    6     -185.5772     -185.5770     -185.6249  0.0004  0.7022
siesta:    7     -185.5772     -185.5771     -185.6251  0.0001  0.7024

siesta: E_KS(eV) =             -185.5772

siesta: Atomic forces (eV/Ang):
----------------------------------------
   Tot    0.000000    0.000000   -0.114006
----------------------------------------
   Max    0.564895
   Res    0.295073    sqrt( Sum f_i^2 / 3N )
----------------------------------------
   Max    0.564895    constrained

Stress-tensor-Voigt (kbar):        0.01        0.01       -9.30        0.00        0.00        0.00
Target enthalpy (eV/cell)     -185.6252

* Maximum dynamic memory allocated =    11 MB

siesta:                 ==============================
                            Begin CG move =      3
                        ==============================

outcell: Unit cell vectors (Ang):
        4.940717    0.000000    0.000000
        0.000000    4.940717    0.000000
        0.000000    0.000000    6.260717

outcell: Cell vector modules (Ang)   :    4.940717    4.940717    6.260717
outcell: Cell angles (23,13,12) (deg):     90.0000     90.0000     90.0000
outcell: Cell volume (Ang**3)        :    152.8284

siesta: iscf   Eharris(eV)      E_KS(eV)   FreeEng(eV)   dDmax  Ef(eV)
siesta:    1     -185.6835     -185.4490     -185.4970  0.2059  0.6151
siesta:    2     -185.6843     -185.6604     -185.6657  0.0207  0.5420
siesta:    3     -185.6805     -185.6554     -185.6683  0.0155  0.5340
siesta:    4     -185.6861     -185.6888     -185.6988  0.0023  0.5285
siesta:    5     -185.6856     -185.6838     -185.6880  0.0016  0.5436
siesta:    6     -185.6856     -185.6858     -185.6903  0.0008  0.5438
siesta:    7     -185.6856     -185.6859     -185.6904  0.0005  0.5438
siesta:    8     -185.6856     -185.6856     -185.6901  0.0001  0.5427

siesta: E_KS(eV) =             -185.6856

siesta: Atomic forces (eV/Ang):
----------------------------------------
   Tot    0.000000    0.000000    0.028579
----------------------------------------
   Max    1.597315
   Res    0.913997    sqrt( Sum f_i^2 / 3N )
----------------------------------------
   Max    1.597315    constrained

Stress-tensor-Voigt (kbar):       -0.27       -0.27       28.50        0.00        0.00        0.00
Target enthalpy (eV/cell)     -185.6901

* Maximum dynamic memory allocated =    11 MB

siesta:                 ==============================
                            Begin CG move =      4
                        ==============================

outcell: Unit cell vectors (Ang):
        4.940717    0.000000    0.000000
        0.000000    4.940717    0.000000
        0.000000    0.000000    6.260717

outcell: Cell vector modules (Ang)   :    4.940717    4.940717    6.260717
outcell: Cell angles (23,13,12) (deg):     90.0000     90.0000     90.0000
outcell: Cell volume (Ang**3)        :    152.8284

siesta: iscf   Eharris(eV)      E_KS(eV)   FreeEng(eV)   dDmax  Ef(eV)
siesta:    1     -185.7116     -185.6403     -185.6447  0.0048  0.5231
siesta:    2     -185.7118     -185.7116     -185.7136  0.0011  0.5369
siesta:    3     -185.7118     -185.7087     -185.7104  0.0007  0.5360
siesta:    4     -185.7118     -185.7121     -185.7138  0.0000  0.5355

siesta: E_KS(eV) =             -185.7120

siesta: Atomic forces (eV/Ang):
----------------------------------------
   Tot    0.000000    0.000000    0.008348
----------------------------------------
   Max    1.491739
   Res    0.858849    sqrt( Sum f_i^2 / 3N )
----------------------------------------
   Max    1.491739    constrained

Stress-tensor-Voigt (kbar):       -0.28       -0.28       26.45        0.00        0.00        0.00
Target enthalpy (eV/cell)     -185.7138

* Maximum dynamic memory allocated =    11 MB

siesta:                 ==============================
                            Begin CG move =      5
                        ==============================

outcell: Unit cell vectors (Ang):
        4.940717    0.000000    0.000000
        0.000000    4.940717    0.000000
        0.000000    0.000000    6.260717

outcell: Cell vector modules (Ang)   :    4.940717    4.940717    6.260717
outcell: Cell angles (23,13,12) (deg):     90.0000     90.0000     90.0000
outcell: Cell volume (Ang**3)        :    152.8284

siesta: iscf   Eharris(eV)      E_KS(eV)   FreeEng(eV)   dDmax  Ef(eV)
siesta:    1     -185.6751     -185.7759     -185.7777  0.0067  0.5625
siesta:    2     -185.6741     -185.6751     -185.6803  0.0015  0.5432
siesta:    3     -185.6742     -185.6766     -185.6828  0.0010  0.5441
siesta:    4     -185.6742     -185.6731     -185.6793  0.0001  0.5452

siesta: E_KS(eV) =             -185.6732

siesta: Atomic forces (eV/Ang):
----------------------------------------
   Tot    0.000000    0.000000    0.034972
----------------------------------------
   Max    1.624574
   Res    0.927908    sqrt( Sum f_i^2 / 3N )
----------------------------------------
   Max    1.624574    constrained

Stress-tensor-Voigt (kbar):       -0.25       -0.25       29.21        0.00        0.00        0.00
Target enthalpy (eV/cell)     -185.6794

* Maximum dynamic memory allocated =    11 MB

siesta:                 ==============================
                            Begin CG move =      6
                        ==============================

outcell: Unit cell vectors (Ang):
        4.940717    0.000000    0.000000
        0.000000    4.940717    0.000000
        0.000000    0.000000    6.260717

outcell: Cell vector modules (Ang)   :    4.940717    4.940717    6.260717
outcell: Cell angles (23,13,12) (deg):     90.0000     90.0000     90.0000
outcell: Cell volume (Ang**3)        :    152.8284

siesta: iscf   Eharris(eV)      E_KS(eV)   FreeEng(eV)   dDmax  Ef(eV)
siesta:    1     -185.6318     -185.7317     -185.7379  0.0143  0.5709
siesta:    2     -185.6298     -185.6323     -185.6479  0.0049  0.5546
siesta:    3     -185.6287     -185.5969     -185.6152  0.0017  0.5506
siesta:    4     -185.6284     -185.6200     -185.6394  0.0005  0.5572
siesta:    5     -185.6284     -185.6252     -185.6449  0.0003  0.5570
siesta:    6     -185.6284     -185.6279     -185.6477  0.0001  0.5567

siesta: E_KS(eV) =             -185.6283

siesta: Atomic forces (eV/Ang):
----------------------------------------
   Tot    0.000000    0.000000    0.032312
----------------------------------------
   Max    1.484679
   Res    0.847904    sqrt( Sum f_i^2 / 3N )
----------------------------------------
   Max    1.484679    constrained

Stress-tensor-Voigt (kbar):       -0.19       -0.19       27.06        0.00        0.00        0.00
Target enthalpy (eV/cell)     -185.6481
Cycling the Broyden process...

* Maximum dynamic memory allocated =    11 MB

siesta:                 ==============================
                            Begin CG move =      7
                        ==============================

outcell: Unit cell vectors (Ang):
        4.940717    0.000000    0.000000
        0.000000    4.940717    0.000000
        0.000000    0.000000    6.260717

outcell: Cell vector modules (Ang)   :    4.940717    4.940717    6.260717
outcell: Cell angles (23,13,12) (deg):     90.0000     90.0000     90.0000
outcell: Cell volume (Ang**3)        :    152.8284

siesta: iscf   Eharris(eV)      E_KS(eV)   FreeEng(eV)   dDmax  Ef(eV)
siesta:    1     -185.5966     -185.8731     -185.8929  0.2426  0.7340
siesta:    2     -185.6320     -185.6047     -185.6410  0.0188  0.8437
siesta:    3     -185.6299     -185.6140     -185.6519  0.0141  0.8522
siesta:    4     -185.6300     -185.6204     -185.6573  0.0042  0.8782
siesta:    5     -185.6300     -185.6319     -185.6680  0.0046  0.8640
siesta:    6     -185.6299     -185.6304     -185.6664  0.0013  0.8634
siesta:    7     -185.6299     -185.6296     -185.6657  0.0004  0.8646
siesta:    8     -185.6299     -185.6299     -185.6660  0.0000  0.8658

siesta: E_KS(eV) =             -185.6300

siesta: Atomic forces (eV/Ang):
----------------------------------------
   Tot    0.000000    0.000000   -0.002514
----------------------------------------
   Max    0.820220
   Res    0.472829    sqrt( Sum f_i^2 / 3N )
----------------------------------------
   Max    0.820220    constrained

Stress-tensor-Voigt (kbar):        0.00        0.00      -15.79        0.00        0.00        0.00
Target enthalpy (eV/cell)     -185.6661
Cycling the Broyden process...

* Maximum dynamic memory allocated =    11 MB

siesta:                 ==============================
                            Begin CG move =      8
                        ==============================

outcell: Unit cell vectors (Ang):
        4.940717    0.000000    0.000000
        0.000000    4.940717    0.000000
        0.000000    0.000000    6.260717

outcell: Cell vector modules (Ang)   :    4.940717    4.940717    6.260717
outcell: Cell angles (23,13,12) (deg):     90.0000     90.0000     90.0000
outcell: Cell volume (Ang**3)        :    152.8284

siesta: iscf   Eharris(eV)      E_KS(eV)   FreeEng(eV)   dDmax  Ef(eV)
siesta:    1     -185.7207     -185.4331     -185.4692  0.2709  0.6505
siesta:    2     -185.7285     -185.6913     -185.6925  0.0272  0.5178
siesta:    3     -185.7247     -185.6960     -185.7002  0.0206  0.5140
siesta:    4     -185.7253     -185.7238     -185.7267  0.0026  0.5168
siesta:    5     -185.7250     -185.7217     -185.7227  0.0015  0.5290
siesta:    6     -185.7249     -185.7240     -185.7251  0.0010  0.5318
siesta:    7     -185.7249     -185.7248     -185.7259  0.0006  0.5325
siesta:    8     -185.7249     -185.7249     -185.7260  0.0000  0.5313

siesta: E_KS(eV) =             -185.7249

siesta: Atomic forces (eV/Ang):
----------------------------------------
   Tot    0.000000    0.000000   -0.018603
----------------------------------------
   Max    1.429264
   Res    0.819833    sqrt( Sum f_i^2 / 3N )
----------------------------------------
   Max    1.429264    constrained

Stress-tensor-Voigt (kbar):       -0.27       -0.27       25.13        0.00        0.00        0.00
Target enthalpy (eV/cell)     -185.7260
Cycling the Broyden process...

* Maximum dynamic memory allocated =    11 MB

siesta:                 ==============================
                            Begin CG move =      9
                        ==============================

outcell: Unit cell vectors (Ang):
        4.940717    0.000000    0.000000
        0.000000    4.940717    0.000000
        0.000000    0.000000    6.260717

outcell: Cell vector modules (Ang)   :    4.940717    4.940717    6.260717
outcell: Cell angles (23,13,12) (deg):     90.0000     90.0000     90.0000
outcell: Cell volume (Ang**3)        :    152.8284

siesta: iscf   Eharris(eV)      E_KS(eV)   FreeEng(eV)   dDmax  Ef(eV)
siesta:    1     -185.5852     -186.3824     -186.3835  0.2806  1.0135
siesta:    2     -185.6768     -185.6587     -185.6945  0.0147  1.1194
siesta:    3     -185.6767     -185.6607     -185.6965  0.0108  1.1253
siesta:    4     -185.6767     -185.6755     -185.7113  0.0012  1.1353
siesta:    5     -185.6767     -185.6766     -185.7125  0.0007  1.1318
siesta:    6     -185.6767     -185.6768     -185.7126  0.0004  1.1304
siesta:    7     -185.6767     -185.6767     -185.7126  0.0001  1.1302
siesta:    8     -185.6767     -185.6767     -185.7126  0.0000  1.1308

siesta: E_KS(eV) =             -185.6767

siesta: Atomic forces (eV/Ang):
----------------------------------------
   Tot    0.000000    0.000000    0.052500
----------------------------------------
   Max    0.085183
   Res    0.037247    sqrt( Sum f_i^2 / 3N )
----------------------------------------
   Max    0.085183    constrained

Stress-tensor-Voigt (kbar):        0.00        0.00        6.61        0.00        0.00        0.00
Target enthalpy (eV/cell)     -185.7125
Cycling the Broyden process...

* Maximum dynamic memory allocated =    11 MB

siesta:                 ==============================
                            Begin CG move =     10
                        ==============================

outcell: Unit cell vectors (Ang):
        4.940717    0.000000    0.000000
        0.000000    4.940717    0.000000
        0.000000    0.000000    6.260717

outcell: Cell vector modules (Ang)   :    4.940717    4.940717    6.260717
outcell: Cell angles (23,13,12) (deg):     90.0000     90.0000     90.0000
outcell: Cell volume (Ang**3)        :    152.8284

siesta: iscf   Eharris(eV)      E_KS(eV)   FreeEng(eV)   dDmax  Ef(eV)
siesta:    1     -185.6489     -185.5018     -185.5376  0.0318  0.9295
siesta:    2     -185.6451     -185.6406     -185.6765  0.0026  0.8836
siesta:    3     -185.6440     -185.6355     -185.6714  0.0021  0.8972
siesta:    4     -185.6436     -185.6430     -185.6789  0.0012  0.9135
siesta:    5     -185.6436     -185.6435     -185.6794  0.0003  0.9130
siesta:    6     -185.6436     -185.6434     -185.6793  0.0001  0.9124

siesta: E_KS(eV) =             -185.6434

siesta: Atomic forces (eV/Ang):
----------------------------------------
   Tot    0.000000    0.000000    0.074460
----------------------------------------
   Max    0.692095
   Res    0.378697    sqrt( Sum f_i^2 / 3N )
----------------------------------------
   Max    0.692095    constrained

Stress-tensor-Voigt (kbar):       -0.01       -0.01      -12.16        0.00        0.00        0.00
Target enthalpy (eV/cell)     -185.6793
Cycling the Broyden process...

* Maximum dynamic memory allocated =    11 MB

siesta:                 ==============================
                            Begin CG move =     11
                        ==============================

outcell: Unit cell vectors (Ang):
        4.940717    0.000000    0.000000
        0.000000    4.940717    0.000000
        0.000000    0.000000    6.260717

outcell: Cell vector modules (Ang)   :    4.940717    4.940717    6.260717
outcell: Cell angles (23,13,12) (deg):     90.0000     90.0000     90.0000
outcell: Cell volume (Ang**3)        :    152.8284

siesta: iscf   Eharris(eV)      E_KS(eV)   FreeEng(eV)   dDmax  Ef(eV)
siesta:    1     -185.6772     -185.4454     -185.4813  0.2679  0.6758
siesta:    2     -185.6800     -185.6513     -185.6571  0.0257  0.5276
siesta:    3     -185.6758     -185.6467     -185.6619  0.0196  0.5258
siesta:    4     -185.6836     -185.6830     -185.6949  0.0034  0.5286
siesta:    5     -185.6833     -185.6837     -185.6884  0.0015  0.5428
siesta:    6     -185.6833     -185.6833     -185.6880  0.0009  0.5455
siesta:    7     -185.6834     -185.6835     -185.6883  0.0002  0.5440
siesta:    8     -185.6834     -185.6835     -185.6883  0.0001  0.5433

siesta: E_KS(eV) =             -185.6835

siesta: Atomic forces (eV/Ang):
----------------------------------------
   Tot    0.000000    0.000000    0.023580
----------------------------------------
   Max    1.603211
   Res    0.918833    sqrt( Sum f_i^2 / 3N )
----------------------------------------
   Max    1.603211    constrained

Stress-tensor-Voigt (kbar):       -0.27       -0.27       28.84        0.00        0.00        0.00
Target enthalpy (eV/cell)     -185.6882
Cycling the Broyden process...

* Maximum dynamic memory allocated =    11 MB

siesta:                 ==============================
                            Begin CG move =     12
                        ==============================

outcell: Unit cell vectors (Ang):
        4.940717    0.000000    0.000000
        0.000000    4.940717    0.000000
        0.000000    0.000000    6.260717

outcell: Cell vector modules (Ang)   :    4.940717    4.940717    6.260717
outcell: Cell angles (23,13,12) (deg):     90.0000     90.0000     90.0000
outcell: Cell volume (Ang**3)        :    152.8284

siesta: iscf   Eharris(eV)      E_KS(eV)   FreeEng(eV)   dDmax  Ef(eV)
siesta:    1     -185.5826     -186.0710     -186.0757  0.2686  0.8016
siesta:    2     -185.6503     -185.6206     -185.6565  0.0191  0.9047
siesta:    3     -185.6484     -185.6267     -185.6627  0.0143  0.9165
siesta:    4     -185.6474     -185.6436     -185.6795  0.0018  0.9374
siesta:    5     -185.6473     -185.6471     -185.6829  0.0010  0.9268
siesta:    6     -185.6473     -185.6469     -185.6827  0.0006  0.9265
siesta:    7     -185.6473     -185.6470     -185.6828  0.0003  0.9268
siesta:    8     -185.6473     -185.6473     -185.6832  0.0000  0.9278

siesta: E_KS(eV) =             -185.6473

siesta: Atomic forces (eV/Ang):
----------------------------------------
   Tot    0.000001    0.000000    0.138725
----------------------------------------
   Max    0.639390
   Res    0.331533    sqrt( Sum f_i^2 / 3N )
----------------------------------------
   Max    0.639390    constrained

Stress-tensor-Voigt (kbar):        0.02        0.02       -9.63        0.00        0.00        0.00
Target enthalpy (eV/cell)     -185.6832
Cycling the Broyden process...

* Maximum dynamic memory allocated =    11 MB

siesta:                 ==============================
                            Begin CG move =     13
                        ==============================

outcell: Unit cell vectors (Ang):
        4.940717    0.000000    0.000000
        0.000000    4.940717    0.000000
        0.000000    0.000000    6.260717

outcell: Cell vector modules (Ang)   :    4.940717    4.940717    6.260717
outcell: Cell angles (23,13,12) (deg):     90.0000     90.0000     90.0000
outcell: Cell volume (Ang**3)        :    152.8284

siesta: iscf   Eharris(eV)      E_KS(eV)   FreeEng(eV)   dDmax  Ef(eV)
siesta:    1     -185.6838     -185.4374     -185.4732  0.2692  0.6704
siesta:    2     -185.6911     -185.6617     -185.6662  0.0259  0.5230
siesta:    3     -185.6879     -185.6599     -185.6714  0.0198  0.5217
siesta:    4     -185.6934     -185.6941     -185.7029  0.0029  0.5273
siesta:    5     -185.6930     -185.6907     -185.6940  0.0018  0.5410
siesta:    6     -185.6930     -185.6926     -185.6961  0.0009  0.5426
siesta:    7     -185.6930     -185.6931     -185.6966  0.0005  0.5424
siesta:    8     -185.6930     -185.6931     -185.6966  0.0000  0.5408

siesta: E_KS(eV) =             -185.6931

siesta: Atomic forces (eV/Ang):
----------------------------------------
   Tot    0.000000    0.000000    0.022110
----------------------------------------
   Max    1.578593
   Res    0.905041    sqrt( Sum f_i^2 / 3N )
----------------------------------------
   Max    1.578593    constrained

Stress-tensor-Voigt (kbar):       -0.27       -0.27       28.28        0.00        0.00        0.00
Target enthalpy (eV/cell)     -185.6965
Cycling the Broyden process...

* Maximum dynamic memory allocated =    11 MB

siesta:                 ==============================
                            Begin CG move =     14
                        ==============================

outcell: Unit cell vectors (Ang):
        4.940717    0.000000    0.000000
        0.000000    4.940717    0.000000
        0.000000    0.000000    6.260717

outcell: Cell vector modules (Ang)   :    4.940717    4.940717    6.260717
outcell: Cell angles (23,13,12) (deg):     90.0000     90.0000     90.0000
outcell: Cell volume (Ang**3)        :    152.8284

siesta: iscf   Eharris(eV)      E_KS(eV)   FreeEng(eV)   dDmax  Ef(eV)
siesta:    1     -185.7405     -185.6007     -185.6041  0.0096  0.5008
siesta:    2     -185.7405     -185.7402     -185.7409  0.0022  0.5294
siesta:    3     -185.7404     -185.7293     -185.7298  0.0013  0.5263
siesta:    4     -185.7404     -185.7403     -185.7409  0.0001  0.5260

siesta: E_KS(eV) =             -185.7405

siesta: Atomic forces (eV/Ang):
----------------------------------------
   Tot    0.000000    0.000000   -0.021394
----------------------------------------
   Max    1.339755
   Res    0.767357    sqrt( Sum f_i^2 / 3N )
----------------------------------------
   Max    1.339755    constrained

Stress-tensor-Voigt (kbar):       -0.22       -0.22       23.55        0.00        0.00        0.00
Target enthalpy (eV/cell)     -185.7410
Cycling the Broyden process...

* Maximum dynamic memory allocated =    11 MB

siesta:                 ==============================
                            Begin CG move =     15
                        ==============================

outcell: Unit cell vectors (Ang):
        4.940717    0.000000    0.000000
        0.000000    4.940717    0.000000
        0.000000    0.000000    6.260717

outcell: Cell vector modules (Ang)   :    4.940717    4.940717    6.260717
outcell: Cell angles (23,13,12) (deg):     90.0000     90.0000     90.0000
outcell: Cell volume (Ang**3)        :    152.8284

siesta: iscf   Eharris(eV)      E_KS(eV)   FreeEng(eV)   dDmax  Ef(eV)
siesta:    1     -185.7002     -185.8237     -185.8242  0.0086  0.5608
siesta:    2     -185.6994     -185.6999     -185.7022  0.0019  0.5357
siesta:    3     -185.6995     -185.7109     -185.7137  0.0012  0.5386
siesta:    4     -185.6995     -185.6996     -185.7024  0.0001  0.5385

siesta: E_KS(eV) =             -185.6993

siesta: Atomic forces (eV/Ang):
----------------------------------------
   Tot   -0.000001   -0.000001    0.021975
----------------------------------------
   Max    1.549925
   Res    0.888528    sqrt( Sum f_i^2 / 3N )
----------------------------------------
   Max    1.549925    constrained

Stress-tensor-Voigt (kbar):       -0.29       -0.29       27.54        0.00        0.00        0.00
Target enthalpy (eV/cell)     -185.7021
Cycling the Broyden process...

* Maximum dynamic memory allocated =    11 MB

siesta:                 ==============================
                            Begin CG move =     16
                        ==============================

outcell: Unit cell vectors (Ang):
        4.940717    0.000000    0.000000
        0.000000    4.940717    0.000000
        0.000000    0.000000    6.260717

outcell: Cell vector modules (Ang)   :    4.940717    4.940717    6.260717
outcell: Cell angles (23,13,12) (deg):     90.0000     90.0000     90.0000
outcell: Cell volume (Ang**3)        :    152.8284

siesta: iscf   Eharris(eV)      E_KS(eV)   FreeEng(eV)   dDmax  Ef(eV)
siesta:    1     -185.7590     -185.5736     -185.5764  0.0132  0.4845
siesta:    2     -185.7586     -185.7583     -185.7587  0.0030  0.5240
siesta:    3     -185.7586     -185.7423     -185.7425  0.0018  0.5193
siesta:    4     -185.7586     -185.7583     -185.7585  0.0001  0.5190

siesta: E_KS(eV) =             -185.7585

siesta: Atomic forces (eV/Ang):
----------------------------------------
   Tot    0.000000    0.000000   -0.014168
----------------------------------------
   Max    1.190680
   Res    0.683362    sqrt( Sum f_i^2 / 3N )
----------------------------------------
   Max    1.190680    constrained

Stress-tensor-Voigt (kbar):       -0.25       -0.25       20.74        0.00        0.00        0.00
Target enthalpy (eV/cell)     -185.7588
Cycling the Broyden process...

* Maximum dynamic memory allocated =    11 MB

siesta:                 ==============================
                            Begin CG move =     17
                        ==============================

outcell: Unit cell vectors (Ang):
        4.940717    0.000000    0.000000
        0.000000    4.940717    0.000000
        0.000000    0.000000    6.260717

outcell: Cell vector modules (Ang)   :    4.940717    4.940717    6.260717
outcell: Cell angles (23,13,12) (deg):     90.0000     90.0000     90.0000
outcell: Cell volume (Ang**3)        :    152.8284

siesta: iscf   Eharris(eV)      E_KS(eV)   FreeEng(eV)   dDmax  Ef(eV)
siesta:    1     -185.7082     -185.8731     -185.8733  0.0118  0.5664
siesta:    2     -185.7073     -185.7077     -185.7094  0.0026  0.5322
siesta:    3     -185.7074     -185.7234     -185.7256  0.0016  0.5363
siesta:    4     -185.7074     -185.7076     -185.7097  0.0001  0.5361

siesta: E_KS(eV) =             -185.7073

siesta: Atomic forces (eV/Ang):
----------------------------------------
   Tot    0.000000    0.000000    0.015311
----------------------------------------
   Max    1.517793
   Res    0.871889    sqrt( Sum f_i^2 / 3N )
----------------------------------------
   Max    1.517793    constrained

Stress-tensor-Voigt (kbar):       -0.28       -0.28       27.02        0.00        0.00        0.00
Target enthalpy (eV/cell)     -185.7094
Cycling the Broyden process...

* Maximum dynamic memory allocated =    11 MB

siesta:                 ==============================
                            Begin CG move =     18
                        ==============================

outcell: Unit cell vectors (Ang):
        4.940717    0.000000    0.000000
        0.000000    4.940717    0.000000
        0.000000    0.000000    6.260717

outcell: Cell vector modules (Ang)   :    4.940717    4.940717    6.260717
outcell: Cell angles (23,13,12) (deg):     90.0000     90.0000     90.0000
outcell: Cell volume (Ang**3)        :    152.8284

siesta: iscf   Eharris(eV)      E_KS(eV)   FreeEng(eV)   dDmax  Ef(eV)
siesta:    1     -185.7153     -185.6923     -185.6944  0.0015  0.5301
siesta:    2     -185.7154     -185.7153     -185.7169  0.0004  0.5350
siesta:    3     -185.7154     -185.7135     -185.7151  0.0002  0.5344
siesta:    4     -185.7154     -185.7153     -185.7169  0.0000  0.5343

siesta: E_KS(eV) =             -185.7154

siesta: Atomic forces (eV/Ang):
----------------------------------------
   Tot    0.000001   -0.000001   -0.003325
----------------------------------------
   Max    1.478658
   Res    0.852744    sqrt( Sum f_i^2 / 3N )
----------------------------------------
   Max    1.478658    constrained

Stress-tensor-Voigt (kbar):       -0.29       -0.29       26.43        0.00        0.00        0.00
Target enthalpy (eV/cell)     -185.7169
Cycling the Broyden process...

* Maximum dynamic memory allocated =    11 MB

siesta:                 ==============================
                            Begin CG move =     19
                        ==============================

outcell: Unit cell vectors (Ang):
        4.940717    0.000000    0.000000
        0.000000    4.940717    0.000000
        0.000000    0.000000    6.260717

outcell: Cell vector modules (Ang)   :    4.940717    4.940717    6.260717
outcell: Cell angles (23,13,12) (deg):     90.0000     90.0000     90.0000
outcell: Cell volume (Ang**3)        :    152.8284

siesta: iscf   Eharris(eV)      E_KS(eV)   FreeEng(eV)   dDmax  Ef(eV)
siesta:    1     -185.7428     -185.6570     -185.6586  0.0063  0.5091
siesta:    2     -185.7428     -185.7426     -185.7432  0.0014  0.5270
siesta:    3     -185.7427     -185.7353     -185.7358  0.0008  0.5250
siesta:    4     -185.7427     -185.7426     -185.7431  0.0000  0.5249

siesta: E_KS(eV) =             -185.7427

siesta: Atomic forces (eV/Ang):
----------------------------------------
   Tot    0.000001   -0.000003   -0.009638
----------------------------------------
   Max    1.314226
   Res    0.755992    sqrt( Sum f_i^2 / 3N )
----------------------------------------
   Max    1.314226    constrained

Stress-tensor-Voigt (kbar):       -0.22       -0.22       23.09        0.00        0.00        0.00
Target enthalpy (eV/cell)     -185.7432
Cycling the Broyden process...

* Maximum dynamic memory allocated =    11 MB

siesta:                 ==============================
                            Begin CG move =     20
                        ==============================

outcell: Unit cell vectors (Ang):
        4.940717    0.000000    0.000000
        0.000000    4.940717    0.000000
        0.000000    0.000000    6.260717

outcell: Cell vector modules (Ang)   :    4.940717    4.940717    6.260717
outcell: Cell angles (23,13,12) (deg):     90.0000     90.0000     90.0000
outcell: Cell volume (Ang**3)        :    152.8284

siesta: iscf   Eharris(eV)      E_KS(eV)   FreeEng(eV)   dDmax  Ef(eV)
siesta:    1     -185.7874     -185.1078     -185.1083  0.0696  0.2452
siesta:    2     -185.7741     -185.7698     -185.7698  0.0138  0.4607
siesta:    3     -185.7734     -185.7175     -185.7175  0.0086  0.4325
siesta:    4     -185.7733     -185.7717     -185.7717  0.0001  0.4217
siesta:    5     -185.7733     -185.7726     -185.7726  0.0000  0.4208

siesta: E_KS(eV) =             -185.7727

siesta: Atomic forces (eV/Ang):
----------------------------------------
   Tot    0.000000    0.000001    0.008163
----------------------------------------
   Max    1.286281
   Res    0.740282    sqrt( Sum f_i^2 / 3N )
----------------------------------------
   Max    1.286281    constrained

Stress-tensor-Voigt (kbar):       -0.19       -0.19      -20.64        0.00        0.00        0.00
Target enthalpy (eV/cell)     -185.7727
Cycling the Broyden process...

* Maximum dynamic memory allocated =    11 MB

siesta:                 ==============================
                            Begin CG move =     21
                        ==============================

outcell: Unit cell vectors (Ang):
        4.940717    0.000000    0.000000
        0.000000    4.940717    0.000000
        0.000000    0.000000    6.260717

outcell: Cell vector modules (Ang)   :    4.940717    4.940717    6.260717
outcell: Cell angles (23,13,12) (deg):     90.0000     90.0000     90.0000
outcell: Cell volume (Ang**3)        :    152.8284

siesta: iscf   Eharris(eV)      E_KS(eV)   FreeEng(eV)   dDmax  Ef(eV)
siesta:    1     -185.7803     -186.4063     -186.4063  0.0639  0.6548
siesta:    2     -185.7695     -185.7649     -185.7650  0.0124  0.4948
siesta:    3     -185.7686     -185.8160     -185.8162  0.0081  0.5101
siesta:    4     -185.7684     -185.7689     -185.7691  0.0003  0.5100
siesta:    5     -185.7684     -185.7688     -185.7689  0.0000  0.5135

siesta: E_KS(eV) =             -185.7685

siesta: Atomic forces (eV/Ang):
----------------------------------------
   Tot    0.000000    0.000001   -0.025312
----------------------------------------
   Max    1.096285
   Res    0.625676    sqrt( Sum f_i^2 / 3N )
----------------------------------------
   Max    1.096285    constrained

Stress-tensor-Voigt (kbar):       -0.27       -0.27       18.77        0.00        0.00        0.00
Target enthalpy (eV/cell)     -185.7686
Cycling the Broyden process...

* Maximum dynamic memory allocated =    11 MB

siesta:                 ==============================
                            Begin CG move =     22
                        ==============================

outcell: Unit cell vectors (Ang):
        4.940717    0.000000    0.000000
        0.000000    4.940717    0.000000
        0.000000    0.000000    6.260717

outcell: Cell vector modules (Ang)   :    4.940717    4.940717    6.260717
outcell: Cell angles (23,13,12) (deg):     90.0000     90.0000     90.0000
outcell: Cell volume (Ang**3)        :    152.8284

siesta: iscf   Eharris(eV)      E_KS(eV)   FreeEng(eV)   dDmax  Ef(eV)
siesta:    1     -185.8151     -185.3649     -185.3651  0.0440  0.3404
siesta:    2     -185.8098     -185.8080     -185.8080  0.0087  0.4708
siesta:    3     -185.8095     -185.7726     -185.7726  0.0055  0.4547
siesta:    4     -185.8094     -185.8085     -185.8085  0.0001  0.4499

siesta: E_KS(eV) =             -185.8091

siesta: Atomic forces (eV/Ang):
----------------------------------------
   Tot    0.000002    0.000001    0.003337
----------------------------------------
   Max    0.456959
   Res    0.262864    sqrt( Sum f_i^2 / 3N )
----------------------------------------
   Max    0.456959    constrained

Stress-tensor-Voigt (kbar):       -0.23       -0.23       -7.41        0.00        0.00        0.00
Target enthalpy (eV/cell)     -185.8091
Cycling the Broyden process...

* Maximum dynamic memory allocated =    11 MB

siesta:                 ==============================
                            Begin CG move =     23
                        ==============================

outcell: Unit cell vectors (Ang):
        4.940717    0.000000    0.000000
        0.000000    4.940717    0.000000
        0.000000    0.000000    6.260717

outcell: Cell vector modules (Ang)   :    4.940717    4.940717    6.260717
outcell: Cell angles (23,13,12) (deg):     90.0000     90.0000     90.0000
outcell: Cell volume (Ang**3)        :    152.8284

siesta: iscf   Eharris(eV)      E_KS(eV)   FreeEng(eV)   dDmax  Ef(eV)
siesta:    1     -185.8151     -185.9822     -185.9822  0.0175  0.5162
siesta:    2     -185.8143     -185.8140     -185.8140  0.0034  0.4677
siesta:    3     -185.8142     -185.8274     -185.8274  0.0022  0.4731
siesta:    4     -185.8142     -185.8144     -185.8144  0.0001  0.4740

siesta: E_KS(eV) =             -185.8143

siesta: Atomic forces (eV/Ang):
----------------------------------------
   Tot    0.000000    0.000001   -0.022019
----------------------------------------
   Max    0.211862
   Res    0.116136    sqrt( Sum f_i^2 / 3N )
----------------------------------------
   Max    0.211862    constrained

Stress-tensor-Voigt (kbar):       -0.30       -0.30        3.04        0.00        0.00        0.00
Target enthalpy (eV/cell)     -185.8143
Cycling the Broyden process...

* Maximum dynamic memory allocated =    11 MB

siesta:                 ==============================
                            Begin CG move =     24
                        ==============================

outcell: Unit cell vectors (Ang):
        4.940717    0.000000    0.000000
        0.000000    4.940717    0.000000
        0.000000    0.000000    6.260717

outcell: Cell vector modules (Ang)   :    4.940717    4.940717    6.260717
outcell: Cell angles (23,13,12) (deg):     90.0000     90.0000     90.0000
outcell: Cell volume (Ang**3)        :    152.8284

siesta: iscf   Eharris(eV)      E_KS(eV)   FreeEng(eV)   dDmax  Ef(eV)
siesta:    1     -185.8158     -185.7575     -185.7575  0.0058  0.4519
siesta:    2     -185.8157     -185.8157     -185.8157  0.0012  0.4687
siesta:    3     -185.8157     -185.8108     -185.8108  0.0007  0.4667
siesta:    4     -185.8157     -185.8156     -185.8156  0.0000  0.4663

siesta: E_KS(eV) =             -185.8156

siesta: Atomic forces (eV/Ang):
----------------------------------------
   Tot    0.000002   -0.000001    0.011931
----------------------------------------
   Max    0.015320
   Res    0.006405    sqrt( Sum f_i^2 / 3N )
----------------------------------------
   Max    0.015320    constrained

Stress-tensor-Voigt (kbar):       -0.22       -0.22        0.30        0.00        0.00        0.00
Target enthalpy (eV/cell)     -185.8156

* Maximum dynamic memory allocated =    11 MB

outcoor: Relaxed atomic coordinates (Ang):                  
    0.00000030    0.00000043   -0.17033153   1       1  O-Fraction-0.50000
   -0.00000070   -0.00000023    1.41338633   1       2  O-Fraction-0.50000

siesta: Program's energy decomposition (eV):
siesta: Eions   =       388.219918
siesta: Ena     =       178.898727
siesta: Ekin    =       104.210326
siesta: Enl     =        18.874054
siesta: DEna    =       -45.717303
siesta: DUscf   =         4.497954
siesta: DUext   =         0.000000
siesta: Exc     =       -58.359487
siesta: eta*DQ  =         0.000000
siesta: Emadel  =         0.000000
siesta: Emeta   =         0.000000
siesta: Emolmec =         0.000000
siesta: Ekinion =         0.000000
siesta: Eharris =      -185.815690
siesta: Etot    =      -185.815646
siesta: FreeEng =      -185.815646

siesta: Final energy (eV):
siesta:       Kinetic =     104.210326
siesta:       Hartree =      98.447925
siesta:    Ext. field =       0.000000
siesta:   Exch.-corr. =     -58.359487
siesta:  Ion-electron =    -287.032203
siesta:       Ion-ion =     -43.082207
siesta:       Ekinion =       0.000000
siesta:         Total =    -185.815646

siesta: Stress tensor (static) (eV/Ang**3):
siesta:    -0.000140    0.000000    0.000000
siesta:     0.000000   -0.000140    0.000000
siesta:     0.000000    0.000000    0.000190

siesta: Cell volume =        152.828404 Ang**3

siesta: Pressure (static):
siesta:                Solid            Molecule  Units
siesta:           0.00000033          0.00000068  Ry/Bohr**3
siesta:           0.00003036          0.00006267  eV/Ang**3
siesta:           0.04863762          0.10040868  kBar

siesta: Total spin polarization (Qup-Qdown) =    2.000005

siesta: Electric dipole (a.u.)  =    0.000000    0.000000   -0.000028
siesta: Electric dipole (Debye) =    0.000000    0.000000   -0.000072

* Maximum dynamic memory allocated : Node    0 =    11 MB

* Maximum memory occured during poison                        

timer: CPU execution times:
timer:  Routine       Calls   Time/call    Tot.time        %
timer:  siesta            1     268.034     268.034   100.00
timer:  Setup             1       0.369       0.369     0.14
timer:  bands             1       0.000       0.000     0.00
timer:  writewave         1       0.001       0.001     0.00
timer:  KSV_init          1       0.000       0.000     0.00
timer:  IterMD           25      10.706     267.658    99.86
timer:  hsparse          26       0.023       0.586     0.22
timer:  overfsm          50       0.025       1.228     0.46
timer:  IterSCF         180       1.477     265.860    99.19
timer:  kinefsm          50       0.023       1.164     0.43
timer:  nlefsm           50       0.061       3.032     1.13
timer:  DHSCF           180       1.449     260.784    97.30
timer:  DHSCF1            1       0.319       0.319     0.12
timer:  DHSCF2           25       1.002      25.042     9.34
timer:  REORD          2030       0.002       3.890     1.45
timer:  POISON          205       0.092      18.826     7.02
timer:  DHSCF3          180       1.106     199.094    74.28
timer:  rhoofd          180       0.371      66.756    24.91
timer:  cellXC          180       0.145      26.177     9.77
timer:  vmat            180       0.405      72.957    27.22
timer:  diagon          155       0.002       0.276     0.10
timer:  rdiag           310       0.001       0.196     0.07
timer:  rdiag1          310       0.000       0.008     0.00
timer:  rdiag2          310       0.000       0.022     0.01
timer:  rdiag3          310       0.000       0.142     0.05
timer:  rdiag4          310       0.000       0.007     0.00
timer:  MolMec           50       0.000       0.001     0.00
timer:  DHSCF4           25       1.394      34.853    13.00
timer:  dfscf            25       1.323      33.067    12.34
timer:  optical           1       0.000       0.000     0.00
  

elaps: ELAPSED times:
elaps:  Routine       Calls   Time/call    Tot.time        %
elaps:  siesta            1     272.826     272.826   100.00
elaps:  Setup             1       3.451       3.451     1.26
elaps:  bands             1       0.000       0.000     0.00
elaps:  writewave         1       0.001       0.001     0.00
elaps:  KSV_init          1       0.000       0.000     0.00
elaps:  IterMD           25      10.775     269.369    98.73
elaps:  hsparse          26       0.023       0.590     0.22
elaps:  overfsm          50       0.025       1.230     0.45
elaps:  IterSCF         180       1.486     267.567    98.07
elaps:  kinefsm          50       0.023       1.162     0.43
elaps:  nlefsm           50       0.061       3.040     1.11
elaps:  DHSCF           180       1.450     260.936    95.64
elaps:  DHSCF1            1       0.318       0.318     0.12
elaps:  DHSCF2           25       1.002      25.060     9.19
elaps:  REORD          2030       0.002       3.914     1.43
elaps:  POISON          205       0.092      18.848     6.91
elaps:  DHSCF3          180       1.107     199.173    73.00
elaps:  rhoofd          180       0.371      66.782    24.48
elaps:  cellXC          180       0.145      26.183     9.60
elaps:  vmat            180       0.405      72.984    26.75
elaps:  diagon          155       0.002       0.281     0.10
elaps:  rdiag           310       0.001       0.198     0.07
elaps:  rdiag1          310       0.000       0.010     0.00
elaps:  rdiag2          310       0.000       0.019     0.01
elaps:  rdiag3          310       0.000       0.148     0.05
elaps:  rdiag4          310       0.000       0.011     0.00
elaps:  MolMec           50       0.000       0.001     0.00
elaps:  DHSCF4           25       1.394      34.858    12.78
elaps:  dfscf            25       1.323      33.072    12.12
elaps:  optical           1       0.000       0.000     0.00
  
>> End of run:  22-JAN-2007   9:26:33
