Siesta Version  : siesta-4.0--578
Architecture    : x86_64-linux-n-62-25-35
Compiler version: GNU Fortran (GCC) 7.3.0
Compiler flags  : mpif90 -m64 -fPIC -O3 -march=native -ftree-vectorize -fexpensive-optimizationns -funroll-loops -fprefetch-loop-arrays -fno-second-underscore
PP flags        : -I/zdata/groups/common/nicpa/2018-feb/generic/build-tools/1.0/include -I/zdatta/groups/common/nicpa/2018-feb/generic/gcc/7.3.0/include -I/zdata/groups/common/nicpa/2018-feb/generic/gcc/7.3.0/include -I/zdata/groups/common/nicpa/2018-feb/XeonE5-2660v3/zlib/1.2.11/gnu-7.3.0/include -I/zdata/groups/common/nicpa/2018-feb/generic/numactl/2.0.11/include -I/zdata/groups/common/nicpa/2018-feb/XeonE5-2660v3/libxml2/2.9.7/gnu-7.3.0/include -I/zdata/groups/common/nicpa/2018-feb/XeonE5-2660v3/hwloc/1.11.9/gnu-7.3.0/include -I/zdata/groups/common/nicpa/2018-feb/XeonE5-2660v3/openmpi/3.0.0/gnu-7.3.0/include -I/zdata/groups/common/nicpa/2018-feb/XeonE5-2660v3/szip/2.1.1/gnu-7.3.0/include -I/zdata/groups/common/nicpa/2018-feb/XeonE5-2660v3/hdf5-serial/1.8.18/gnu-7.3.0/include -I/zdata/groups/common/nicpa/2018-feb/XeonE5-2660v3/netcdf-serial/4.6.0/gnu-7.3.0/include -I/zdata/groups/common/nicpa/2018-feb/XeonE5-2660v3/scalapack/204/gnu-7.3.0/include -I/zdata/groups/common/nicpa/2018-feb/XeonE5-2660v3/openblas/0.2.20/gnu-7.3.0/include -I/zdata/groups/common/nicpa/2018-feb/XeonE5-2660v3/elpa/2017.05.003/gnu-7.3.0/include -DSIESTA__ELPA -DMPI -D1 -DFC_HAVE_ABORT -DCDF -DSIESTA__MRRR 
PARALLEL version
NetCDF support

* Running on    8 nodes in parallel
>> Start of run:  10-JUN-2018  21:52:39

                           ***********************       
                           *  WELCOME TO SIESTA  *       
                           ***********************       

reinit: Reading from standard input
************************** Dump of input data file ****************************
SystemName      bulk Lead -- filtering by tolerance
SystemLabel     pb_filter_tol
NumberOfSpecies      1
NumberOfAtoms	     1
%block ChemicalSpeciesLabel
    1    82    Pb
%endblock ChemicalSpeciesLabel
%block PS.lmax
   Pb   3
%endblock PS.lmax
FilterTol 0.008 Ry
MeshCutoff   200.0 Ry
LatticeConstant      4.89 Ang
%block LatticeVectors
   0.50    0.50    0.00
   0.50    0.00    0.50
   0.00    0.50    0.50
%endblock LatticeVectors
AtomicCoordinatesFormat	     ScaledCartesian
%block AtomicCoordinatesAndAtomicSpecies
        0.000000        0.000000        0.000000        1
%endblock AtomicCoordinatesAndAtomicSpecies
%block kgrid_Monkhorst_Pack
   7   0    0    0.5
   0   7    0    0.5
   0    0   7    0.5
%endblock kgrid_Monkhorst_Pack
DM.NumberPulay         3
DM.MixingWeight        0.05
WriteDM F
%Block PAO.Basis
Pb   3     -0.30296
 n=6   0   2   E     3.76509     2.94865
     5.41509     4.89944
     1.00000     1.00000
 n=6   1   2   E     2.50435     0.86601
     6.12615     5.62330
     1.00000     1.00000
 n=6   2   1   E   135.64896     4.82387
     5.14075
     1.00000
%EndBlock PAO.Basis
************************** End of input data file *****************************

reinit: -----------------------------------------------------------------------
reinit: System Name: bulk Lead -- filtering by tolerance
reinit: -----------------------------------------------------------------------
reinit: System Label: pb_filter_tol                                               
reinit: -----------------------------------------------------------------------

initatom: Reading input for the pseudopotentials and atomic orbitals ----------
 Species number:            1  Label: Pb Atomic number:          82
Ground state valence configuration:   6s02  6p02
Reading pseudopotential information in formatted form from Pb.psf

Pseudopotential generated from a relativistic atomic calculation
There are spin-orbit pseudopotentials available
Spin-orbit interaction is not included in this calculation

Valence configuration for pseudopotential generation:
6s( 2.00) rc: 2.18
6p( 2.00) rc: 2.87
6d( 0.00) rc: 2.98
5f( 0.00) rc: 2.87
relmxkb: Read Max KB Ang. Momentum=    3 for species Pb

<basis_specs>
===============================================================================
Pb                   Z=  82    Mass=  207.20        Charge=-0.30296    
Lmxo=2 Lmxkb= 3    BasisType=split      Semic=F
L=0  Nsemic=0  Cnfigmx=6
          n=1  nzeta=2  polorb=0
            splnorm:   0.15000    
               vcte:    3.7651    
               rinn:    2.9487    
               qcoe:    0.0000    
               qyuk:    0.0000    
               qwid:   0.10000E-01
                rcs:    5.4151      4.8994    
            lambdas:    1.0000      1.0000    
L=1  Nsemic=0  Cnfigmx=6
          n=1  nzeta=2  polorb=0
            splnorm:   0.15000    
               vcte:    2.5044    
               rinn:   0.86601    
               qcoe:    0.0000    
               qyuk:    0.0000    
               qwid:   0.10000E-01
                rcs:    6.1261      5.6233    
            lambdas:    1.0000      1.0000    
L=2  Nsemic=0  Cnfigmx=6
          n=1  nzeta=1  polorb=0
            splnorm:   0.15000    
               vcte:    135.65    
               rinn:    4.8239    
               qcoe:    0.0000    
               qyuk:    0.0000    
               qwid:   0.10000E-01
                rcs:    5.1407    
            lambdas:    1.0000    
-------------------------------------------------------------------------------
L=0  Nkbl=1  erefs: 0.17977+309
L=1  Nkbl=1  erefs: 0.17977+309
L=2  Nkbl=1  erefs: 0.17977+309
L=3  Nkbl=1  erefs: 0.17977+309
===============================================================================
</basis_specs>

Filter: kinetic energy tolerance:    0.008000 Ry
atom: Called for Pb                    (Z =  82)

read_vps: Pseudopotential generation method:
read_vps: ATM3      Troullier-Martins                       
Total valence charge:    4.00000

read_vps: Pseudopotential includes a core correction:
read_vps: Pseudo-core for xc-correction

xc_check: Exchange-correlation functional:
xc_check: Ceperley-Alder
V l=0 = -2*Zval/r beyond r=  4.3417
V l=1 = -2*Zval/r beyond r=  4.3417
V l=2 = -2*Zval/r beyond r=  4.3417
V l=3 = -2*Zval/r beyond r=  4.3417
All V_l potentials equal beyond r=  2.9469
This should be close to max(r_c) in ps generation
All pots = -2*Zval/r beyond r=  4.3417
Using large-core scheme for Vlocal

atom: Estimated core radius    4.34173
atom: Maximum radius for 4*pi*r*r*local-pseudopot. charge    4.73875
atom: Maximum radius for r*vlocal+2*Zval:    4.39635
GHOST: No ghost state for L =  0
GHOST: No ghost state for L =  1
GHOST: No ghost state for L =  2
GHOST: No ghost state for L =  3

KBgen: Kleinman-Bylander projectors: 
   l= 0   rc=  3.021552   el= -0.897425   Ekb=  7.460315   kbcos=  0.182446
   l= 1   rc=  3.059559   el= -0.274092   Ekb=  2.458119   kbcos=  0.255536
   l= 2   rc=  3.059559   el=  0.002395   Ekb=  3.554855   kbcos=  0.076826
   l= 3   rc=  3.059559   el=  0.003524   Ekb= -1.662449   kbcos= -0.034384

KBgen: Total number of  Kleinman-Bylander projectors:   16
atom: -------------------------------------------------------------------------

atom: SANKEY-TYPE ORBITALS:
atom: Selected multiple-zeta basis: split     

atom: basis set generated (by rescaling the valence charge)
atom: for an anion of charge  -0.3030

SPLIT: Orbitals with angular momentum L= 0

SPLIT: Basis orbitals for state 6s

   izeta = 1
                 lambda =    1.000000
                     rc =    5.437260
                 energy =   -0.885135
                kinetic =    0.601459
    potential(screened) =   -1.486593
       potential(ionic) =   -3.374130
PAO Filter: Cutoff estimated from residual kin energy:   17.98 Ry
Filter:    Number of eigenfunctions  of the
           filtering kernel (total, used)= 25  6

   izeta = 2
                 rmatch =    4.919833
              splitnorm =    0.064481
                 energy =   -0.835832
                kinetic =    0.802803
    potential(screened) =   -1.638636
       potential(ionic) =   -3.544488
PAO Filter: Cutoff estimated from residual kin energy:   20.27 Ry
Filter:    Number of eigenfunctions  of the
           filtering kernel (total, used)= 24  5

SPLIT: Orbitals with angular momentum L= 1

SPLIT: Basis orbitals for state 6p

   izeta = 1
                 lambda =    1.000000
                     rc =    6.161226
                 energy =   -0.228218
                kinetic =    0.741633
    potential(screened) =   -0.969851
       potential(ionic) =   -2.823604
PAO Filter: Cutoff estimated from residual kin energy:    7.13 Ry
Filter:    Number of eigenfunctions  of the
           filtering kernel (total, used)= 21  3

   izeta = 2
                 rmatch =    5.716035
              splitnorm =    0.049483
                 energy =   -0.174498
* WARNING: effective split_norm is quite small. Orbitals will be very similar.
                kinetic =    0.884465
    potential(screened) =   -1.058964
       potential(ionic) =   -2.950318
PAO Filter: Cutoff estimated from residual kin energy:    8.08 Ry
Filter:    Number of eigenfunctions  of the
           filtering kernel (total, used)= 21  3

SPLIT: Orbitals with angular momentum L= 2

SPLIT: Basis orbitals for state 6d

   izeta = 1
                 lambda =    1.000000
                     rc =    5.172080
                 energy =    0.650319
                kinetic =    1.811423
    potential(screened) =   -1.161104
       potential(ionic) =   -2.940924
PAO Filter: Cutoff estimated from residual kin energy:   47.73 Ry
Filter:    Number of eigenfunctions  of the
           filtering kernel (total, used)= 33  9
atom: Total number of Sankey-type orbitals: 13
Maximum filter cutoff from orbitals:    47.7321 Ry

atm_pop: Valence configuration (for local Pseudopot. screening):
 6s( 2.00)                                                            
 6p( 2.00)                                                            
 6d( 0.00)                                                            
Vna: chval, zval:    4.00000   4.00000

Vna:  Cut-off radius for the neutral-atom potential:   6.161226
VNA Filter: diagnostic kinetic energy tol:    0.003000 Ry
VNA Filter: Nominal cutoff (before filtering):    7.02 Ry
VNA Filter: Cutoff used:    97.41 Ry
Filter:    Number of eigenfunctions  of the
           filtering kernel (total, used)= 50 18
comcore: Pseudo-core radius Rcore=  5.574905
PCC Filter: diagnostic kin energy tol:    0.003000 Ry
PCC Filter: Nominal cutoff (before filtering):  120.12 Ry
PCC Filter: Cutoff used:    97.41 Ry
Filter:    Number of eigenfunctions  of the
           filtering kernel (total, used)= 46 16

atom: _________________________________________________________________________

prinput: Basis input ----------------------------------------------------------

PAO.BasisType split     

%block ChemicalSpeciesLabel
    1   82 Pb                      # Species index, atomic number, species label
%endblock ChemicalSpeciesLabel

%block PAO.Basis                 # Define Basis set
Pb                    3  -0.303            # Label, l-shells, ionic net charge
 n=6   0   2                         # n, l, Nzeta 
   5.437      4.920   
   1.000      1.000   
 n=6   1   2                         # n, l, Nzeta 
   6.161      5.716   
   1.000      1.000   
 n=6   2   1                         # n, l, Nzeta 
   5.172   
   1.000   
%endblock PAO.Basis

prinput: ----------------------------------------------------------------------

Dumping basis to NetCDF file Pb.ion.nc
coor:   Atomic-coordinates input format  =     Cartesian coordinates
coor:                                          (in units of alat)

siesta: Atomic coordinates (Bohr) and species
siesta:      0.00000   0.00000   0.00000  1        1

siesta: System type = bulk      

initatomlists: Number of atoms, orbitals, and projectors:      1    13    16

siesta: ******************** Simulation parameters ****************************
siesta:
siesta: The following are some of the parameters of the simulation.
siesta: A complete list of the parameters used, including default values,
siesta: can be found in file out.fdf
siesta:
redata: Non-Collinear-spin run           =     F
redata: SpinPolarized (Up/Down) run      =     F
redata: Number of spin components        =     1
redata: Long output                      =     F
redata: Number of Atomic Species         =        1
redata: Charge density info will appear in .RHO file
redata: Write Mulliken Pop.              =     NO
redata: Matel table size (NRTAB)         =     1024
redata: Mesh Cutoff                      =   200.0000 Ry
redata: Net charge of the system         =     0.0000 |e|
redata: Min. number of SCF Iter          =        0
redata: Max. number of SCF Iter          =       50
redata: Mix DM or H after convergence    =     F
redata: Recompute H after scf cycle      =     F
redata: Performing Pulay mixing using    =     3 iterations
redata: Mix DM in first SCF step ?       =     F
redata: Write Pulay info on disk?        =     F
redata: Discard 1st Pulay DM after  kick =     F
redata: New DM Mixing Weight             =     0.0500
redata: New DM Occupancy tolerance       = 0.000000000001
redata: No kicks to SCF
redata: DM Mixing Weight for Kicks       =     0.5000
redata: DM Tolerance for SCF             =     0.000100
redata: Require (free) Energy convergence in SCF =     F
redata: DM (free)Energy tolerance for SCF =     0.000010 eV
redata: Require Harris convergence for SCF =     F
redata: DM Harris energy tolerance for SCF =     0.000010 eV
redata: Using Saved Data (generic)   =     F
redata: Use continuation files for DM    =     F
redata: Neglect nonoverlap interactions  =     F
redata: Method of Calculation            =     Diagonalization
redata: Divide and Conquer               =     T
redata: Electronic Temperature           =     0.0019  Ry
redata: Fix the spin of the system       =     F
redata: Dynamics option                  =     Single-point calculation
redata: ***********************************************************************
Total number of electrons:     4.000000
Total ionic charge:     4.000000

* ProcessorY, Blocksize:    2   1


* Orbital distribution balance (max,min):     2     1

k-point displ. along   1 input, could be:     0.50    0.00
k-point displ. along   2 input, could be:     0.50    0.00
k-point displ. along   3 input, could be:     0.50    0.00
 Kpoints in:          196 . Kpoints trimmed:          196

siesta: k-grid: Number of k-points =   196
siesta: k-grid: Cutoff (effective) =    12.102 Ang
siesta: k-grid: Supercell and displacements
siesta: k-grid:    7   0   0      0.500
siesta: k-grid:    0   7   0      0.500
siesta: k-grid:    0   0   7      0.500
Naive supercell factors:     6    6    6

superc: Internal auxiliary supercell:     6 x     6 x     6  =     216
superc: Number of atoms, orbitals, and projectors:    216   2808   3456

                     ====================================
                        Single-point calculation
                     ====================================

superc: Internal auxiliary supercell:     6 x     6 x     6  =     216
superc: Number of atoms, orbitals, and projectors:    216   2808   3456

outcell: Unit cell vectors (Ang):
        2.445000    2.445000    0.000000
        2.445000    0.000000    2.445000
        0.000000    2.445000    2.445000

outcell: Cell vector modules (Ang)   :    3.457752    3.457752    3.457752
outcell: Cell angles (23,13,12) (deg):     60.0000     60.0000     60.0000
outcell: Cell volume (Ang**3)        :     29.2325
New_DM. Step:     1
Initializing Density Matrix...
New grid distribution:   1
           1       1:   15    1:    8    1:    4
           2       1:   15    1:    8    5:    8
           3       1:   15    1:    8    9:   12
           4       1:   15    1:    8   13:   15
           5       1:   15    9:   15    1:    4
           6       1:   15    9:   15    5:    8
           7       1:   15    9:   15    9:   12
           8       1:   15    9:   15   13:   15

InitMesh: MESH =    30 x    30 x    30 =       27000
InitMesh: (bp) =    15 x    15 x    15 =        3375
InitMesh: Mesh cutoff (required, used) =   200.000   312.067 Ry
ExtMesh (bp) on 0 =    87 x    80 x    76 =      528960
New grid distribution:   2
           1       1:    8    1:    8    1:    8
           2       9:   15    9:   15    1:    8
           3       1:    8    1:    8    9:   15
           4       9:   15    1:    8    9:   15
           5       1:    8    9:   15    1:    8
           6       9:   15    1:    8    1:    8
           7       1:    8    9:   15    9:   15
           8       9:   15    9:   15    9:   15
New grid distribution:   3
           1       1:    8    1:    8    1:    8
           2       9:   15    9:   15    1:    8
           3       1:    8    1:    8    9:   15
           4       9:   15    1:    8    9:   15
           5       1:    8    9:   15    1:    8
           6       9:   15    1:    8    1:    8
           7       1:    8    9:   15    9:   15
           8       9:   15    9:   15    9:   15
Setting up quadratic distribution...
ExtMesh (bp) on 0 =    80 x    80 x    80 =      512000
PhiOnMesh: Number of (b)points on node 0 =                  512
PhiOnMesh: nlist on node 0 =                26283

stepf: Fermi-Dirac step function

siesta: Program's energy decomposition (eV):
siesta: Ebs     =       -29.334462
siesta: Eions   =       122.930792
siesta: Ena     =        18.410043
siesta: Ekin    =        36.117328
siesta: Enl     =        15.260943
siesta: DEna    =         0.000001
siesta: DUscf   =         0.000000
siesta: DUext   =         0.000000
siesta: Exc     =      -291.905933
siesta: eta*DQ  =         0.000000
siesta: Emadel  =         0.000000
siesta: Emeta   =         0.000000
siesta: Emolmec =         0.000000
siesta: Ekinion =         0.000000
siesta: Eharris =      -349.054143
siesta: Etot    =      -345.048410
siesta: FreeEng =      -345.049688

   scf: iscf   Eharris(eV)      E_KS(eV)   FreeEng(eV)    dDmax  Ef(eV)
   scf:    1     -349.0541     -345.0484     -345.0497  0.38965 -2.0066
timer: Routine,Calls,Time,% =    IterSCF     1       0.839  49.38
   scf:    2     -348.9997     -348.9951     -348.9965  0.06300 -2.1548
   scf:    3     -348.9994     -348.9010     -348.9024  0.06756 -2.1506
   scf:    4     -348.9993     -349.0012     -349.0026  0.00019 -2.1437
   scf:    5     -353.1796     -348.9988     -349.0001  0.33389 -2.7118
   scf:    6     -353.1796     -349.0021     -349.0033  0.33387 -2.7119
   scf:    7     -353.1796     -348.9981     -348.9993  0.33396 -2.7118
   scf:    8     -353.0936     -348.2022     -348.2034  0.31958 -2.6852
   scf:    9     -349.1089     -345.7759     -345.7770  0.19508 -2.0325
   scf:   10     -349.0130     -348.5938     -348.5951  0.12567 -2.1208
   scf:   11     -349.0067     -348.8798     -348.8812  0.11959 -2.1319
   scf:   12     -348.9999     -348.9742     -348.9756  0.00912 -2.1473
   scf:   13     -348.9998     -348.9743     -348.9757  0.00846 -2.1472
   scf:   14     -348.9993     -348.9675     -348.9689  0.00215 -2.1430
   scf:   15     -348.9993     -348.9691     -348.9705  0.00202 -2.1430
   scf:   16     -348.9993     -348.9939     -348.9952  0.00074 -2.1432
   scf:   17     -348.9993     -348.9945     -348.9958  0.00072 -2.1433
   scf:   18     -348.9993     -348.9960     -348.9974  0.00060 -2.1434
   scf:   19     -348.9993     -348.9948     -348.9962  0.00030 -2.1434
   scf:   20     -348.9993     -348.9949     -348.9963  0.00028 -2.1434
   scf:   21     -348.9993     -348.9986     -349.0000  0.00006 -2.1434

SCF Convergence by dMax criterion
max |DM_out - DM_in|:     0.00005665
SCF cycle converged after   21 iterations

Using DM_out to compute the final energy and forces

siesta: E_KS(eV) =             -348.9993

siesta: E_KS - E_eggbox =      -348.9993

siesta: Atomic forces (eV/Ang):
----------------------------------------
   Tot   -0.000000   -0.000000    0.000000
----------------------------------------
   Max    0.000000
   Res    0.000000    sqrt( Sum f_i^2 / 3N )
----------------------------------------
   Max    0.000000    constrained

Stress-tensor-Voigt (kbar):       31.54       31.54       31.54       -8.38       -8.38       -8.38
(Free)E + p*V (eV/cell)     -349.5762
Target enthalpy (eV/cell)     -349.0007

siesta: Program's energy decomposition (eV):
siesta: Ebs     =       -30.125363
siesta: Eions   =       122.930792
siesta: Ena     =        18.410043
siesta: Ekin    =        30.736234
siesta: Enl     =        12.744002
siesta: DEna    =         2.140374
siesta: DUscf   =         0.095240
siesta: DUext   =         0.000000
siesta: Exc     =      -290.194422
siesta: eta*DQ  =         0.000000
siesta: Emadel  =         0.000000
siesta: Emeta   =         0.000000
siesta: Emolmec =         0.000000
siesta: Ekinion =         0.000000
siesta: Eharris =      -348.999322
siesta: Etot    =      -348.999322
siesta: FreeEng =      -349.000710

siesta: Final energy (eV):
siesta:  Band Struct. =     -30.125363
siesta:       Kinetic =      30.736234
siesta:       Hartree =       1.179398
siesta:    Ext. field =       0.000000
siesta:   Exch.-corr. =    -290.194422
siesta:  Ion-electron =     -15.818165
siesta:       Ion-ion =     -74.902366
siesta:       Ekinion =       0.000000
siesta:         Total =    -348.999322

siesta: Stress tensor (static) (eV/Ang**3):
siesta:     0.019687   -0.005228   -0.005227
siesta:    -0.005228    0.019687   -0.005228
siesta:    -0.005227   -0.005228    0.019687

siesta: Cell volume =         29.232542 Ang**3

siesta: Pressure (static):
siesta:                Solid            Molecule  Units
siesta:          -0.00021442         -0.00021442  Ry/Bohr**3
siesta:          -0.01968721         -0.01968721  eV/Ang**3
siesta:         -31.54272751        -31.54272751  kBar
(Free)E+ p_basis*V_orbitals  =        -348.350760
(Free)Eharris+ p_basis*V_orbitals  =        -348.350760
>> End of run:  10-JUN-2018  21:52:57
Job completed
