Siesta Version  : trunk-703
Architecture    : gfortran-macosx64-openmpi
Compiler version: GNU Fortran (Homebrew GCC 7.2.0) 7.2.0
Compiler flags  : mpif90 -O2 -fbacktrace -g
PP flags        : -DCDF -DMPI  -DMPI_TIMING -DF2003
Libraries       :  -L/usr/local/lib -lnetcdff -L/opt/scalapack/openmpi-2.1.2--gfortran-7.2.0/liib -lscalapack -L/usr/local/opt/openblas/lib -llapack -lblas
PARALLEL version
NetCDF support

* Running on 2 nodes in parallel
>> Start of run:   8-JUN-2018  17:10:40

                           ***********************       
                           *  WELCOME TO SIESTA  *       
                           ***********************       

reinit: Reading from ../Pt_dimer_soc.fdf

reinit: -----------------------------------------------------------------------
reinit: System Name: Pt dimer x-alignment y-spin
reinit: -----------------------------------------------------------------------
reinit: System Label: Pt_dimer_soc
reinit: -----------------------------------------------------------------------

initatom: Reading input for the pseudopotentials and atomic orbitals ----------
Species number:   1 Atomic number:   78 Label: Pt_pt2_SOC

Ground state valence configuration:   6s01  5d09
Reading pseudopotential information in formatted form from Pt_pt2_SOC.psf

Pseudopotential generated from a relativistic atomic calculation

Valence configuration for pseudopotential generation:
6s( 1.00) rc: 2.24
6p( 0.00) rc: 2.73
5d( 9.00) rc: 1.24
5f( 0.00) rc: 2.98
For Pt_pt2_SOC, standard SIESTA heuristics set lmxkb to 3
 (one more than the basis l, including polarization orbitals).
Use PS.lmax or PS.KBprojectors blocks to override.
 Warning: Empty PAO shell. l =           1
 Will have a KB projector anyway...

<basis_specs>
===============================================================================
Pt_pt2_SOC           Z=  78    Mass=  195.08        Charge= 0.17977+309
Lmxo=2 Lmxkb= 3    BasisType=split      Semic=F
L=0  Nsemic=0  Cnfigmx=6
          n=1  nzeta=2  polorb=1
            splnorm:   0.15000    
               vcte:    0.0000    
               rinn:    0.0000    
               qcoe:    0.0000    
               qyuk:    0.0000    
               qwid:   0.10000E-01
                rcs:    7.1580      6.0850    
            lambdas:    1.0000      1.0000    
L=1  Nsemic=0  Cnfigmx=6
L=2  Nsemic=0  Cnfigmx=5
          n=1  nzeta=2  polorb=0
            splnorm:   0.15000    
               vcte:    0.0000    
               rinn:    0.0000    
               qcoe:    0.0000    
               qyuk:    0.0000    
               qwid:   0.10000E-01
                rcs:    5.0440      3.0980    
            lambdas:    1.0000      1.0000    
-------------------------------------------------------------------------------
L=0  Nkbl=1  erefs: 0.17977+309
L=1  Nkbl=1  erefs: 0.17977+309
L=2  Nkbl=1  erefs: 0.17977+309
L=3  Nkbl=1  erefs: 0.17977+309
===============================================================================
</basis_specs>

atom: Called for Pt_pt2_SOC            (Z =  78)

read_vps: Pseudopotential generation method:
read_vps: ATM 3.2.2 Troullier-Martins                       
Total valence charge:   10.00000

read_vps: Pseudopotential includes a core correction:
read_vps: Pseudo-core for xc-correction

xc_check: Exchange-correlation functional:
xc_check: GGA Perdew, Burke & Ernzerhof 1996
V l=0 = -2*Zval/r beyond r=  3.0596
V l=1 = -2*Zval/r beyond r=  3.0596
V l=2 = -2*Zval/r beyond r=  3.0596
V l=3 = -2*Zval/r beyond r=  3.0981
All V_l potentials equal beyond r=  2.9104
This should be close to max(r_c) in ps generation
All pots = -2*Zval/r beyond r=  3.0981

VLOCAL1: 99.0% of the norm of Vloc inside      5.125 Ry
VLOCAL1: 99.9% of the norm of Vloc inside     11.679 Ry
atom: Maximum radius for 4*pi*r*r*local-pseudopot. charge    3.51058
atom: Maximum radius for r*vlocal+2*Zval:    3.09807

KBgen: Kleinman-Bylander projectors: 
GHOST: No ghost state for L =  0
   l= 0   rc=  3.297886   el= -0.413885   Ekb=  4.454381   kbcos=  0.246717
GHOST: No ghost state for L =  1
j- l= 1   rc=  3.381373   el= -0.088667   Ekb=  2.279260   kbcos=  0.222025
GHOST: No ghost state for L =  1
j+ l= 1   rc=  3.381373   el= -0.053882   Ekb=  1.951953   kbcos=  0.228197
GHOST: No ghost state for L =  2
j- l= 2   rc=  3.137044   el= -0.514155   Ekb= -5.403232   kbcos= -0.686649
GHOST: No ghost state for L =  2
j+ l= 2   rc=  3.176504   el= -0.416969   Ekb= -4.932723   kbcos= -0.669034
GHOST: No ghost state for L =  3
j- l= 3   rc=  3.599455   el=  0.003169   Ekb= -0.949828   kbcos= -0.024383
GHOST: No ghost state for L =  3
j+ l= 3   rc=  3.599455   el=  0.003169   Ekb= -0.924821   kbcos= -0.024361

KBgen: Total number of  Kleinman-Bylander projectors:   31
atom: -------------------------------------------------------------------------

atom: SANKEY-TYPE ORBITALS:
atom: Selected multiple-zeta basis: split     

SPLIT: Orbitals with angular momentum L= 0

SPLIT: Basis orbitals for state 6s

   izeta = 1
                 lambda =    1.000000
                     rc =    7.158402
                 energy =   -0.407576
                kinetic =    0.352573
    potential(screened) =   -0.760148
       potential(ionic) =   -7.385835

   izeta = 2
                 rmatch =    6.161289
              splitnorm =    0.131122
                 energy =   -0.352220
                kinetic =    0.555256
    potential(screened) =   -0.907476
       potential(ionic) =   -7.973623

SPLIT: Orbitals with angular momentum L= 2

SPLIT: Basis orbitals for state 5d

   izeta = 1
                 lambda =    1.000000
                     rc =    5.044431
                 energy =   -0.446663
                kinetic =    4.610144
    potential(screened) =   -5.056807
       potential(ionic) =  -13.997492

   izeta = 2
                 rmatch =    3.137044
              splitnorm =    0.127713
                 energy =   -0.238824
                kinetic =    6.240647
    potential(screened) =   -6.479472
       potential(ionic) =  -16.034552

POLgen: Perturbative polarization orbital with L=  1

POLgen: Polarization orbital for state 6s

   izeta = 1
                     rc =    7.158402
                 energy =   -0.090110
                kinetic =    0.622430
    potential(screened) =   -0.712540
       potential(ionic) =   -6.949247
atom: Total number of Sankey-type orbitals: 15

atm_pop: Valence configuration (for local Pseudopot. screening):
 6s( 1.00)                                                            
 6p( 0.00)                                                            
 5d( 9.00)                                                            
Vna: chval, zval:   10.00000  10.00000

Vna:  Cut-off radius for the neutral-atom potential:   7.158402
comcore: Pseudo-core radius Rcore=  4.130025

atom: _________________________________________________________________________

prinput: Basis input ----------------------------------------------------------

PAO.BasisType split     

%block ChemicalSpeciesLabel
    1   78 Pt_pt2_SOC              # Species index, atomic number, species label
%endblock ChemicalSpeciesLabel

%block PAO.Basis                 # Define Basis set
Pt_pt2_SOC            2                    # Species label, number of l-shells
 n=6   0   2 P   1                   # n, l, Nzeta, Polarization, NzetaPol
   7.158      6.161   
   1.000      1.000   
 n=5   2   2                         # n, l, Nzeta 
   5.044      3.137   
   1.000      1.000   
%endblock PAO.Basis

prinput: ----------------------------------------------------------------------

Dumping basis to NetCDF file Pt_pt2_SOC.ion.nc
coor:   Atomic-coordinates input format  =     Cartesian coordinates
coor:                                          (in Angstroms)

siesta: Atomic coordinates (Bohr) and species
siesta:     -2.26654   0.00000   0.00000  1        1
siesta:      2.26654   0.00000   0.00000  1        2

siesta: System type = molecule  

initatomlists: Number of atoms, orbitals, and projectors:      2    30    62

siesta: ******************** Simulation parameters ****************************
siesta:
siesta: The following are some of the parameters of the simulation.
siesta: A complete list of the parameters used, including default values,
siesta: can be found in file out.fdf
siesta:
redata: Spin configuration                          = spin-orbit+offsite
redata: Number of spin components                   = 8
redata: Time-Reversal Symmetry                      = F
redata: Spin-spiral                                 = F
############################################################
#              Spin-orbit coupling is in beta              #
#           Several options may not be compatible          #
############################################################
redata: Long output                                 =   F
redata: Number of Atomic Species                    =        1
redata: Charge density info will appear in .RHO file
redata: Write Mulliken Pop.                         = Atomic and Orbital charges
redata: Matel table size (NRTAB)                    =     1024
redata: Mesh Cutoff                                 =   300.0000 Ry
redata: Net charge of the system                    =     0.0000 |e|
redata: Min. number of SCF Iter                     =        0
redata: Max. number of SCF Iter                     =       15
redata: SCF mix quantity                            = Hamiltonian
redata: Mix DM or H after convergence               =   F
redata: Recompute H after scf cycle                 =   F
redata: Mix DM in first SCF step                    =   T
redata: Write Pulay info on disk                    =   F
redata: New DM Mixing Weight                        =     0.0100
redata: New DM Occupancy tolerance                  = 0.000000000001
redata: No kicks to SCF
redata: DM Mixing Weight for Kicks                  =     0.5000
redata: Require Harris convergence for SCF          =   F
redata: Harris energy tolerance for SCF             =     0.000100 eV
redata: Require DM convergence for SCF              =   T
redata: DM tolerance for SCF                        =     0.000100
redata: Require EDM convergence for SCF             =   F
redata: EDM tolerance for SCF                       =     0.001000 eV
redata: Require H convergence for SCF               =   T
redata: Hamiltonian tolerance for SCF               =     0.001000 eV
redata: Require (free) Energy convergence for SCF   =   F
redata: (free) Energy tolerance for SCF             =     0.000100 eV
redata: Using Saved Data (generic)                  =   F
redata: Use continuation files for DM               =   F
redata: Neglect nonoverlap interactions             =   F
redata: Method of Calculation                       = Diagonalization
redata: Electronic Temperature                      =   299.9869 K
redata: Fix the spin of the system                  =   F
redata: Split SR and SO contributions               =   T
redata: Max. number of TDED Iter                    =        1
redata: Number of TDED substeps                     =        3
redata: Dynamics option                             = Single-point calculation
mix.SCF: Pulay mixing                            = Pulay
mix.SCF:    Variant                              = stable
mix.SCF:    History steps                        = 6
mix.SCF:    Linear mixing weight                 =     0.010000
mix.SCF:    Mixing weight                        =     0.010000
mix.SCF:    SVD condition                        = 0.1000E-07
mix.SCF: Spin-component mixing                   spinor
redata: ***********************************************************************

%block SCF.Mixers
  Pulay
%endblock SCF.Mixers

%block SCF.Mixer.Pulay
  # Mixing method
  method pulay
  variant stable

  # Mixing options
  weight 0.0100
  weight.linear 0.0100
  history 6
%endblock SCF.Mixer.Pulay

DM_history_depth set to one: no extrapolation allowed by default for geometry relaxation
Size of DM history Fstack: 1
Total number of electrons:    20.000000
Total ionic charge:    20.000000

* ProcessorY, Blocksize:    1  16


* Orbital distribution balance (max,min):    16    14


siesta: k-grid: Number of k-points =         1
siesta: k-point is Gamma-only

diag: Algorithm                                     = D&C
diag: Parallel over k                               =   F
diag: Use parallel 2D distribution                  =   F
diag: Parallel block-size                           = 16
diag: Parallel distribution                         =     1 x     2
diag: Used triangular part                          = Lower
diag: Absolute tolerance                            =  0.100E-15
diag: Orthogonalization factor                      =  0.100E-05
diag: Memory factor                                 =  1.0000


ts: **************************************************************
ts: Save H and S matrices                           =    F
ts: Save DM and EDM matrices                        =    F
ts: Fix Hartree potential                           =    F
ts: Only save the overlap matrix S                  =    F
ts: **************************************************************

************************ Begin: TS CHECKS AND WARNINGS ************************
************************ End: TS CHECKS AND WARNINGS **************************


                     ====================================
                        Single-point calculation
                     ====================================

outcell: Unit cell vectors (Ang):
       12.000000    0.000000    0.000000
        0.000000   12.000000    0.000000
        0.000000    0.000000   12.000000

outcell: Cell vector modules (Ang)   :   12.000000   12.000000   12.000000
outcell: Cell angles (23,13,12) (deg):     90.0000     90.0000     90.0000
outcell: Cell volume (Ang**3)        :   1728.0000
<dSpData1D:S at geom step 0
  <sparsity:sparsity for geom step 0
    nrows_g=30 nrows=16 sparsity=.5333 nnzs=480, refcount: 8>
  <dData1D:(new from dSpData1D) n=480, refcount: 1>
refcount: 1>
new_DM -- step:     1
Initializing Density Matrix...
DM filled with atomic data (user-defined):
<dSpData2D:DM initialized from atoms
  <sparsity:sparsity for geom step 0
    nrows_g=30 nrows=16 sparsity=.5333 nnzs=480, refcount: 9>
  <dData2D:DM n=480 m=8, refcount: 1>
refcount: 1>
     spin moment: S , {S} =    2.00000   0.00000   2.00000   0.00000
New grid distribution:   1
           1       1:   64    1:   64    1:   32
           2       1:   64    1:   64   33:   64

InitMesh: MESH =   128 x   128 x   128 =     2097152
InitMesh: (bp) =    64 x    64 x    64 =      262144
InitMesh: Mesh cutoff (required, used) =   300.000   314.455 Ry
ExtMesh (bp) on 0 =   148 x   148 x   116 =     2540864
New grid distribution:   2
           1       1:   64    1:   64    1:   17
           2       1:   64    1:   64   18:   64
New grid distribution:   3
           1       1:   64    1:   64    1:   19
           2       1:   64    1:   64   20:   64
Setting up quadratic distribution...
ExtMesh (bp) on 0 =   148 x   148 x   101 =     2212304
PhiOnMesh: Number of (b)points on node 0 =                69632
PhiOnMesh: nlist on node 0 =               249585

stepf: Fermi-Dirac step function

siesta: Program's energy decomposition (eV):
siesta: Ebs     =      -166.425036
siesta: Eions   =      1671.574203
siesta: Ena     =        29.270178
siesta: Ekin    =      1014.200936
siesta: Enl     =      -503.487473
siesta: Eso     =        -1.612590
siesta: Eldau   =         0.000000
siesta: DEna    =        18.331138
siesta: DUscf   =         6.874795
siesta: DUext   =         0.000000
siesta: Enegf   =         0.000000
siesta: Exc     =     -1693.304089
siesta: eta*DQ  =         0.000000
siesta: Emadel  =         0.000000
siesta: Emeta   =         0.000000
siesta: Emolmec =         0.000000
siesta: Ekinion =         0.000000
siesta: Eharris =     -2793.813257
siesta: Etot    =     -2801.301309
siesta: FreeEng =     -2801.301313

        iscf     Eharris(eV)        E_KS(eV)     FreeEng(eV)     dDmax    Ef(eV) dHmax(eV)
   scf:    1    -2793.813257    -2801.301309    -2801.301313  0.478802 -3.051996  5.971878
     spin moment: S , {S} =    1.18275   0.00000   1.18275   0.00000
timer: Routine,Calls,Time,% = IterSCF        1       2.096  46.96
   scf:    2    -2801.568525    -2801.436173    -2801.436178  0.012922 -3.095720  5.802027
     spin moment: S , {S} =    1.18360   0.00000   1.18360   0.00000
   scf:    3    -2805.415753    -2804.396266    -2804.413434  0.452957 -4.495774  0.962555
     spin moment: S , {S} =    1.20195  -0.00000   1.20195   0.00000
   scf:    4    -2803.129499    -2803.893349    -2803.895216  0.139319 -4.018372  1.630650
     spin moment: S , {S} =    1.20469   0.00000   1.20469   0.00000
   scf:    5    -2804.225832    -2804.213138    -2804.220249  0.171727 -4.884247  2.009098
     spin moment: S , {S} =    1.19918   0.00000   1.19918   0.00000
   scf:    6    -2804.583865    -2804.463690    -2804.498859  0.054002 -4.290877  0.404431
     spin moment: S , {S} =    1.17323   0.00000   1.17323   0.00000
   scf:    7    -2804.243614    -2804.358389    -2804.373295  0.044122 -4.717650  1.572877
     spin moment: S , {S} =    1.20406   0.00000   1.20406   0.00000
   scf:    8    -2804.114396    -2804.412011    -2804.482265  0.121353 -4.293795  0.685355
     spin moment: S , {S} =    0.96858  -0.00000   0.96858   0.00000
   scf:    9    -2804.280108    -2804.362642    -2804.434001  0.034427 -4.155875  0.418589
     spin moment: S , {S} =    0.88326   0.00000   0.88326   0.00000
   scf:   10    -2804.280209    -2804.329746    -2804.400164  0.015084 -4.105392  0.338072
     spin moment: S , {S} =    0.82628  -0.00000   0.82628   0.00000
   scf:   11    -2804.264538    -2804.300802    -2804.370141  0.010197 -4.079936  0.320179
     spin moment: S , {S} =    0.80130   0.00000   0.80130   0.00000
   scf:   12    -2804.603845    -2804.498489    -2804.560362  0.096150 -4.144257  0.052081
     spin moment: S , {S} =    0.98359   0.00000   0.98359   0.00000
   scf:   13    -2804.505626    -2804.501963    -2804.554067  0.026370 -4.167339  0.074762
     spin moment: S , {S} =    1.02841   0.00000   1.02841   0.00000
   scf:   14    -2804.500072    -2804.503590    -2804.558903  0.007419 -4.159464  0.044485
     spin moment: S , {S} =    1.01447   0.00000   1.01447   0.00000
   scf:   15    -2804.502125    -2804.503142    -2804.557223  0.003134 -4.162978  0.055044
     spin moment: S , {S} =    1.01518   0.00000   1.01518   0.00000
SCF_NOT_CONV: SCF did not converge  in maximum number of steps.
Geom step, scf iteration, dmax:    0    15     0.004046

Using DM_out to compute the final energy and forces

siesta: E_KS(eV) =            -2804.5031

siesta: E_KS - E_eggbox =     -2804.5031
     spin moment: S , {S} =    1.01518   0.00000   1.01518   0.00000

siesta: Atomic forces (eV/Ang):
     1   -0.273615    0.000000    0.000000
     2    0.273615    0.000000    0.000000
----------------------------------------
   Tot    0.000000    0.000000    0.000000
----------------------------------------
   Max    0.273615
   Res    0.157972    sqrt( Sum f_i^2 / 3N )
----------------------------------------
   Max    0.273615    constrained

Stress-tensor-Voigt (kbar):       -0.53        0.02        0.02       -0.00        0.00        0.00
(Free)E + p*V (eV/cell)    -2804.3823
Target enthalpy (eV/cell)    -2804.5572

mulliken: Atomic and Orbital Populations:

Species: Pt_pt2_SOC          

Atom      Orb        Charge      Spin       Svec
----------------------------------------------------------------
    1  1 6s         1.01227   0.01797     -0.000  -0.018   0.000
    1  2 6s         0.14961   0.01267      0.000   0.013  -0.000
    1  3 5dxy       1.60227   0.22370      0.000   0.224   0.000
    1  4 5dyz       1.88017   0.04405      0.000   0.044  -0.000
    1  5 5dz2       1.86352   0.03839     -0.000   0.038   0.000
    1  6 5dxz       1.62351   0.17969     -0.000   0.180   0.000
    1  7 5dx2-y2    1.83588   0.00435     -0.000  -0.004   0.000
    1  8 5dxy       0.00656   0.00439     -0.000   0.004  -0.000
    1  9 5dyz      -0.02887   0.00351     -0.000   0.004   0.000
    1 10 5dz2      -0.01624   0.00204      0.000   0.002   0.000
    1 11 5dxz       0.00597   0.00541      0.000   0.005  -0.000
    1 12 5dx2-y2    0.00792   0.00552      0.000   0.006  -0.000
    1 13 6Ppy       0.03097   0.00659     -0.000   0.007   0.000
    1 14 6Ppz       0.03175   0.00541      0.000   0.005  -0.000
    1 15 6Ppx      -0.00528   0.00148      0.000  -0.001  -0.000
    1     Total    10.00000   0.50759     -0.000   0.508   0.000

    2  1 6s         1.01227   0.01797      0.000  -0.018   0.000
    2  2 6s         0.14961   0.01267     -0.000   0.013  -0.000
    2  3 5dxy       1.60227   0.22370     -0.000   0.224   0.000
    2  4 5dyz       1.88017   0.04405     -0.000   0.044  -0.000
    2  5 5dz2       1.86352   0.03839      0.000   0.038  -0.000
    2  6 5dxz       1.62351   0.17969      0.000   0.180  -0.000
    2  7 5dx2-y2    1.83588   0.00435      0.000  -0.004   0.000
    2  8 5dxy       0.00656   0.00439      0.000   0.004  -0.000
    2  9 5dyz      -0.02887   0.00351      0.000   0.004   0.000
    2 10 5dz2      -0.01624   0.00204     -0.000   0.002   0.000
    2 11 5dxz       0.00597   0.00541     -0.000   0.005   0.000
    2 12 5dx2-y2    0.00792   0.00552     -0.000   0.006  -0.000
    2 13 6Ppy       0.03097   0.00659      0.000   0.007   0.000
    2 14 6Ppz       0.03175   0.00541     -0.000   0.005  -0.000
    2 15 6Ppx      -0.00528   0.00148     -0.000  -0.001  -0.000
    2     Total    10.00000   0.50759      0.000   0.508   0.000

----------------------------------------------------------------
Total              20.00000   1.01518      0.000   1.015   0.000


siesta: Program's energy decomposition (eV):
siesta: Ebs     =      -111.616330
siesta: Eions   =      1671.574203
siesta: Ena     =        29.270178
siesta: Ekin    =      1098.376706
siesta: Enl     =      -555.240396
siesta: Eso     =        -1.662026
siesta: Eldau   =         0.000000
siesta: DEna    =         5.435948
siesta: DUscf   =         1.089056
siesta: DUext   =         0.000000
siesta: Enegf   =         0.000000
siesta: Exc     =     -1710.198404
siesta: eta*DQ  =         0.000000
siesta: Emadel  =         0.000000
siesta: Emeta   =         0.000000
siesta: Emolmec =         0.000000
siesta: Ekinion =         0.000000
siesta: Eharris =     -2804.502125
siesta: Etot    =     -2804.503142
siesta: FreeEng =     -2804.557223

siesta: Final energy (eV):
siesta:  Band Struct. =    -111.616330
siesta:       Kinetic =    1098.376706
siesta:       Hartree =    1318.890729
siesta:       Eldau   =       0.000000
siesta:       Eso     =      -1.662026
siesta:    Ext. field =       0.000000
siesta:       Enegf   =       0.000000
siesta:   Exch.-corr. =   -1710.198404
siesta:  Ion-electron =   -3447.309961
siesta:       Ion-ion =     -62.600185
siesta:       Ekinion =       0.000000
siesta:         Total =   -2804.503142
siesta:         Fermi =      -4.162978

siesta: Atomic forces (eV/Ang):
siesta:      1   -0.273615    0.000000    0.000000
siesta:      2    0.273615    0.000000    0.000000
siesta: ----------------------------------------
siesta:    Tot    0.000000    0.000000    0.000000

siesta: Stress tensor (static) (eV/Ang**3):
siesta:    -0.000332    0.000000    0.000000
siesta:    -0.000000    0.000014   -0.000000
siesta:     0.000000    0.000000    0.000015

siesta: Cell volume =       1728.000000 Ang**3

siesta: Pressure (static):
siesta:                Solid            Molecule  Units
siesta:           0.00000110         -0.00000028  Ry/Bohr**3
siesta:           0.00010125         -0.00002536  eV/Ang**3
siesta:           0.16222158         -0.04063254  kBar
(Free)E+ p_basis*V_orbitals  =       -2802.811132
(Free)Eharris+ p_basis*V_orbitals  =       -2802.810115
     spin moment: S , {S} =    1.01518   0.00000   1.01518   0.00000

siesta: Electric dipole (a.u.)  =    0.000003    0.000000    0.000000
siesta: Electric dipole (Debye) =    0.000008    0.000000    0.000000
>> End of run:   8-JUN-2018  17:11:00
Job completed
