Siesta Version  : siesta-4.0--578
Architecture    : x86_64-linux-n-62-25-35
Compiler version: GNU Fortran (GCC) 7.3.0
Compiler flags  : mpif90 -m64 -fPIC -O3 -march=native -ftree-vectorize -fexpensive-optimizationns -funroll-loops -fprefetch-loop-arrays -fno-second-underscore
PP flags        : -I/zdata/groups/common/nicpa/2018-feb/generic/build-tools/1.0/include -I/zdatta/groups/common/nicpa/2018-feb/generic/gcc/7.3.0/include -I/zdata/groups/common/nicpa/2018-feb/generic/gcc/7.3.0/include -I/zdata/groups/common/nicpa/2018-feb/XeonE5-2660v3/zlib/1.2.11/gnu-7.3.0/include -I/zdata/groups/common/nicpa/2018-feb/generic/numactl/2.0.11/include -I/zdata/groups/common/nicpa/2018-feb/XeonE5-2660v3/libxml2/2.9.7/gnu-7.3.0/include -I/zdata/groups/common/nicpa/2018-feb/XeonE5-2660v3/hwloc/1.11.9/gnu-7.3.0/include -I/zdata/groups/common/nicpa/2018-feb/XeonE5-2660v3/openmpi/3.0.0/gnu-7.3.0/include -I/zdata/groups/common/nicpa/2018-feb/XeonE5-2660v3/szip/2.1.1/gnu-7.3.0/include -I/zdata/groups/common/nicpa/2018-feb/XeonE5-2660v3/hdf5-serial/1.8.18/gnu-7.3.0/include -I/zdata/groups/common/nicpa/2018-feb/XeonE5-2660v3/netcdf-serial/4.6.0/gnu-7.3.0/include -I/zdata/groups/common/nicpa/2018-feb/XeonE5-2660v3/scalapack/204/gnu-7.3.0/include -I/zdata/groups/common/nicpa/2018-feb/XeonE5-2660v3/openblas/0.2.20/gnu-7.3.0/include -I/zdata/groups/common/nicpa/2018-feb/XeonE5-2660v3/elpa/2017.05.003/gnu-7.3.0/include -DSIESTA__ELPA -DMPI -D1 -DFC_HAVE_ABORT -DCDF -DSIESTA__MRRR 
PARALLEL version
NetCDF support

* Running on    8 nodes in parallel
>> Start of run:  10-JUN-2018  22:01:53

                           ***********************       
                           *  WELCOME TO SIESTA  *       
                           ***********************       

reinit: Reading from standard input
************************** Dump of input data file ****************************
SystemName		Si(100)-2x1 3 layers (H-saturated)
SystemLabel		si001-ldos
%block LocalDensityOfStates
 -4.2  -5.2   eV
%endblock LocalDensityOfStates
	
NumberOfAtoms		10
NumberOfSpecies	2
%block ChemicalSpeciesLabel
	1	14	Si
	2	1	H
%endblock ChemicalSpeciesLabel
PAO.BasisType		split
PAO.BasisSize		DZP
PAO.EnergyShift	200 meV
PAO.SplitNorm		0.30
LatticeConstant	3.8184 Ang	# a_s = a_0 / sqrt(2) , a_0 = 5.40 Ang
%block LatticeParameters
	1.	2.	3.	90.	90.	90.
%endblock LatticeParameters
AtomicCoordinatesFormat	ScaledCartesian
%block AtomicCoordinatesAndAtomicSpecies
   -0.00002372    0.29326368    0.19010387   1  Si        1
    0.00001337    0.85385554    0.02205212   1  Si        2
    0.49997747   -0.00525118    0.33008893   1  Si        3
    0.50001096    0.97940531    0.34402895   1  Si        4
    0.50000000    0.50000000    0.70710000   1  Si        5
    0.50000000    1.50000000    0.70710000   1  Si        6
    0.20200000    0.50000000    0.95470000   2  H         7
    0.79800000    0.50000000    0.95470000   2  H         8
    0.20200000    1.50000000    0.95470000   2  H         9
    0.79800000    1.50000000    0.95470000   2  H        10
%endblock AtomicCoordinatesAndAtomicSpecies
kgrid_cutoff		8.0 Ang
XC.functional		LDA
XC.authors		PZ
MeshCutoff		100. Ry
DM.MixingWeight	0.1
DM.NumberPulay	3
SolutionMethod	diagon
MD.TypeOfRun		CG
MD.NumCGsteps		0
MD.MaxCGDispl		0.02 Ang
MD.MaxForceTol	0.02 eV/Ang
WriteCoorStep		.true.
WriteForces		.true.
WriteMullikenPop	1
WriteCoorXmol		.true.
WriteMDXmol		.true.
WriteMDhistory	.true.
DM.UseSaveDM		.true.
MD.UseSaveXV		.true.
MD.UseSaveCG		.true.
SaveRho		.true.
SaveDeltaRho		.true.
SaveElectrostaticPotential	.true.
SaveTotalPotential	.true.
************************** End of input data file *****************************

reinit: -----------------------------------------------------------------------
reinit: System Name: Si(100)-2x1 3 layers (H-saturated
reinit: -----------------------------------------------------------------------
reinit: System Label: si001-ldos                                                  
reinit: -----------------------------------------------------------------------

initatom: Reading input for the pseudopotentials and atomic orbitals ----------
 Species number:            1  Label: Si Atomic number:          14
 Species number:            2  Label: H Atomic number:           1
Ground state valence configuration:   3s02  3p02
Reading pseudopotential information in formatted form from Si.psf

Valence configuration for pseudopotential generation:
3s( 2.00) rc: 1.89
3p( 2.00) rc: 1.89
3d( 0.00) rc: 1.89
4f( 0.00) rc: 1.89
Ground state valence configuration:   1s01
Reading pseudopotential information in formatted form from H.psf

Valence configuration for pseudopotential generation:
1s( 1.00) rc: 1.25
2p( 0.00) rc: 1.25
3d( 0.00) rc: 1.25
4f( 0.00) rc: 1.25
For Si, standard SIESTA heuristics set lmxkb to 3
 (one more than the basis l, including polarization orbitals).
Use PS.lmax or PS.KBprojectors blocks to override.
For H, standard SIESTA heuristics set lmxkb to 2
 (one more than the basis l, including polarization orbitals).
Use PS.lmax or PS.KBprojectors blocks to override.

<basis_specs>
===============================================================================
Si                   Z=  14    Mass=  28.090        Charge= 0.17977+309
Lmxo=1 Lmxkb= 3    BasisType=split      Semic=F
L=0  Nsemic=0  Cnfigmx=3
          n=1  nzeta=2  polorb=0
            splnorm:   0.30000    
               vcte:    0.0000    
               rinn:    0.0000    
               qcoe:    0.0000    
               qyuk:    0.0000    
               qwid:   0.10000E-01
                rcs:    0.0000      0.0000    
            lambdas:    1.0000      1.0000    
L=1  Nsemic=0  Cnfigmx=3
          n=1  nzeta=2  polorb=1
            splnorm:   0.30000    
               vcte:    0.0000    
               rinn:    0.0000    
               qcoe:    0.0000    
               qyuk:    0.0000    
               qwid:   0.10000E-01
                rcs:    0.0000      0.0000    
            lambdas:    1.0000      1.0000    
-------------------------------------------------------------------------------
L=0  Nkbl=1  erefs: 0.17977+309
L=1  Nkbl=1  erefs: 0.17977+309
L=2  Nkbl=1  erefs: 0.17977+309
L=3  Nkbl=1  erefs: 0.17977+309
===============================================================================
</basis_specs>

atom: Called for Si                    (Z =  14)

read_vps: Pseudopotential generation method:
read_vps: ATM3      Troullier-Martins                       
Total valence charge:    4.00000

xc_check: Exchange-correlation functional:
xc_check: Ceperley-Alder
V l=0 = -2*Zval/r beyond r=  2.5494
V l=1 = -2*Zval/r beyond r=  2.5494
V l=2 = -2*Zval/r beyond r=  2.5494
V l=3 = -2*Zval/r beyond r=  2.5494
All V_l potentials equal beyond r=  1.8652
This should be close to max(r_c) in ps generation
All pots = -2*Zval/r beyond r=  2.5494
Using large-core scheme for Vlocal

atom: Estimated core radius    2.54944

atom: Including non-local core corrections could be a good idea
atom: Maximum radius for 4*pi*r*r*local-pseudopot. charge    2.85303
atom: Maximum radius for r*vlocal+2*Zval:    2.58151
GHOST: No ghost state for L =  0
GHOST: No ghost state for L =  1
GHOST: No ghost state for L =  2
GHOST: No ghost state for L =  3

KBgen: Kleinman-Bylander projectors: 
   l= 0   rc=  1.936440   el= -0.796617   Ekb=  4.661340   kbcos=  0.299756
   l= 1   rc=  1.936440   el= -0.307040   Ekb=  1.494238   kbcos=  0.301471
   l= 2   rc=  1.936440   el=  0.002313   Ekb= -2.808672   kbcos= -0.054903
   l= 3   rc=  1.936440   el=  0.003402   Ekb= -0.959059   kbcos= -0.005513

KBgen: Total number of  Kleinman-Bylander projectors:   16
atom: -------------------------------------------------------------------------

atom: SANKEY-TYPE ORBITALS:
atom: Selected multiple-zeta basis: split     

SPLIT: Orbitals with angular momentum L= 0

SPLIT: Basis orbitals for state 3s

SPLIT: PAO cut-off radius determined from an
SPLIT: energy shift=  0.014700 Ry

   izeta = 1
                 lambda =    1.000000
                     rc =    5.264094
                 energy =   -0.784048
                kinetic =    0.554443
    potential(screened) =   -1.338491
       potential(ionic) =   -3.803943

   izeta = 2
                 rmatch =    3.899691
              splitnorm =    0.300000
                 energy =   -0.557333
                kinetic =    1.099884
    potential(screened) =   -1.657217
       potential(ionic) =   -4.272900

SPLIT: Orbitals with angular momentum L= 1

SPLIT: Basis orbitals for state 3p

SPLIT: PAO cut-off radius determined from an
SPLIT: energy shift=  0.014700 Ry

   izeta = 1
                 lambda =    1.000000
                     rc =    6.429618
                 energy =   -0.291747
                kinetic =    0.864936
    potential(screened) =   -1.156682
       potential(ionic) =   -3.408656

   izeta = 2
                 rmatch =    4.309843
              splitnorm =    0.300000
                 energy =   -0.094863
                kinetic =    1.512251
    potential(screened) =   -1.607114
       potential(ionic) =   -4.136814

POLgen: Perturbative polarization orbital with L=  2

POLgen: Polarization orbital for state 3p

   izeta = 1
                     rc =    6.429618
                 energy =    0.416453
                kinetic =    1.265989
    potential(screened) =   -0.849535
       potential(ionic) =   -2.900468
atom: Total number of Sankey-type orbitals: 13

atm_pop: Valence configuration (for local Pseudopot. screening):
 3s( 2.00)                                                            
 3p( 2.00)                                                            
Vna: chval, zval:    4.00000   4.00000

Vna:  Cut-off radius for the neutral-atom potential:   6.429618

atom: _________________________________________________________________________

<basis_specs>
===============================================================================
H                    Z=   1    Mass=  1.0100        Charge= 0.17977+309
Lmxo=0 Lmxkb= 2    BasisType=split      Semic=F
L=0  Nsemic=0  Cnfigmx=1
          n=1  nzeta=2  polorb=1
            splnorm:   0.30000    
               vcte:    0.0000    
               rinn:    0.0000    
               qcoe:    0.0000    
               qyuk:    0.0000    
               qwid:   0.10000E-01
                rcs:    0.0000      0.0000    
            lambdas:    1.0000      1.0000    
-------------------------------------------------------------------------------
L=0  Nkbl=1  erefs: 0.17977+309
L=1  Nkbl=1  erefs: 0.17977+309
L=2  Nkbl=1  erefs: 0.17977+309
===============================================================================
</basis_specs>

atom: Called for H                     (Z =   1)

read_vps: Pseudopotential generation method:
read_vps: ATM3      Troullier-Martins                       
Total valence charge:    1.00000

xc_check: Exchange-correlation functional:
xc_check: Ceperley-Alder
V l=0 = -2*Zval/r beyond r=  1.2343
V l=1 = -2*Zval/r beyond r=  1.2189
V l=2 = -2*Zval/r beyond r=  1.2189
All V_l potentials equal beyond r=  1.2343
This should be close to max(r_c) in ps generation
All pots = -2*Zval/r beyond r=  1.2343

VLOCAL1: 99.0% of the norm of Vloc inside     28.493 Ry
VLOCAL1: 99.9% of the norm of Vloc inside     64.935 Ry
atom: Maximum radius for 4*pi*r*r*local-pseudopot. charge    1.45251
atom: Maximum radius for r*vlocal+2*Zval:    1.21892
GHOST: No ghost state for L =  0
GHOST: No ghost state for L =  1
GHOST: No ghost state for L =  2

KBgen: Kleinman-Bylander projectors: 
   l= 0   rc=  1.364359   el= -0.467325   Ekb= -2.005361   kbcos= -0.336422
   l= 1   rc=  1.434438   el=  0.001430   Ekb= -0.501708   kbcos= -0.021697
   l= 2   rc=  1.470814   el=  0.002365   Ekb= -0.190555   kbcos= -0.002281

KBgen: Total number of  Kleinman-Bylander projectors:    9
atom: -------------------------------------------------------------------------

atom: SANKEY-TYPE ORBITALS:
atom: Selected multiple-zeta basis: split     

SPLIT: Orbitals with angular momentum L= 0

SPLIT: Basis orbitals for state 1s

SPLIT: PAO cut-off radius determined from an
SPLIT: energy shift=  0.014700 Ry

   izeta = 1
                 lambda =    1.000000
                     rc =    5.075940
                 energy =   -0.454238
                kinetic =    0.905976
    potential(screened) =   -1.360214
       potential(ionic) =   -1.894198

   izeta = 2
                 rmatch =    3.195439
              splitnorm =    0.300000
                 energy =   -0.202816
                kinetic =    1.888421
    potential(screened) =   -2.091238
       potential(ionic) =   -2.676134

POLgen: Perturbative polarization orbital with L=  1

POLgen: Polarization orbital for state 1s

   izeta = 1
                     rc =    5.075940
                 energy =    0.658058
                kinetic =    1.324347
    potential(screened) =   -0.666290
       potential(ionic) =   -1.141575
atom: Total number of Sankey-type orbitals:  5

atm_pop: Valence configuration (for local Pseudopot. screening):
 1s( 1.00)                                                            
Vna: chval, zval:    1.00000   1.00000

Vna:  Cut-off radius for the neutral-atom potential:   5.075940

atom: _________________________________________________________________________

prinput: Basis input ----------------------------------------------------------

PAO.BasisType split     

%block ChemicalSpeciesLabel
    1   14 Si                      # Species index, atomic number, species label
    2    1 H                       # Species index, atomic number, species label
%endblock ChemicalSpeciesLabel

%block PAO.Basis                 # Define Basis set
Si                    2                    # Species label, number of l-shells
 n=3   0   2                         # n, l, Nzeta 
   5.264      3.900   
   1.000      1.000   
 n=3   1   2 P   1                   # n, l, Nzeta, Polarization, NzetaPol
   6.430      4.310   
   1.000      1.000   
H                     1                    # Species label, number of l-shells
 n=1   0   2 P   1                   # n, l, Nzeta, Polarization, NzetaPol
   5.076      3.195   
   1.000      1.000   
%endblock PAO.Basis

prinput: ----------------------------------------------------------------------

Dumping basis to NetCDF file Si.ion.nc
Dumping basis to NetCDF file H.ion.nc
coor:   Atomic-coordinates input format  =     Cartesian coordinates
coor:                                          (in units of alat)

siesta: WARNING: XV file not found

siesta: Atomic coordinates (Bohr) and species
siesta:     -0.00017   2.11611   1.37174  1        1
siesta:      0.00010   6.16119   0.15912  1        2
siesta:      3.60770  -0.03789   2.38183  1        3
siesta:      3.60795   7.06713   2.48242  1        4
siesta:      3.60787   3.60787   5.10224  1        5
siesta:      3.60787  10.82360   5.10224  1        6
siesta:      1.45758   3.60787   6.88886  2        7
siesta:      5.75816   3.60787   6.88886  2        8
siesta:      1.45758  10.82360   6.88886  2        9
siesta:      5.75816  10.82360   6.88886  2       10

siesta: System type = slab      

initatomlists: Number of atoms, orbitals, and projectors:     10    98   132

coxmol: Writing XMOL coordinates into file si001-ldos.xyz                                                  

siesta: ******************** Simulation parameters ****************************
siesta:
siesta: The following are some of the parameters of the simulation.
siesta: A complete list of the parameters used, including default values,
siesta: can be found in file out.fdf
siesta:
redata: Non-Collinear-spin run           =     F
redata: SpinPolarized (Up/Down) run      =     F
redata: Number of spin components        =     1
redata: Long output                      =     F
redata: Number of Atomic Species         =        2
redata: Charge density info will appear in .RHO file
redata: Write Mulliken Pop.              =     Atomic and Orbital charges
redata: Matel table size (NRTAB)         =     1024
redata: Mesh Cutoff                      =   100.0000 Ry
redata: Net charge of the system         =     0.0000 |e|
redata: Min. number of SCF Iter          =        0
redata: Max. number of SCF Iter          =       50
redata: Mix DM or H after convergence    =     F
redata: Recompute H after scf cycle      =     F
redata: Performing Pulay mixing using    =     3 iterations
redata: Mix DM in first SCF step ?       =     F
redata: Write Pulay info on disk?        =     F
redata: Discard 1st Pulay DM after  kick =     F
redata: New DM Mixing Weight             =     0.1000
redata: New DM Occupancy tolerance       = 0.000000000001
redata: No kicks to SCF
redata: DM Mixing Weight for Kicks       =     0.5000
redata: DM Tolerance for SCF             =     0.000100
redata: Require (free) Energy convergence in SCF =     F
redata: DM (free)Energy tolerance for SCF =     0.000010 eV
redata: Require Harris convergence for SCF =     F
redata: DM Harris energy tolerance for SCF =     0.000010 eV
redata: Using Saved Data (generic)   =     F
redata: Use continuation files for DM    =     T
redata: Neglect nonoverlap interactions  =     F
redata: Method of Calculation            =     Diagonalization
redata: Divide and Conquer               =     T
redata: Electronic Temperature           =     0.0019  Ry
redata: Fix the spin of the system       =     F
redata: Dynamics option                  =     Single-point calculation
redata: ***********************************************************************
Total number of electrons:    28.000000
Total ionic charge:    28.000000

* ProcessorY, Blocksize:    2  13


* Orbital distribution balance (max,min):    13     7

 Kpoints in:           15 . Kpoints trimmed:           15

siesta: k-grid: Number of k-points =    15
siesta: k-grid: Cutoff (effective) =     9.546 Ang
siesta: k-grid: Supercell and displacements
siesta: k-grid:    5   0   0      0.000
siesta: k-grid:    0   3   0      0.000
siesta: k-grid:    0   0   2      0.500
Naive supercell factors:     5    3    2

superc: Internal auxiliary supercell:     5 x     3 x     2  =      30
superc: Number of atoms, orbitals, and projectors:    300   2940   3960

                     ====================================
                        Single-point calculation
                     ====================================

outcoor: Atomic coordinates (scaled):                       
   -0.00002372    0.29326368    0.19010387   1       1  Si
    0.00001337    0.85385554    0.02205212   1       2  Si
    0.49997747   -0.00525118    0.33008893   1       3  Si
    0.50001096    0.97940531    0.34402895   1       4  Si
    0.50000000    0.50000000    0.70710000   1       5  Si
    0.50000000    1.50000000    0.70710000   1       6  Si
    0.20200000    0.50000000    0.95470000   2       7  H
    0.79800000    0.50000000    0.95470000   2       8  H
    0.20200000    1.50000000    0.95470000   2       9  H
    0.79800000    1.50000000    0.95470000   2      10  H

superc: Internal auxiliary supercell:     5 x     3 x     2  =      30
superc: Number of atoms, orbitals, and projectors:    300   2940   3960

outcell: Unit cell vectors (Ang):
        3.818400    0.000000    0.000000
        0.000000    7.636800    0.000000
        0.000000    0.000000   11.455200

outcell: Cell vector modules (Ang)   :    3.818400    7.636800   11.455200
outcell: Cell angles (23,13,12) (deg):     90.0000     90.0000     90.0000
outcell: Cell volume (Ang**3)        :    334.0377
New_DM. Step:     1
Initializing Density Matrix...
New grid distribution:   1
           1       1:   12    1:   12    1:    9
           2       1:   12    1:   12   10:   18
           3       1:   12    1:   12   19:   27
           4       1:   12    1:   12   28:   36
           5       1:   12   13:   24    1:    9
           6       1:   12   13:   24   10:   18
           7       1:   12   13:   24   19:   27
           8       1:   12   13:   24   28:   36

InitMesh: MESH =    24 x    48 x    72 =       82944
InitMesh: (bp) =    12 x    24 x    36 =       10368
InitMesh: Mesh cutoff (required, used) =   100.000   109.185 Ry
ExtMesh (bp) on 0 =    56 x    56 x    53 =      166208
New grid distribution:   2
           1       1:   12   11:   24    8:   11
           2       1:   12   11:   24    5:    7
           3       1:   12    1:   10   12:   36
           4       1:   12    1:   10    8:   11
           5       1:   12   11:   24    1:    4
           6       1:   12    1:   10    1:    4
           7       1:   12   11:   24   12:   36
           8       1:   12    1:   10    5:    7
New grid distribution:   3
           1       1:   12   13:   24    1:    7
           2       1:   12    1:   12    8:   14
           3       1:   12    1:   12   15:   29
           4       1:   12    1:   12   30:   36
           5       1:   12    1:   12    1:    7
           6       1:   12   13:   24    8:   14
           7       1:   12   13:   24   15:   29
           8       1:   12   13:   24   30:   36
Setting up quadratic distribution...
ExtMesh (bp) on 0 =    56 x    58 x    48 =      155904
PhiOnMesh: Number of (b)points on node 0 =                  672
PhiOnMesh: nlist on node 0 =                47284

stepf: Fermi-Dirac step function

siesta: Program's energy decomposition (eV):
siesta: Ebs     =      -285.614915
siesta: Eions   =      1221.235657
siesta: Ena     =       369.291243
siesta: Ekin    =       281.018022
siesta: Enl     =        93.471978
siesta: DEna    =         0.000002
siesta: DUscf   =         0.000000
siesta: DUext   =         0.000000
siesta: Exc     =      -224.568507
siesta: eta*DQ  =         0.000000
siesta: Emadel  =         0.000000
siesta: Emeta   =         0.000000
siesta: Emolmec =         0.000000
siesta: Ekinion =         0.000000
siesta: Eharris =      -705.280668
siesta: Etot    =      -702.022919
siesta: FreeEng =      -702.022919

   scf: iscf   Eharris(eV)      E_KS(eV)   FreeEng(eV)    dDmax  Ef(eV)
   scf:    1     -705.2807     -702.0229     -702.0229  1.75495 -4.4986
timer: Routine,Calls,Time,% =    IterSCF     1       0.295  12.51
   scf:    2     -707.8350     -702.4591     -702.4690  0.31108 -4.1316
   scf:    3     -704.3296     -702.8519     -702.8761  0.19008 -4.3116
   scf:    4     -704.0011     -702.9912     -702.9927  0.07196 -4.2395
   scf:    5     -703.9431     -703.0789     -703.0801  0.06531 -4.2071
   scf:    6     -703.8608     -703.3876     -703.3880  0.03405 -4.1324
   scf:    7     -703.8541     -703.6607     -703.6609  0.00975 -4.1598
   scf:    8     -703.8526     -703.7086     -703.7088  0.00475 -4.1701
   scf:    9     -703.8503     -703.7621     -703.7624  0.00694 -4.1868
   scf:   10     -703.8501     -703.7731     -703.7734  0.00582 -4.1906
   scf:   11     -703.8500     -703.7908     -703.7910  0.00310 -4.1943
   scf:   12     -703.8500     -703.8000     -703.8002  0.00166 -4.1926
   scf:   13     -703.8500     -703.8092     -703.8095  0.00132 -4.1909
   scf:   14     -703.8500     -703.8263     -703.8265  0.00078 -4.1899
   scf:   15     -703.8500     -703.8324     -703.8326  0.00075 -4.1909
   scf:   16     -703.8500     -703.8382     -703.8385  0.00069 -4.1935
   scf:   17     -703.8500     -703.8395     -703.8397  0.00060 -4.1940
   scf:   18     -703.8500     -703.8413     -703.8415  0.00039 -4.1941
   scf:   19     -703.8500     -703.8423     -703.8425  0.00028 -4.1937
   scf:   20     -703.8500     -703.8438     -703.8440  0.00019 -4.1933
   scf:   21     -703.8500     -703.8456     -703.8459  0.00015 -4.1933
   scf:   22     -703.8500     -703.8467     -703.8469  0.00013 -4.1934
   scf:   23     -703.8500     -703.8480     -703.8482  0.00012 -4.1938
   scf:   24     -703.8500     -703.8484     -703.8486  0.00009 -4.1939

SCF Convergence by dMax criterion
max |DM_out - DM_in|:     0.00009379
SCF cycle converged after   24 iterations

Using DM_out to compute the final energy and forces

siesta: E_KS(eV) =             -703.8500

siesta: E_KS - E_eggbox =      -703.8500

siesta: Atomic forces (eV/Ang):
     1   -0.000199   -0.419123   -0.153324
     2   -0.000163    0.403635   -0.810476
     3    0.000074   -0.071402    0.342900
     4   -0.000113    0.427778    0.620586
     5   -0.000043    0.254882    0.546359
     6   -0.000029   -0.498158   -1.020525
     7   -0.378501   -0.155991    0.271469
     8    0.378514   -0.156034    0.271452
     9   -0.285650    0.093819   -0.019798
    10    0.285660    0.093913   -0.019812
----------------------------------------
   Tot   -0.000450   -0.026681    0.028832
----------------------------------------
   Max    1.020525
   Res    0.366382    sqrt( Sum f_i^2 / 3N )
----------------------------------------
   Max    1.020525    constrained

Stress-tensor-Voigt (kbar):      -48.26       11.30       -7.31       -0.00        4.13        0.00
(Free)E + p*V (eV/cell)     -700.7733
Target enthalpy (eV/cell)     -703.8502

mulliken: Atomic and Orbital Populations:

Species: Si                  
Atom  Qatom  Qorb
               3s      3s      3py     3pz     3px     3py     3pz     3px     
               3Pdxy   3Pdyz   3Pdz2   3Pdxz   3Pdx2-y2
   1  3.892   0.796   0.387   0.497   0.555   0.517   0.289   0.103   0.230
              0.168   0.077   0.051   0.112   0.109
   2  4.261   0.891   0.323   0.780   0.984   0.743   0.063   0.036   0.123
              0.058   0.044   0.042   0.076   0.098
   3  3.982   0.762   0.352   0.574   0.690   0.575   0.210   0.173   0.228
              0.109   0.095   0.047   0.053   0.114
   4  3.845   0.723   0.366   0.552   0.531   0.491   0.217   0.241   0.267
              0.069   0.098   0.067   0.112   0.110
   5  3.815   0.616   0.403   0.638   0.568   0.388   0.140   0.215   0.324
              0.043   0.082   0.046   0.240   0.111
   6  3.826   0.640   0.379   0.719   0.636   0.555   0.124   0.181   0.248
              0.033   0.085   0.035   0.109   0.081

Species: H                   
Atom  Qatom  Qorb
               1s      1s      1Ppy    1Ppz    1Ppx    
   7  1.106   0.671   0.350   0.014   0.017   0.053
   8  1.106   0.671   0.350   0.014   0.017   0.053
   9  1.083   0.612   0.386   0.015   0.018   0.053
  10  1.083   0.612   0.386   0.015   0.018   0.053

mulliken: Qtot =       28.000

coxmol: Writing XMOL coordinates into file si001-ldos.xyz                                                  

siesta: Program's energy decomposition (eV):
siesta: Ebs     =      -269.132387
siesta: Eions   =      1221.235657
siesta: Ena     =       369.291243
siesta: Ekin    =       305.015416
siesta: Enl     =        70.361270
siesta: DEna    =         1.134245
siesta: DUscf   =         2.170711
siesta: DUext   =         0.000000
siesta: Exc     =      -230.587197
siesta: eta*DQ  =         0.000000
siesta: Emadel  =         0.000000
siesta: Emeta   =         0.000000
siesta: Emolmec =         0.000000
siesta: Ekinion =         0.000000
siesta: Eharris =      -703.849970
siesta: Etot    =      -703.849970
siesta: FreeEng =      -703.850197

siesta: Final energy (eV):
siesta:  Band Struct. =    -269.132387
siesta:       Kinetic =     305.015416
siesta:       Hartree =     896.225711
siesta:    Ext. field =       0.000000
siesta:   Exch.-corr. =    -230.587197
siesta:  Ion-electron =   -2065.863942
siesta:       Ion-ion =     391.360043
siesta:       Ekinion =       0.000000
siesta:         Total =    -703.849970

siesta: Atomic forces (eV/Ang):
siesta:      1   -0.000199   -0.419123   -0.153324
siesta:      2   -0.000163    0.403635   -0.810476
siesta:      3    0.000074   -0.071402    0.342900
siesta:      4   -0.000113    0.427778    0.620586
siesta:      5   -0.000043    0.254882    0.546359
siesta:      6   -0.000029   -0.498158   -1.020525
siesta:      7   -0.378501   -0.155991    0.271469
siesta:      8    0.378514   -0.156034    0.271452
siesta:      9   -0.285650    0.093819   -0.019798
siesta:     10    0.285660    0.093913   -0.019812
siesta: ----------------------------------------
siesta:    Tot   -0.000450   -0.026681    0.028832

siesta: Stress tensor (static) (eV/Ang**3):
siesta:    -0.030121   -0.000002    0.000000
siesta:    -0.000002    0.007051    0.002577
siesta:     0.000000    0.002577   -0.004563

siesta: Cell volume =        334.037723 Ang**3

siesta: Pressure (static):
siesta:                Solid            Molecule  Units
siesta:           0.00010032          0.00005999  Ry/Bohr**3
siesta:           0.00921109          0.00550834  eV/Ang**3
siesta:          14.75794992          8.82542600  kBar
(Free)E+ p_basis*V_orbitals  =        -699.140965
(Free)Eharris+ p_basis*V_orbitals  =        -699.140966

siesta: Electric dipole (a.u.)  =    0.000000   -0.000000    0.067975
siesta: Electric dipole (Debye) =    0.000000   -0.000000    0.172775

dhscf: Vacuum level (max, mean) =    0.049294   -0.148583 eV
>> End of run:  10-JUN-2018  22:02:03
Job completed
