Siesta Version  : siesta-4.0--578
Architecture    : x86_64-linux-n-62-25-35
Compiler version: GNU Fortran (GCC) 7.3.0
Compiler flags  : mpif90 -m64 -fPIC -O3 -march=native -ftree-vectorize -fexpensive-optimizationns -funroll-loops -fprefetch-loop-arrays -fno-second-underscore
PP flags        : -I/zdata/groups/common/nicpa/2018-feb/generic/build-tools/1.0/include -I/zdatta/groups/common/nicpa/2018-feb/generic/gcc/7.3.0/include -I/zdata/groups/common/nicpa/2018-feb/generic/gcc/7.3.0/include -I/zdata/groups/common/nicpa/2018-feb/XeonE5-2660v3/zlib/1.2.11/gnu-7.3.0/include -I/zdata/groups/common/nicpa/2018-feb/generic/numactl/2.0.11/include -I/zdata/groups/common/nicpa/2018-feb/XeonE5-2660v3/libxml2/2.9.7/gnu-7.3.0/include -I/zdata/groups/common/nicpa/2018-feb/XeonE5-2660v3/hwloc/1.11.9/gnu-7.3.0/include -I/zdata/groups/common/nicpa/2018-feb/XeonE5-2660v3/openmpi/3.0.0/gnu-7.3.0/include -I/zdata/groups/common/nicpa/2018-feb/XeonE5-2660v3/szip/2.1.1/gnu-7.3.0/include -I/zdata/groups/common/nicpa/2018-feb/XeonE5-2660v3/hdf5-serial/1.8.18/gnu-7.3.0/include -I/zdata/groups/common/nicpa/2018-feb/XeonE5-2660v3/netcdf-serial/4.6.0/gnu-7.3.0/include -I/zdata/groups/common/nicpa/2018-feb/XeonE5-2660v3/scalapack/204/gnu-7.3.0/include -I/zdata/groups/common/nicpa/2018-feb/XeonE5-2660v3/openblas/0.2.20/gnu-7.3.0/include -I/zdata/groups/common/nicpa/2018-feb/XeonE5-2660v3/elpa/2017.05.003/gnu-7.3.0/include -DSIESTA__ELPA -DMPI -D1 -DFC_HAVE_ABORT -DCDF -DSIESTA__MRRR 
PARALLEL version
NetCDF support

* Running on    8 nodes in parallel
>> Start of run:  10-JUN-2018  22:01:48

                           ***********************       
                           *  WELCOME TO SIESTA  *       
                           ***********************       

reinit: Reading from standard input
************************** Dump of input data file ****************************
# Si(100) - asymmetric 2x1 reconstruction
# Oscar Paz
##### GENERAL SYSTEM DESCRIPTORS ###############################################
SystemName		Si(100)-2x1 3 layers (H-saturated)
 # Default value: blank
SystemLabel		si001
 # Default value: siesta
NumberOfAtoms		10
NumberOfSpecies	2
%block ChemicalSpeciesLabel
	1	14	Si
	2	1	H
%endblock ChemicalSpeciesLabel
#%block PhononLabels
#%endblock PhononLabels
#%block AtomicMass
#%endblock AtomicMass
 # Default: (Block absent or empty) Natural masses assumed
 #  For ghost atoms (floating orbitals), a default of 1.d30 a.u. is assigned
#NetCharge
# Default value: 0.0
##### BASIS DEFINITION #########################################################
PAO.BasisType		split
 # Default value: split
 #  * split: Split-valence scheme for multiple-zeta
 #  * splitgauss: Same as split but using gaussian functions
 #  * nodes: Generalized PAO's
 #  * nonodes: The original PAO's are used
PAO.BasisSize		DZP
 # Default value: STANDARD
 #  * SZ or MINIMAL: minimal or single-zeta basis
 #  * DZ: Double zeta basis, in the scheme defined by PAO.BasisType
 #  * SZP: Single-zeta basis plus polarization orbitals
 #  * DZP or STANDARD: Like DZ plus polarization orbitals
#%block PAO.BasisSizes
#%endblock PAO.BasisSizes
PAO.EnergyShift	200 meV
 # Default value: 0.02 Ry
PAO.SplitNorm		0.30
 # Default value: 0.15
#%block PS.lmax
#%endblock PS.lmax
 # Default: (Block absent or empty). Maximum angular momentum of the basis
 #  orbitals plus one
#%block PS.KBprojectors
#%endblock PS.KBprojectors
 # Default: (Block absent or empty). Only one KB projector, constructed from
 #  the nodeless eigenfunction, used for each angular momentum
#%block PAO.Basis
#%endblock PAO.Basis
 # Define Basis set
 #  Label, l_shells, type (opt), ionic_charge (opt)
 #  n (opt if not using semicore levels), l, Nzeta
 #      rc(izeta=1,Nzeta)(Bohr)
 #      scaleFactor(izeta=1,Nzeta) (opt)
 #  l, Nzeta, PolOrb (opt), NzetaPol (opt)
 #      rc(izeta=1,Nzeta)(Bohr)
##### LATTICE, COORDINATES, k-SAMPLING #########################################
LatticeConstant	3.8184 Ang	# a_s = a_0 / sqrt(2) , a_0 = 5.40 Ang
 # Default value: Minimum size to include the system without intercell
 #  interactions, plus 10%
%block LatticeParameters
	1.	2.	3.	90.	90.	90.
%endblock LatticeParameters
 # Default value: 1.0  1.0  1.0  90.  90.  90.
#%block LatticeVectors
#%endblock LatticeVectors
 # Default value:
 #  1.0  0.0  0.0
 #  0.0  1.0  0.0
 #  0.0  0.0  1.0
AtomicCoordinatesFormat	ScaledCartesian
 # Default value: NotScaledCartesianBohr
 #  * Bohr or NotScaledCartesianBohr
 #  * Ang or NotScaledCartesianAng
 #  * ScaledCartesian
 #  * Fractional or ScaledByLatticeVectors
#AtomCoorFormatOut
 # Default value: value of AtomicCoordinatesFormat
#AtomicCoordinatesOrigin
 # Default value: 0.000  0.000  0.000
#AtomicCoordinatesAndAtomicSpecies	< ?.fdf
%block AtomicCoordinatesAndAtomicSpecies
   -0.00002372    0.29326368    0.19010387   1  Si        1
    0.00001337    0.85385554    0.02205212   1  Si        2
    0.49997747   -0.00525118    0.33008893   1  Si        3
    0.50001096    0.97940531    0.34402895   1  Si        4
    0.50000000    0.50000000    0.70710000   1  Si        5
    0.50000000    1.50000000    0.70710000   1  Si        6
    0.20200000    0.50000000    0.95470000   2  H         7
    0.79800000    0.50000000    0.95470000   2  H         8
    0.20200000    1.50000000    0.95470000   2  H         9
    0.79800000    1.50000000    0.95470000   2  H        10
%endblock AtomicCoordinatesAndAtomicSpecies
#%block SuperCell
#%endblock SuperCell
%block GeometryConstraints
	position from 5 to 10
%endblock GeometryConstraints
 # Default value: No constraints
kgrid_cutoff		5.0 Ang
 # Default value: 0.0 Bohr
#%block kgrid_Monkhorst_Pack
#%endblock kgrid_Monkhorst_Pack
 # Default value: Gamma point
#BandLinesScale
 # Default value: pi/a
#%block BandLines
#%endblock BandLines
 # Default value: No band energies calculated
##### DFT, GRID, SCF ###########################################################
#Harris_functional	.true.
 # Default value: .false.
XC.functional		LDA
 # Default value: LDA
 #  * LDA
 #  * GGA
XC.authors		PZ
 # Default value: PZ
 #  * CA equivalent to PZ. Local density approx.
 #  * PW92. Local density approximation.
 #  * PBE. Generalized gradients approximation.
#SpinPolarized		.true.
 # Default value: .false.
#NonCollinearSpin	.true.
 # Default value: .false.
#FixSpin		.true.
 # Default value: .false.
#TotalSpin
 # Default value: 0.0
MeshCutoff		10. Ry
 # Default value: 50 Ry
#MaxSCFIterations	200
 # Default value: 50
DM.MixingWeight	0.1
 # Default value: 0.25
DM.NumberPulay	3
 # Default value: 0
#DM.PulayOnFile	.true.
 # Default value: .false.
#DM.NumberKick
 # Default value: 0
#DM.KickMixingWeight
 # Default value: 0.50
#DM.MixSCF1		.true.
 # Default value: .false.
#DM.Tolerance		1.0d-6
 # Default value: 10**-4
#DM.InitSpinAF		.true.
 # Default value: .false.
#%block DM.InitSpin
#%endblock DM.InitSpin
 # Atom index, spin, theta, phi (deg)
#NeglNonOverlapInt	.true.
 # Default value: .false.
#%block ExternalElectricField
#%endblock ExternalElectricField
#%block PolarizationGrids
#%endblock PolarizationGrids
#%block GridCellSampling
#%endblock GridCellSampling
##### EIGENVALUE PROBLEM: DIAGONALIZATION OR ORDER-N ###########################
SolutionMethod	diagon
 # Default value: diagon for 100 atoms or less,
 #  Order-N for more than 100 atoms
#ElectronicTemperature	5 meV
 # Default value: 300 K
#ON.functional
 # Default value: Kim
 #  * Kim
 #  * Ordejon-Mauri
 #  * files
#ON.MaxNumIter
 # Default value: 1000
#ON.etol
 # Default value: 10**-8
#ON.eta
 # Default value: 0.0 eV
#ON.RcLWF
 # Default value: 9.5 Bohr
#ON.ChemicalPotential	.true.
 # Default value: .false.
#ON.ChemicalPotentialUse	.true.
 # Default value: .false.
#ON.ChemicalPotentialRc
 # Default value: 9.5 Bohr
#ON.ChemicalPotentialTemperature
 # Default value: 0.05 Ry
#ON.ChemicalPotentialOrder
 # Default value: 100
##### MOLECULAR DYNAMICS AND RELAXATIONS #######################################
MD.TypeOfRun		CG
 # Default value: Verlet (CG for one atom systems)
 #  * CG
 #  * Verlet
 #  * Nose
 #  * ParrinelloRahman
 #  * NoseParrinelloRahman
 #  * Anneal
 #  * FC
 #  * Phonon
#MD.VariableCell	.true.
 # Default value: .false.
MD.NumCGsteps		0
 # Default value: 0
MD.MaxCGDispl		0.02 Ang
 # Default value: 0.2 Bohr
#MD.PreconditionVariableCell	
 # Default value: 5.0 Ang
MD.MaxForceTol	0.02 eV/Ang
 # Default value: 0.04 eV/Ang
#MD.MaxStressTol
 # Default value: 1.0 GPa
#MD.InitialTimeStep
 # Default value: 1
#MD.FinalTimeStep
 # Default value: 1
#MD.LengthTimeStep
 # Default value: 1.0 fs
#MD.InitialTemperature
 # Default value: 0.0 K
#MD.Quench		.true.
 # Default value: .false.
#MD.TargetTemperature
 # Default value: 0.0 K
#MD.TargetPressure
 # Default value: 0.0 GPa
#%block MD.TargetStress
#%endblock MD.TargetStress
 # Default value: Hydrostatic target pressure:
 #  -1., -1., -1., 0., 0., 0.
#MD.NoseMass
 # Default value: 100.0 Ry*fs**2
#MD.ParrinelloRahmanMass
 # Default value: 100.0 Ry*fs**2
#MD.AnnealOption
 # Default value: TemperatureAndPressure
 #  * Temperature
 #  * Pressure
 #  * TemperatureandPressure
#MD.TauRelax
 # Default value: 100.0 fs
#MD.BulkModulus
 # Default value: 100.0 Ry/Bohr**3
#MD.FCDispl
 # Default value: 0.04 Bohr
#MD.FCfirst
 # Default value: 1
#MD.FClast
 # Default value: Same as NumberOfAtoms
#%block MD.ATforPhonon
#%endblock MD.ATforPhonon
##### PARALLEL OPTIONS #########################################################
##### EFFICIENCY OPTIONS #######################################################
#DirectPhi		.true.
 # Default value: .false.
#SaveMemory		.true.
 # Default value: .false.
##### OUTPUT OPTIONS ###########################################################
#LongOutput		.true.
 # Default value: .false.
 #  * WriteCoorStep:  .true.
 #  * WriteForces: .true.
 #  * WriteKpoints: .true.
 #  * WriteEigenvalues: .true.
 #  * WriteKbands: .true.
 #  * WriteBands: .true.
 #  * WriteMullikenPop 1
#WriteCoorInitial	.false.
 # Default value: .true.
WriteCoorStep		.true.
 # Default value: .false.
WriteForces		.true.
 # Default value: .false.
#WriteKpoints		.true.
 # Default value: .false.
#WriteEigenvalues	.true.
 # Default value: .false.
#WriteDM		.false.
 # Default value: .true.
#WriteKbands		.true.
 # Default value: .false.
#WriteBands		.true.
 # Default value: .false.
WriteMullikenPop	1
 # Default value: 0
 #  * 0 = None
 #  * 1 = atomic and orbital charges
 #  * 2 = 1 + atomic overlap pop
 #  * 3 = 2 + orbital overlap pop
WriteCoorXmol		.true.
 # Default value: .false.
#WriteCoorCerius	.true.
 # Default value: .false.
WriteMDXmol		.true.
 # Default value: .false. if WriteCoorStep is .true. and vice-versa
WriteMDhistory	.true.
 # Default value: .false.
#WarningMinimumAtomicDistance
 # Default value: 1.0 Bohr
#AllocReportLevel	2
# Default value: 0
#  * level 0 : no report at all (the default)
#  * level 1 : only total memory peak and where it occurred
#  * level 2 : detailed report printed only at normal program termination
#  * level 3 : detailed report printed at every new memory peak
#  * level 4 : print every individual (re)allocation or deallocation
##### OPTIONS FOR SAVING/READING INFORMATION ###################################
#UseSaveData		.true.
 # Default value: .false.
DM.UseSaveDM		.true.
 # Default value: .false.
#ON.UseSaveLWF		.true.
 # Default value: .false.
MD.UseSaveXV		.true.
 # Default value: .false.
MD.UseSaveCG		.true.
 # Default value: .false.
#SaveHS			.true.
 # Default value: .false.
SaveRho		.true.
 # Default value: .false.
SaveDeltaRho		.true.
 # Default value: .false.
SaveElectrostaticPotential	.true.
 # Default value: .false.
SaveTotalPotential	.true.
 # Default value: .false.
#%block LocalDensityOfStates
#%endblock LocalDensityOfStates
 # Default value: LDOS not calculated nor written.
#%block ProjectedDensityOfStates
#%endblock ProjectedDensityOfStates
 # Default value: PDOS not calculated nor written.
##### USER-PROVIDED BASIS ORBITALS #############################################
#User.Basis
#User.Basis.NetCDF
************************** End of input data file *****************************

reinit: -----------------------------------------------------------------------
reinit: System Name: Si(100)-2x1 3 layers (H-saturated
reinit: -----------------------------------------------------------------------
reinit: System Label: si001                                                       
reinit: -----------------------------------------------------------------------

initatom: Reading input for the pseudopotentials and atomic orbitals ----------
 Species number:            1  Label: Si Atomic number:          14
 Species number:            2  Label: H Atomic number:           1
Ground state valence configuration:   3s02  3p02
Reading pseudopotential information in formatted form from Si.psf

Valence configuration for pseudopotential generation:
3s( 2.00) rc: 1.89
3p( 2.00) rc: 1.89
3d( 0.00) rc: 1.89
4f( 0.00) rc: 1.89
Ground state valence configuration:   1s01
Reading pseudopotential information in formatted form from H.psf

Valence configuration for pseudopotential generation:
1s( 1.00) rc: 1.25
2p( 0.00) rc: 1.25
3d( 0.00) rc: 1.25
4f( 0.00) rc: 1.25
For Si, standard SIESTA heuristics set lmxkb to 3
 (one more than the basis l, including polarization orbitals).
Use PS.lmax or PS.KBprojectors blocks to override.
For H, standard SIESTA heuristics set lmxkb to 2
 (one more than the basis l, including polarization orbitals).
Use PS.lmax or PS.KBprojectors blocks to override.

<basis_specs>
===============================================================================
Si                   Z=  14    Mass=  28.090        Charge= 0.17977+309
Lmxo=1 Lmxkb= 3    BasisType=split      Semic=F
L=0  Nsemic=0  Cnfigmx=3
          n=1  nzeta=2  polorb=0
            splnorm:   0.30000    
               vcte:    0.0000    
               rinn:    0.0000    
               qcoe:    0.0000    
               qyuk:    0.0000    
               qwid:   0.10000E-01
                rcs:    0.0000      0.0000    
            lambdas:    1.0000      1.0000    
L=1  Nsemic=0  Cnfigmx=3
          n=1  nzeta=2  polorb=1
            splnorm:   0.30000    
               vcte:    0.0000    
               rinn:    0.0000    
               qcoe:    0.0000    
               qyuk:    0.0000    
               qwid:   0.10000E-01
                rcs:    0.0000      0.0000    
            lambdas:    1.0000      1.0000    
-------------------------------------------------------------------------------
L=0  Nkbl=1  erefs: 0.17977+309
L=1  Nkbl=1  erefs: 0.17977+309
L=2  Nkbl=1  erefs: 0.17977+309
L=3  Nkbl=1  erefs: 0.17977+309
===============================================================================
</basis_specs>

atom: Called for Si                    (Z =  14)

read_vps: Pseudopotential generation method:
read_vps: ATM3      Troullier-Martins                       
Total valence charge:    4.00000

xc_check: Exchange-correlation functional:
xc_check: Ceperley-Alder
V l=0 = -2*Zval/r beyond r=  2.5494
V l=1 = -2*Zval/r beyond r=  2.5494
V l=2 = -2*Zval/r beyond r=  2.5494
V l=3 = -2*Zval/r beyond r=  2.5494
All V_l potentials equal beyond r=  1.8652
This should be close to max(r_c) in ps generation
All pots = -2*Zval/r beyond r=  2.5494
Using large-core scheme for Vlocal

atom: Estimated core radius    2.54944

atom: Including non-local core corrections could be a good idea
atom: Maximum radius for 4*pi*r*r*local-pseudopot. charge    2.85303
atom: Maximum radius for r*vlocal+2*Zval:    2.58151
GHOST: No ghost state for L =  0
GHOST: No ghost state for L =  1
GHOST: No ghost state for L =  2
GHOST: No ghost state for L =  3

KBgen: Kleinman-Bylander projectors: 
   l= 0   rc=  1.936440   el= -0.796617   Ekb=  4.661340   kbcos=  0.299756
   l= 1   rc=  1.936440   el= -0.307040   Ekb=  1.494238   kbcos=  0.301471
   l= 2   rc=  1.936440   el=  0.002313   Ekb= -2.808672   kbcos= -0.054903
   l= 3   rc=  1.936440   el=  0.003402   Ekb= -0.959059   kbcos= -0.005513

KBgen: Total number of  Kleinman-Bylander projectors:   16
atom: -------------------------------------------------------------------------

atom: SANKEY-TYPE ORBITALS:
atom: Selected multiple-zeta basis: split     

SPLIT: Orbitals with angular momentum L= 0

SPLIT: Basis orbitals for state 3s

SPLIT: PAO cut-off radius determined from an
SPLIT: energy shift=  0.014700 Ry

   izeta = 1
                 lambda =    1.000000
                     rc =    5.264094
                 energy =   -0.784048
                kinetic =    0.554443
    potential(screened) =   -1.338491
       potential(ionic) =   -3.803943

   izeta = 2
                 rmatch =    3.899691
              splitnorm =    0.300000
                 energy =   -0.557333
                kinetic =    1.099884
    potential(screened) =   -1.657217
       potential(ionic) =   -4.272900

SPLIT: Orbitals with angular momentum L= 1

SPLIT: Basis orbitals for state 3p

SPLIT: PAO cut-off radius determined from an
SPLIT: energy shift=  0.014700 Ry

   izeta = 1
                 lambda =    1.000000
                     rc =    6.429618
                 energy =   -0.291747
                kinetic =    0.864936
    potential(screened) =   -1.156682
       potential(ionic) =   -3.408656

   izeta = 2
                 rmatch =    4.309843
              splitnorm =    0.300000
                 energy =   -0.094863
                kinetic =    1.512251
    potential(screened) =   -1.607114
       potential(ionic) =   -4.136814

POLgen: Perturbative polarization orbital with L=  2

POLgen: Polarization orbital for state 3p

   izeta = 1
                     rc =    6.429618
                 energy =    0.416453
                kinetic =    1.265989
    potential(screened) =   -0.849535
       potential(ionic) =   -2.900468
atom: Total number of Sankey-type orbitals: 13

atm_pop: Valence configuration (for local Pseudopot. screening):
 3s( 2.00)                                                            
 3p( 2.00)                                                            
Vna: chval, zval:    4.00000   4.00000

Vna:  Cut-off radius for the neutral-atom potential:   6.429618

atom: _________________________________________________________________________

<basis_specs>
===============================================================================
H                    Z=   1    Mass=  1.0100        Charge= 0.17977+309
Lmxo=0 Lmxkb= 2    BasisType=split      Semic=F
L=0  Nsemic=0  Cnfigmx=1
          n=1  nzeta=2  polorb=1
            splnorm:   0.30000    
               vcte:    0.0000    
               rinn:    0.0000    
               qcoe:    0.0000    
               qyuk:    0.0000    
               qwid:   0.10000E-01
                rcs:    0.0000      0.0000    
            lambdas:    1.0000      1.0000    
-------------------------------------------------------------------------------
L=0  Nkbl=1  erefs: 0.17977+309
L=1  Nkbl=1  erefs: 0.17977+309
L=2  Nkbl=1  erefs: 0.17977+309
===============================================================================
</basis_specs>

atom: Called for H                     (Z =   1)

read_vps: Pseudopotential generation method:
read_vps: ATM3      Troullier-Martins                       
Total valence charge:    1.00000

xc_check: Exchange-correlation functional:
xc_check: Ceperley-Alder
V l=0 = -2*Zval/r beyond r=  1.2343
V l=1 = -2*Zval/r beyond r=  1.2189
V l=2 = -2*Zval/r beyond r=  1.2189
All V_l potentials equal beyond r=  1.2343
This should be close to max(r_c) in ps generation
All pots = -2*Zval/r beyond r=  1.2343

VLOCAL1: 99.0% of the norm of Vloc inside     28.493 Ry
VLOCAL1: 99.9% of the norm of Vloc inside     64.935 Ry
atom: Maximum radius for 4*pi*r*r*local-pseudopot. charge    1.45251
atom: Maximum radius for r*vlocal+2*Zval:    1.21892
GHOST: No ghost state for L =  0
GHOST: No ghost state for L =  1
GHOST: No ghost state for L =  2

KBgen: Kleinman-Bylander projectors: 
   l= 0   rc=  1.364359   el= -0.467325   Ekb= -2.005361   kbcos= -0.336422
   l= 1   rc=  1.434438   el=  0.001430   Ekb= -0.501708   kbcos= -0.021697
   l= 2   rc=  1.470814   el=  0.002365   Ekb= -0.190555   kbcos= -0.002281

KBgen: Total number of  Kleinman-Bylander projectors:    9
atom: -------------------------------------------------------------------------

atom: SANKEY-TYPE ORBITALS:
atom: Selected multiple-zeta basis: split     

SPLIT: Orbitals with angular momentum L= 0

SPLIT: Basis orbitals for state 1s

SPLIT: PAO cut-off radius determined from an
SPLIT: energy shift=  0.014700 Ry

   izeta = 1
                 lambda =    1.000000
                     rc =    5.075940
                 energy =   -0.454238
                kinetic =    0.905976
    potential(screened) =   -1.360214
       potential(ionic) =   -1.894198

   izeta = 2
                 rmatch =    3.195439
              splitnorm =    0.300000
                 energy =   -0.202816
                kinetic =    1.888421
    potential(screened) =   -2.091238
       potential(ionic) =   -2.676134

POLgen: Perturbative polarization orbital with L=  1

POLgen: Polarization orbital for state 1s

   izeta = 1
                     rc =    5.075940
                 energy =    0.658058
                kinetic =    1.324347
    potential(screened) =   -0.666290
       potential(ionic) =   -1.141575
atom: Total number of Sankey-type orbitals:  5

atm_pop: Valence configuration (for local Pseudopot. screening):
 1s( 1.00)                                                            
Vna: chval, zval:    1.00000   1.00000

Vna:  Cut-off radius for the neutral-atom potential:   5.075940

atom: _________________________________________________________________________

prinput: Basis input ----------------------------------------------------------

PAO.BasisType split     

%block ChemicalSpeciesLabel
    1   14 Si                      # Species index, atomic number, species label
    2    1 H                       # Species index, atomic number, species label
%endblock ChemicalSpeciesLabel

%block PAO.Basis                 # Define Basis set
Si                    2                    # Species label, number of l-shells
 n=3   0   2                         # n, l, Nzeta 
   5.264      3.900   
   1.000      1.000   
 n=3   1   2 P   1                   # n, l, Nzeta, Polarization, NzetaPol
   6.430      4.310   
   1.000      1.000   
H                     1                    # Species label, number of l-shells
 n=1   0   2 P   1                   # n, l, Nzeta, Polarization, NzetaPol
   5.076      3.195   
   1.000      1.000   
%endblock PAO.Basis

prinput: ----------------------------------------------------------------------

Dumping basis to NetCDF file Si.ion.nc
Dumping basis to NetCDF file H.ion.nc
coor:   Atomic-coordinates input format  =     Cartesian coordinates
coor:                                          (in units of alat)

siesta: WARNING: XV file not found

siesta: Atomic coordinates (Bohr) and species
siesta:     -0.00017   2.11611   1.37174  1        1
siesta:      0.00010   6.16119   0.15912  1        2
siesta:      3.60770  -0.03789   2.38183  1        3
siesta:      3.60795   7.06713   2.48242  1        4
siesta:      3.60787   3.60787   5.10224  1        5
siesta:      3.60787  10.82360   5.10224  1        6
siesta:      1.45758   3.60787   6.88886  2        7
siesta:      5.75816   3.60787   6.88886  2        8
siesta:      1.45758  10.82360   6.88886  2        9
siesta:      5.75816  10.82360   6.88886  2       10

siesta: System type = slab      

initatomlists: Number of atoms, orbitals, and projectors:     10    98   132

coxmol: Writing XMOL coordinates into file si001.xyz                                                       

siesta: ******************** Simulation parameters ****************************
siesta:
siesta: The following are some of the parameters of the simulation.
siesta: A complete list of the parameters used, including default values,
siesta: can be found in file out.fdf
siesta:
redata: Non-Collinear-spin run           =     F
redata: SpinPolarized (Up/Down) run      =     F
redata: Number of spin components        =     1
redata: Long output                      =     F
redata: Number of Atomic Species         =        2
redata: Charge density info will appear in .RHO file
redata: Write Mulliken Pop.              =     Atomic and Orbital charges
redata: Matel table size (NRTAB)         =     1024
redata: Mesh Cutoff                      =    10.0000 Ry
redata: Net charge of the system         =     0.0000 |e|
redata: Min. number of SCF Iter          =        0
redata: Max. number of SCF Iter          =       50
redata: Mix DM or H after convergence    =     F
redata: Recompute H after scf cycle      =     F
redata: Performing Pulay mixing using    =     3 iterations
redata: Mix DM in first SCF step ?       =     F
redata: Write Pulay info on disk?        =     F
redata: Discard 1st Pulay DM after  kick =     F
redata: New DM Mixing Weight             =     0.1000
redata: New DM Occupancy tolerance       = 0.000000000001
redata: No kicks to SCF
redata: DM Mixing Weight for Kicks       =     0.5000
redata: DM Tolerance for SCF             =     0.000100
redata: Require (free) Energy convergence in SCF =     F
redata: DM (free)Energy tolerance for SCF =     0.000010 eV
redata: Require Harris convergence for SCF =     F
redata: DM Harris energy tolerance for SCF =     0.000010 eV
redata: Using Saved Data (generic)   =     F
redata: Use continuation files for DM    =     T
redata: Neglect nonoverlap interactions  =     F
redata: Method of Calculation            =     Diagonalization
redata: Divide and Conquer               =     T
redata: Electronic Temperature           =     0.0019  Ry
redata: Fix the spin of the system       =     F
redata: Dynamics option                  =     Single-point calculation
redata: ***********************************************************************
Total number of electrons:    28.000000
Total ionic charge:    28.000000

* ProcessorY, Blocksize:    2  13


* Orbital distribution balance (max,min):    13     7

 Kpoints in:            3 . Kpoints trimmed:            3

siesta: k-grid: Number of k-points =     3
siesta: k-grid: Cutoff (effective) =     5.728 Ang
siesta: k-grid: Supercell and displacements
siesta: k-grid:    3   0   0      0.000
siesta: k-grid:    0   2   0      0.500
siesta: k-grid:    0   0   1      0.000
Naive supercell factors:     5    3    2

superc: Internal auxiliary supercell:     5 x     3 x     2  =      30
superc: Number of atoms, orbitals, and projectors:    300   2940   3960

                     ====================================
                        Single-point calculation
                     ====================================

outcoor: Atomic coordinates (scaled):                       
   -0.00002372    0.29326368    0.19010387   1       1  Si
    0.00001337    0.85385554    0.02205212   1       2  Si
    0.49997747   -0.00525118    0.33008893   1       3  Si
    0.50001096    0.97940531    0.34402895   1       4  Si
    0.50000000    0.50000000    0.70710000   1       5  Si
    0.50000000    1.50000000    0.70710000   1       6  Si
    0.20200000    0.50000000    0.95470000   2       7  H
    0.79800000    0.50000000    0.95470000   2       8  H
    0.20200000    1.50000000    0.95470000   2       9  H
    0.79800000    1.50000000    0.95470000   2      10  H

superc: Internal auxiliary supercell:     5 x     3 x     2  =      30
superc: Number of atoms, orbitals, and projectors:    300   2940   3960

outcell: Unit cell vectors (Ang):
        3.818400    0.000000    0.000000
        0.000000    7.636800    0.000000
        0.000000    0.000000   11.455200

outcell: Cell vector modules (Ang)   :    3.818400    7.636800   11.455200
outcell: Cell angles (23,13,12) (deg):     90.0000     90.0000     90.0000
outcell: Cell volume (Ang**3)        :    334.0377
New_DM. Step:     1
Initializing Density Matrix...
New grid distribution:   1
           1       1:    4    1:    4    1:    3
           2       1:    4    1:    4    4:    6
           3       1:    4    1:    4    7:    9
           4       1:    4    1:    4   10:   12
           5       1:    4    5:    8    1:    3
           6       1:    4    5:    8    4:    6
           7       1:    4    5:    8    7:    9
           8       1:    4    5:    8   10:   12

InitMesh: MESH =     8 x    16 x    24 =        3072
InitMesh: (bp) =     4 x     8 x    12 =         384
InitMesh: Mesh cutoff (required, used) =    10.000    12.132 Ry
ExtMesh (bp) on 0 =    20 x    20 x    19 =        7600
New grid distribution:   2
           1       1:    4    1:    3    1:    2
           2       1:    4    4:    8    3:    3
           3       1:    4    1:    3    5:   12
           4       1:    4    1:    3    4:    4
           5       1:    4    4:    8    1:    2
           6       1:    4    4:    8    4:    4
           7       1:    4    4:    8    5:   12
           8       1:    4    1:    3    3:    3
New grid distribution:   3
           1       1:    4    1:    4    1:    3
           2       1:    4    1:    4    4:    5
           3       1:    4    1:    4    6:    9
           4       1:    4    1:    4   10:   12
           5       1:    4    5:    8    1:    3
           6       1:    4    5:    8    4:    5
           7       1:    4    5:    8    6:    9
           8       1:    4    5:    8   10:   12
Setting up quadratic distribution...
ExtMesh (bp) on 0 =    20 x    19 x    18 =        6840
PhiOnMesh: Number of (b)points on node 0 =                   24
PhiOnMesh: nlist on node 0 =                 2168

stepf: Fermi-Dirac step function

siesta: Program's energy decomposition (eV):
siesta: Ebs     =      -285.675117
siesta: Eions   =      1221.235657
siesta: Ena     =       369.291243
siesta: Ekin    =       281.018022
siesta: Enl     =        93.471978
siesta: DEna    =         0.000002
siesta: DUscf   =         0.000000
siesta: DUext   =         0.000000
siesta: Exc     =      -224.373704
siesta: eta*DQ  =         0.000000
siesta: Emadel  =         0.000000
siesta: Emeta   =         0.000000
siesta: Emolmec =         0.000000
siesta: Ekinion =         0.000000
siesta: Eharris =      -705.215505
siesta: Etot    =      -701.828116
siesta: FreeEng =      -701.828116

   scf: iscf   Eharris(eV)      E_KS(eV)   FreeEng(eV)    dDmax  Ef(eV)
   scf:    1     -705.2155     -701.8281     -701.8281  1.77256 -4.5496
timer: Routine,Calls,Time,% =    IterSCF     1       0.078   3.86
   scf:    2     -707.4467     -702.4156     -702.4395  0.30287 -4.3365
   scf:    3     -704.2656     -702.7587     -702.7587  0.18265 -4.4163
   scf:    4     -704.0299     -702.8815     -702.8815  0.07769 -4.3172
   scf:    5     -703.8695     -703.0431     -703.0431  0.07473 -4.2275
   scf:    6     -703.8060     -703.3374     -703.3374  0.02686 -4.1778
   scf:    7     -703.8026     -703.4401     -703.4401  0.01683 -4.1813
   scf:    8     -703.7931     -703.5786     -703.5786  0.02157 -4.2197
   scf:    9     -703.7920     -703.6119     -703.6119  0.01939 -4.2278
   scf:   10     -703.7925     -703.6778     -703.6778  0.01021 -4.2401
   scf:   11     -703.7923     -703.7008     -703.7008  0.00672 -4.2381
   scf:   12     -703.7918     -703.7153     -703.7153  0.00594 -4.2331
   scf:   13     -703.7917     -703.7263     -703.7263  0.00362 -4.2282
   scf:   14     -703.7917     -703.7367     -703.7367  0.00284 -4.2282
   scf:   15     -703.7915     -703.7530     -703.7530  0.00286 -4.2333
   scf:   16     -703.7915     -703.7598     -703.7598  0.00268 -4.2358
   scf:   17     -703.7915     -703.7719     -703.7719  0.00161 -4.2393
   scf:   18     -703.7915     -703.7765     -703.7765  0.00100 -4.2388
   scf:   19     -703.7915     -703.7806     -703.7806  0.00070 -4.2368
   scf:   20     -703.7915     -703.7820     -703.7820  0.00054 -4.2356
   scf:   21     -703.7915     -703.7834     -703.7834  0.00044 -4.2355
   scf:   22     -703.7915     -703.7848     -703.7848  0.00041 -4.2366
   scf:   23     -703.7915     -703.7859     -703.7859  0.00039 -4.2372
   scf:   24     -703.7915     -703.7879     -703.7879  0.00025 -4.2377
   scf:   25     -703.7915     -703.7887     -703.7887  0.00019 -4.2375
   scf:   26     -703.7915     -703.7897     -703.7897  0.00010 -4.2370

SCF Convergence by dMax criterion
max |DM_out - DM_in|:     0.00009790
SCF cycle converged after   26 iterations

Using DM_out to compute the final energy and forces

siesta: E_KS(eV) =             -703.7915

siesta: E_KS - E_eggbox =      -703.7915

siesta: Atomic forces (eV/Ang):
     1   -0.000510    0.004328   -0.004132
     2    0.000227   -0.031329    0.008504
     3   -0.000530   -0.008207    0.007477
     4    0.000229    0.000954    0.005660
     5   -0.000062    0.067046    0.371104
     6   -0.000024   -0.371398   -0.938673
     7    2.228258   -0.102812    0.972617
     8   -2.228235   -0.102843    0.972573
     9    2.317050    0.075746    0.675736
    10   -2.317038    0.075827    0.675712
----------------------------------------
   Tot   -0.000635   -0.392687    2.746578
----------------------------------------
   Max    2.317050
   Res    0.906785    sqrt( Sum f_i^2 / 3N )
----------------------------------------
   Max    0.031329    constrained

Stress-tensor-Voigt (kbar):      -63.28       -2.71       17.81        0.00        2.89        0.00
(Free)E + p*V (eV/cell)     -700.4432
Target enthalpy (eV/cell)     -703.7915

mulliken: Atomic and Orbital Populations:

Species: Si                  
Atom  Qatom  Qorb
               3s      3s      3py     3pz     3px     3py     3pz     3px     
               3Pdxy   3Pdyz   3Pdz2   3Pdxz   3Pdx2-y2
   1  3.924   0.821   0.374   0.552   0.568   0.519   0.262   0.099   0.221
              0.166   0.079   0.049   0.105   0.109
   2  4.252   0.902   0.330   0.797   0.981   0.731   0.058   0.028   0.120
              0.057   0.044   0.035   0.072   0.095
   3  3.978   0.756   0.362   0.585   0.751   0.559   0.187   0.147   0.226
              0.106   0.090   0.049   0.050   0.110
   4  3.860   0.750   0.362   0.542   0.616   0.492   0.201   0.203   0.260
              0.067   0.092   0.058   0.109   0.107
   5  3.861   0.624   0.412   0.623   0.546   0.571   0.120   0.229   0.225
              0.044   0.076   0.038   0.228   0.125
   6  3.868   0.632   0.389   0.700   0.642   0.693   0.112   0.179   0.179
              0.036   0.080   0.029   0.109   0.088

Species: H                   
Atom  Qatom  Qorb
               1s      1s      1Ppy    1Ppz    1Ppx    
   7  1.076   0.540   0.418   0.012   0.016   0.090
   8  1.076   0.540   0.418   0.012   0.016   0.090
   9  1.053   0.489   0.447   0.013   0.015   0.089
  10  1.053   0.489   0.447   0.013   0.015   0.089

mulliken: Qtot =       28.000

coxmol: Writing XMOL coordinates into file si001.xyz                                                       

siesta: Program's energy decomposition (eV):
siesta: Ebs     =      -268.365217
siesta: Eions   =      1221.235657
siesta: Ena     =       369.291243
siesta: Ekin    =       305.183078
siesta: Enl     =        70.736135
siesta: DEna    =         0.689389
siesta: DUscf   =         2.236607
siesta: DUext   =         0.000000
siesta: Exc     =      -230.692289
siesta: eta*DQ  =         0.000000
siesta: Emadel  =         0.000000
siesta: Emeta   =         0.000000
siesta: Emolmec =         0.000000
siesta: Ekinion =         0.000000
siesta: Eharris =      -703.791495
siesta: Etot    =      -703.791495
siesta: FreeEng =      -703.791495

siesta: Final energy (eV):
siesta:  Band Struct. =    -268.365217
siesta:       Kinetic =     305.183078
siesta:       Hartree =     896.004539
siesta:    Ext. field =       0.000000
siesta:   Exch.-corr. =    -230.692289
siesta:  Ion-electron =   -2064.713759
siesta:       Ion-ion =     390.426937
siesta:       Ekinion =       0.000000
siesta:         Total =    -703.791495

siesta: Atomic forces (eV/Ang):
siesta:      1   -0.000510    0.004328   -0.004132
siesta:      2    0.000227   -0.031329    0.008504
siesta:      3   -0.000530   -0.008207    0.007477
siesta:      4    0.000229    0.000954    0.005660
siesta:      5   -0.000062    0.067046    0.371104
siesta:      6   -0.000024   -0.371398   -0.938673
siesta:      7    2.228258   -0.102812    0.972617
siesta:      8   -2.228235   -0.102843    0.972573
siesta:      9    2.317050    0.075746    0.675736
siesta:     10   -2.317038    0.075827    0.675712
siesta: ----------------------------------------
siesta:    Tot   -0.000635   -0.392687    2.746578

siesta: Constrained forces (eV/Ang):
siesta:      1   -0.000510    0.004328   -0.004132
siesta:      2    0.000227   -0.031329    0.008504
siesta:      3   -0.000530   -0.008207    0.007477
siesta:      4    0.000229    0.000954    0.005660
siesta:      5    0.000000    0.000000    0.000000
siesta:      6    0.000000    0.000000    0.000000
siesta:      7    0.000000    0.000000    0.000000
siesta:      8    0.000000    0.000000    0.000000
siesta:      9    0.000000    0.000000    0.000000
siesta:     10    0.000000    0.000000    0.000000
siesta: ----------------------------------------
siesta:  Tot   -0.000583   -0.034253    0.017508

siesta: Stress tensor (static) (eV/Ang**3):
siesta:    -0.039496    0.000001    0.000000
siesta:     0.000001   -0.001693    0.001807
siesta:     0.000000    0.001807    0.011118

siesta: Cell volume =        334.037723 Ang**3

siesta: Pressure (static):
siesta:                Solid            Molecule  Units
siesta:           0.00010917          0.00018157  Ry/Bohr**3
siesta:           0.01002371          0.01667073  eV/Ang**3
siesta:          16.05992368         26.70973702  kBar
(Free)E+ p_basis*V_orbitals  =        -699.082263
(Free)Eharris+ p_basis*V_orbitals  =        -699.082264

siesta: Electric dipole (a.u.)  =   -0.000000    0.000000   -0.020010
siesta: Electric dipole (Debye) =   -0.000000    0.000000   -0.050860

dhscf: Vacuum level (max, mean) =   -0.031388   -0.167593 eV
>> End of run:  10-JUN-2018  22:01:52
Job completed
