Siesta Version  : siesta-4.0--578
Architecture    : x86_64-linux-n-62-25-35
Compiler version: GNU Fortran (GCC) 7.3.0
Compiler flags  : mpif90 -m64 -fPIC -O3 -march=native -ftree-vectorize -fexpensive-optimizationns -funroll-loops -fprefetch-loop-arrays -fno-second-underscore
PP flags        : -I/zdata/groups/common/nicpa/2018-feb/generic/build-tools/1.0/include -I/zdatta/groups/common/nicpa/2018-feb/generic/gcc/7.3.0/include -I/zdata/groups/common/nicpa/2018-feb/generic/gcc/7.3.0/include -I/zdata/groups/common/nicpa/2018-feb/XeonE5-2660v3/zlib/1.2.11/gnu-7.3.0/include -I/zdata/groups/common/nicpa/2018-feb/generic/numactl/2.0.11/include -I/zdata/groups/common/nicpa/2018-feb/XeonE5-2660v3/libxml2/2.9.7/gnu-7.3.0/include -I/zdata/groups/common/nicpa/2018-feb/XeonE5-2660v3/hwloc/1.11.9/gnu-7.3.0/include -I/zdata/groups/common/nicpa/2018-feb/XeonE5-2660v3/openmpi/3.0.0/gnu-7.3.0/include -I/zdata/groups/common/nicpa/2018-feb/XeonE5-2660v3/szip/2.1.1/gnu-7.3.0/include -I/zdata/groups/common/nicpa/2018-feb/XeonE5-2660v3/hdf5-serial/1.8.18/gnu-7.3.0/include -I/zdata/groups/common/nicpa/2018-feb/XeonE5-2660v3/netcdf-serial/4.6.0/gnu-7.3.0/include -I/zdata/groups/common/nicpa/2018-feb/XeonE5-2660v3/scalapack/204/gnu-7.3.0/include -I/zdata/groups/common/nicpa/2018-feb/XeonE5-2660v3/openblas/0.2.20/gnu-7.3.0/include -I/zdata/groups/common/nicpa/2018-feb/XeonE5-2660v3/elpa/2017.05.003/gnu-7.3.0/include -DSIESTA__ELPA -DMPI -D1 -DFC_HAVE_ABORT -DCDF -DSIESTA__MRRR 
PARALLEL version
NetCDF support

* Running on    8 nodes in parallel
>> Start of run:  10-JUN-2018  22:02:03

                           ***********************       
                           *  WELCOME TO SIESTA  *       
                           ***********************       

reinit: Reading from standard input
************************** Dump of input data file ****************************
# Superficie Si(100)-2x1
# Oscar Paz, Enero 2002
##### GENERAL SYSTEM DESCRIPTORS ###############################################
SystemName		si2x1.gga.vpsgga.sp.9l.sym.af-f
 # Default value: blank
SystemLabel		si111-spinpol
 # Default value: siesta
NumberOfAtoms		22
NumberOfSpecies	2
%block ChemicalSpeciesLabel
	1	14	Si
	2	1	H
%endblock ChemicalSpeciesLabel
#%block PhononLabels
#%endblock PhononLabels
#%block AtomicMass
#%endblock AtomicMass
 # Default: (Block absent or empty) Natural masses assumed
 #  For ghost atoms (floating orbitals), a default of 1.d30 a.u. is assigned
#NetCharge
# Default value: 0.0
##### BASIS DEFINITION #########################################################
PAO.BasisType		split
 # Default value: split
 #  * split: Split-valence scheme for multiple-zeta
 #  * splitgauss: Same as split but using gaussian functions
 #  * nodes: Generalized PAO's
 #  * nonodes: The original PAO's are used
PAO.BasisSize		SZP
 # Default value: STANDARD
 #  * SZ or MINIMAL: minimal or single-zeta basis
 #  * DZ: Double zeta basis, in the scheme defined by PAO.BasisType
 #  * SZP: Single-zeta basis plus polarization orbitals
 #  * DZP or STANDARD: Like DZ plus polarization orbitals
#%block PAO.BasisSizes
#%endblock PAO.BasisSizes
PAO.EnergyShift	200 meV
 # Default value: 0.02 Ry
PAO.SplitNorm		0.20
 # Default value: 0.15
#%block PS.lmax
#%endblock PS.lmax
 # Default: (Block absent or empty). Maximum angular momentum of the basis
 #  orbitals plus one
#%block PS.KBprojectors
#%endblock PS.KBprojectors
 # Default: (Block absent or empty). Only one KB projector, constructed from
 #  the nodeless eigenfunction, used for each angular momentum
%block PAO.Basis
	H	1
	0	1
	0.
	0.75
%endblock PAO.Basis
 # Define Basis set
 #  Label, l_shells, type (opt), ionic_charge (opt)
 #  n (opt if not using semicore levels), l, Nzeta
 #      rc(izeta=1,Nzeta)(Bohr)
 #      scaleFactor(izeta=1,Nzeta) (opt)
 #  l, Nzeta, PolOrb (opt), NzetaPol (opt)
 #      rc(izeta=1,Nzeta)(Bohr)
##### LATTICE, COORDINATES, k-SAMPLING #########################################
LatticeConstant	3.882016 Ang	# Bulk 5.49 Ang
 # Default value: Minimum size to include the system without intercell
 #  interactions, plus 10%
%block LatticeParameters
	1.0	2.0	9.5	90.	90.	90.
%endblock LatticeParameters
 # Default value: 1.0  1.0  1.0  90.  90.  90.
#%block LatticeVectors
#%endblock LatticeVectors
 # Default value:
 #  1.0  0.0  0.0
 #  0.0  1.0  0.0
 #  0.0  0.0  1.0
AtomicCoordinatesFormat	ScaledCartesian
 # Default value: NotScaledCartesianBohr
 #  * Bohr or NotScaledCartesianBohr
 #  * Ang or NotScaledCartesianAng
 #  * ScaledCartesian
 #  * Fractional or ScaledByLatticeVectors
#AtomCoorFormatOut
 # Default value: value of AtomicCoordinatesFormat
#AtomicCoordinatesOrigin
 # Default value: 0.000  0.000  0.000
%block AtomicCoordinatesAndAtomicSpecies
    0.00000041    0.20165728    0.08212876   1  Si        1
    0.00000557    0.79834210    0.08212876   1  Si        2
    0.49999992    0.02145368    0.36263553   1  Si        3
    0.49999722    0.97855287    0.36264235   1  Si        4
    0.49999851    0.49999916    0.74970455   1  Si        5
    0.50001930    1.49999916    0.68492868   1  Si        6
    0.00000849    0.50000179    1.09496075   1  Si        7
   -0.00000336    1.49998803    1.04760947   1  Si        8
    0.00004366   -0.01155657    1.42424719   1  Si        9
    0.00005371    1.01157604    1.42426949   1  Si       10
    0.50002980   -0.00933792    1.77615172   1  Si       11
    0.50001391    1.00933408    1.77611812   1  Si       12
    0.50000291    0.49999931    2.12034679   1  Si       13
    0.50011505    1.50002573    2.13662611   1  Si       14
    0.00000006    0.49999949    2.47735636   1  Si       15
    0.00006776    1.50000282    2.48609396   1  Si       16
    0.00000000    0.00000000    2.82840000   1  Si       17
    0.00000000    1.00000000    2.82840000   1  Si       18
   -0.29280000    0.00000000    3.07230000   2  H        19
    0.29280000    0.00000000    3.07230000   2  H        20
   -0.29280000    1.00000000    3.07230000   2  H        21
    0.29280000    1.00000000    3.07230000   2  H        22
%endblock AtomicCoordinatesAndAtomicSpecies
#%block AtomicCoordinatesAndAtomicSpecies
#%endblock AtomicCoordinatesAndAtomicSpecies
#%block SuperCell
#%endblock SuperCell
%block GeometryConstraints
	position from	17 to	22
	routine constr
%endblock GeometryConstraints
 # Default value: No constraints
#kgrid_cutoff		16.5 Ang
 # Default value: 0.0 Bohr
%block kgrid_Monkhorst_Pack
	3	0	0	0.0
	0	3	0	0.0
	0	0	1	0.0
%endblock kgrid_Monkhorst_Pack
 # Default value: Gamma point
#BandLinesScale
 # Default value: pi/a
#%block BandLines
#%endblock BandLines
 # Default value: No band energies calculated
##### DFT, GRID, SCF ###########################################################
#Harris_functional	.true.
 # Default value: .false.
XC.functional		GGA
 # Default value: LDA
 #  * LDA
 #  * GGA
XC.authors		PBE
 # Default value: PZ
 #  * CA equivalent to PZ. Local density approx.
 #  * PW92. Local density approximation.
 #  * PBE. Generalized gradients approximation.
SpinPolarized		.true.
 # Default value: .false.
#NonCollinearSpin	.true.
 # Default value: .false.
#FixSpin		.true.
 # Default value: .false.
#TotalSpin
 # Default value: 0.0
MeshCutoff		100. Ry
 # Default value: 50 Ry
MaxSCFIterations	200
 # Default value: 50
DM.MixingWeight	0.1
 # Default value: 0.25
DM.NumberPulay	3
 # Default value: 0
#DM.PulayOnFile	.true.
 # Default value: .false.
#DM.NumberKick  5
 # Default value: 0
#DM.KickMixingWeight
 # Default value: 0.50
#DM.MixSCF1		.true.
 # Default value: .false.
#DM.Tolerance		1.0d-6
 # Default value: 10**-4
#DM.InitSpinAF		.true.
 # Default value: .false.
%block DM.InitSpin
	1	+
	2	-
%endblock DM.InitSpin
 # Atom index, spin, theta, phi (deg)
#NeglNonOverlapInt	.true.
 # Default value: .false.
#%block ExternalElectricField
#%endblock ExternalElectricField
#%block PolarizationGrids
#%endblock PolarizationGrids
#%block GridCellSampling
#%endblock GridCellSampling
##### EIGENVALUE PROBLEM: DIAGONALIZATION OR ORDER-N ###########################
SolutionMethod	diagon
 # Default value: diagon for 100 atoms or less,
 #  Order-N for more than 100 atoms
ElectronicTemperature	5 meV
 # Default value: 300 K
#ON.functional
 # Default value: Kim
 #  * Kim
 #  * Ordejon-Mauri
 #  * files
#ON.MaxNumIter
 # Default value: 1000
#ON.etol
 # Default value: 10**-8
#ON.eta
 # Default value: 0.0 eV
#ON.RcLWF
 # Default value: 9.5 Bohr
#ON.ChemicalPotential	.true.
 # Default value: .false.
#ON.ChemicalPotentialUse	.true.
 # Default value: .false.
#ON.ChemicalPotentialRc
 # Default value: 9.5 Bohr
#ON.ChemicalPotentialTemperature
 # Default value: 0.05 Ry
#ON.ChemicalPotentialOrder
 # Default value: 100
##### MOLECULAR DYNAMICS AND RELAXATIONS #######################################
MD.TypeOfRun		CG
 # Default value: Verlet (CG for one atom systems)
 #  * CG
 #  * Verlet
 #  * Nose
 #  * ParrinelloRahman
 #  * NoseParrinelloRahman
 #  * Anneal
 #  * FC
 #  * Phonon
#MD.VariableCell	.true.
 # Default value: .false.
MD.NumCGsteps		0
 # Default value: 0
MD.MaxCGDispl		0.02 Ang
 # Default value: 0.2 Bohr
#MD.PreconditionVariableCell	
 # Default value: 5.0 Ang
MD.MaxForceTol	0.02 eV/Ang
 # Default value: 0.04 eV/Ang
#MD.MaxStressTol
 # Default value: 1.0 GPa
#MD.InitialTimeStep
 # Default value: 1
#MD.FinalTimeStep
 # Default value: 1
#MD.LengthTimeStep
 # Default value: 1.0 fs
#MD.InitialTemperature
 # Default value: 0.0 K
#MD.Quench		.true.
 # Default value: .false.
#MD.TargetTemperature
 # Default value: 0.0 K
#MD.TargetPressure
 # Default value: 0.0 GPa
#%block MD.TargetStress
#%endblock MD.TargetStress
 # Default value: Hydrostatic target pressure:
 #  -1., -1., -1., 0., 0., 0.
#MD.NoseMass
 # Default value: 100.0 Ry*fs**2
#MD.ParrinelloRahmanMass
 # Default value: 100.0 Ry*fs**2
#MD.AnnealOption
 # Default value: TemperatureAndPressure
 #  * Temperature
 #  * Pressure
 #  * TemperatureandPressure
#MD.TauRelax
 # Default value: 100.0 fs
#MD.BulkModulus
 # Default value: 100.0 Ry/Bohr**3
#MD.FCDispl
 # Default value: 0.04 Bohr
#MD.FCfirst
 # Default value: 1
#MD.FClast
 # Default value: Same as NumberOfAtoms
#%block MD.ATforPhonon
#%endblock MD.ATforPhonon
##### PARALLEL OPTIONS #########################################################
##### EFFICIENCY OPTIONS #######################################################
#DirectPhi		.true.
 # Default value: .false.
#SaveMemory		.true.
 # Default value: .false.
##### OUTPUT OPTIONS ###########################################################
#LongOutput		.true.
 # Default value: .false.
 #  * WriteCoorStep:  .true.
 #  * WriteForces: .true.
 #  * WriteKpoints: .true.
 #  * WriteEigenvalues: .true.
 #  * WriteKbands: .true.
 #  * WriteBands: .true.
 #  * WriteMullikenPop 1
#WriteCoorInitial	.false.
 # Default value: .true.
WriteCoorStep		.true.
 # Default value: .false.
WriteForces		.true.
 # Default value: .false.
#WriteKpoints		.true.
 # Default value: .false.
#WriteEigenvalues	.true.
 # Default value: .false.
#WriteDM		.false.
 # Default value: .true.
#WriteKbands		.true.
 # Default value: .false.
#WriteBands		.true.
 # Default value: .false.
WriteMullikenPop	1
 # Default value: 0
 #  * 0 = None
 #  * 1 = atomic and orbital charges
 #  * 2 = 1 + atomic overlap pop
 #  * 3 = 2 + orbital overlap pop
WriteCoorXmol		.true.
 # Default value: .false.
#WriteCoorCerius	.true.
 # Default value: .false.
WriteMDXmol		.true.
 # Default value: .false. if WriteCoorStep is .true. and vice-versa
WriteMDhistory	.true.
 # Default value: .false.
#WarningMinimumAtomicDistance
 # Default value: 1.0 Bohr
#AllocReportLevel	2
# Default value: 0
#  * level 0 : no report at all (the default)
#  * level 1 : only total memory peak and where it occurred
#  * level 2 : detailed report printed only at normal program termination
#  * level 3 : detailed report printed at every new memory peak
#  * level 4 : print every individual (re)allocation or deallocation
##### OPTIONS FOR SAVING/READING INFORMATION ###################################
#UseSaveData		.true.
 # Default value: .false.
#DM.UseSaveDM		.true.
 # Default value: .false.
#ON.UseSaveLWF		.true.
 # Default value: .false.
#MD.UseSaveXV		.true.
 # Default value: .false.
#MD.UseSaveCG		.true.
 # Default value: .false.
#SaveHS			.true.
 # Default value: .false.
SaveRho		.true.
 # Default value: .false.
SaveDeltaRho		.true.
 # Default value: .false.
SaveElectrostaticPotential	.true.
 # Default value: .false.
SaveTotalPotential	.true.
 # Default value: .false.
#%block LocalDensityOfStates
#%endblock LocalDensityOfStates
 # Default value: LDOS not calculated nor written.
#%block ProjectedDensityOfStates
#%endblock ProjectedDensityOfStates
 # Default value: PDOS not calculated nor written.
##### USER-PROVIDED BASIS ORBITALS #############################################
#User.Basis
#User.Basis.NetCDF
************************** End of input data file *****************************

reinit: -----------------------------------------------------------------------
reinit: System Name: si2x1.gga.vpsgga.sp.9l.sym.af-f
reinit: -----------------------------------------------------------------------
reinit: System Label: si111-spinpol                                               
reinit: -----------------------------------------------------------------------

initatom: Reading input for the pseudopotentials and atomic orbitals ----------
 Species number:            1  Label: Si Atomic number:          14
 Species number:            2  Label: H Atomic number:           1
Ground state valence configuration:   3s02  3p02
Reading pseudopotential information in formatted form from Si.psf

Valence configuration for pseudopotential generation:
3s( 2.00) rc: 1.89
3p( 2.00) rc: 1.89
3d( 0.00) rc: 1.89
4f( 0.00) rc: 1.89
Ground state valence configuration:   1s01
Reading pseudopotential information in formatted form from H.psf

Valence configuration for pseudopotential generation:
1s( 1.00) rc: 1.25
2p( 0.00) rc: 1.25
3d( 0.00) rc: 1.25
4f( 0.00) rc: 1.25
For Si, standard SIESTA heuristics set lmxkb to 3
 (one more than the basis l, including polarization orbitals).
Use PS.lmax or PS.KBprojectors blocks to override.
For H, standard SIESTA heuristics set lmxkb to 1
 (one more than the basis l, including polarization orbitals).
Use PS.lmax or PS.KBprojectors blocks to override.

<basis_specs>
===============================================================================
Si                   Z=  14    Mass=  28.090        Charge= 0.17977+309
Lmxo=1 Lmxkb= 3    BasisType=split      Semic=F
L=0  Nsemic=0  Cnfigmx=3
          n=1  nzeta=1  polorb=0
            splnorm:   0.20000    
               vcte:    0.0000    
               rinn:    0.0000    
               qcoe:    0.0000    
               qyuk:    0.0000    
               qwid:   0.10000E-01
                rcs:    0.0000    
            lambdas:    1.0000    
L=1  Nsemic=0  Cnfigmx=3
          n=1  nzeta=1  polorb=1
            splnorm:   0.20000    
               vcte:    0.0000    
               rinn:    0.0000    
               qcoe:    0.0000    
               qyuk:    0.0000    
               qwid:   0.10000E-01
                rcs:    0.0000    
            lambdas:    1.0000    
-------------------------------------------------------------------------------
L=0  Nkbl=1  erefs: 0.17977+309
L=1  Nkbl=1  erefs: 0.17977+309
L=2  Nkbl=1  erefs: 0.17977+309
L=3  Nkbl=1  erefs: 0.17977+309
===============================================================================
</basis_specs>

atom: Called for Si                    (Z =  14)

read_vps: Pseudopotential generation method:
read_vps: ATM3      Troullier-Martins                       
Total valence charge:    4.00000

xc_check: Exchange-correlation functional:
xc_check: GGA Perdew, Burke & Ernzerhof 1996
xc_check: WARNING: Pseudopotential generated with LDA CA functional
V l=0 = -2*Zval/r beyond r=  2.5494
V l=1 = -2*Zval/r beyond r=  2.5494
V l=2 = -2*Zval/r beyond r=  2.5494
V l=3 = -2*Zval/r beyond r=  2.5494
All V_l potentials equal beyond r=  1.8652
This should be close to max(r_c) in ps generation
All pots = -2*Zval/r beyond r=  2.5494
Using large-core scheme for Vlocal

atom: Estimated core radius    2.54944

atom: Including non-local core corrections could be a good idea
atom: Maximum radius for 4*pi*r*r*local-pseudopot. charge    2.85303
atom: Maximum radius for r*vlocal+2*Zval:    2.58151
GHOST: No ghost state for L =  0
GHOST: No ghost state for L =  1
GHOST: No ghost state for L =  2
GHOST: No ghost state for L =  3

KBgen: Kleinman-Bylander projectors: 
   l= 0   rc=  1.936440   el= -0.807387   Ekb=  4.637207   kbcos=  0.300267
   l= 1   rc=  1.936440   el= -0.312019   Ekb=  1.490013   kbcos=  0.306600
   l= 2   rc=  1.936440   el=  0.001958   Ekb= -2.804484   kbcos= -0.055139
   l= 3   rc=  1.936440   el=  0.003046   Ekb= -0.959220   kbcos= -0.005470

KBgen: Total number of  Kleinman-Bylander projectors:   16
atom: -------------------------------------------------------------------------

atom: SANKEY-TYPE ORBITALS:

SPLIT: Orbitals with angular momentum L= 0

SPLIT: Basis orbitals for state 3s

SPLIT: PAO cut-off radius determined from an
SPLIT: energy shift=  0.014700 Ry

   izeta = 1
                 lambda =    1.000000
                     rc =    5.134119
                 energy =   -0.792934
                kinetic =    0.571129
    potential(screened) =   -1.364064
       potential(ionic) =   -3.825498

SPLIT: Orbitals with angular momentum L= 1

SPLIT: Basis orbitals for state 3p

SPLIT: PAO cut-off radius determined from an
SPLIT: energy shift=  0.014700 Ry

   izeta = 1
                 lambda =    1.000000
                     rc =    6.429618
                 energy =   -0.297843
                kinetic =    0.882865
    potential(screened) =   -1.180708
       potential(ionic) =   -3.438180

POLgen: Perturbative polarization orbital with L=  2

POLgen: Polarization orbital for state 3p

   izeta = 1
                     rc =    6.429618
                 energy =    0.426445
                kinetic =    1.294945
    potential(screened) =   -0.868499
       potential(ionic) =   -2.933234
atom: Total number of Sankey-type orbitals:  9

atm_pop: Valence configuration (for local Pseudopot. screening):
 3s( 2.00)                                                            
 3p( 2.00)                                                            
Vna: chval, zval:    4.00000   4.00000

Vna:  Cut-off radius for the neutral-atom potential:   6.429618

atom: _________________________________________________________________________

<basis_specs>
===============================================================================
H                    Z=   1    Mass=  1.0100        Charge= 0.17977+309
Lmxo=0 Lmxkb= 1    BasisType=split      Semic=F
L=0  Nsemic=0  Cnfigmx=1
          n=1  nzeta=1  polorb=0
            splnorm:   0.20000    
               vcte:    0.0000    
               rinn:    0.0000    
               qcoe:    0.0000    
               qyuk:    0.0000    
               qwid:   0.10000E-01
                rcs:    0.0000    
            lambdas:   0.75000    
-------------------------------------------------------------------------------
L=0  Nkbl=1  erefs: 0.17977+309
L=1  Nkbl=1  erefs: 0.17977+309
===============================================================================
</basis_specs>

atom: Called for H                     (Z =   1)

read_vps: Pseudopotential generation method:
read_vps: ATM3      Troullier-Martins                       
Total valence charge:    1.00000

xc_check: Exchange-correlation functional:
xc_check: GGA Perdew, Burke & Ernzerhof 1996
xc_check: WARNING: Pseudopotential generated with LDA CA functional
V l=0 = -2*Zval/r beyond r=  1.2343
V l=1 = -2*Zval/r beyond r=  1.2189
All V_l potentials equal beyond r=  1.2343
This should be close to max(r_c) in ps generation
All pots = -2*Zval/r beyond r=  1.2343

VLOCAL1: 99.0% of the norm of Vloc inside     28.493 Ry
VLOCAL1: 99.9% of the norm of Vloc inside     64.935 Ry
atom: Maximum radius for 4*pi*r*r*local-pseudopot. charge    1.45251
atom: Maximum radius for r*vlocal+2*Zval:    1.21892
GHOST: No ghost state for L =  0
GHOST: No ghost state for L =  1

KBgen: Kleinman-Bylander projectors: 
   l= 0   rc=  1.364359   el= -0.488086   Ekb= -2.002077   kbcos= -0.347561
   l= 1   rc=  1.434438   el=  0.001075   Ekb= -0.501617   kbcos= -0.021754

KBgen: Total number of  Kleinman-Bylander projectors:    4
atom: -------------------------------------------------------------------------

atom: SANKEY-TYPE ORBITALS:

SPLIT: Orbitals with angular momentum L= 0

SPLIT: Basis orbitals for state 1s

SPLIT: PAO cut-off radius determined from an
SPLIT: energy shift=  0.014700 Ry

   izeta = 1
                 lambda =    0.750000
                     rc =    4.888755
                 energy =   -0.372406
                kinetic =    1.579954
    potential(screened) =   -1.952359
       potential(ionic) =   -2.481447
atom: Total number of Sankey-type orbitals:  1

atm_pop: Valence configuration (for local Pseudopot. screening):
 1s( 1.00)                                                            
Vna: chval, zval:    1.00000   1.00000

Vna:  Cut-off radius for the neutral-atom potential:   4.889026

atom: _________________________________________________________________________

prinput: Basis input ----------------------------------------------------------

PAO.BasisType split     

%block ChemicalSpeciesLabel
    1   14 Si                      # Species index, atomic number, species label
    2    1 H                       # Species index, atomic number, species label
%endblock ChemicalSpeciesLabel

%block PAO.Basis                 # Define Basis set
Si                    2                    # Species label, number of l-shells
 n=3   0   1                         # n, l, Nzeta 
   5.134   
   1.000   
 n=3   1   1 P   1                   # n, l, Nzeta, Polarization, NzetaPol
   6.430   
   1.000   
H                     1                    # Species label, number of l-shells
 n=1   0   1                         # n, l, Nzeta 
   4.889   
   0.750   
%endblock PAO.Basis

prinput: ----------------------------------------------------------------------

Dumping basis to NetCDF file Si.ion.nc
Dumping basis to NetCDF file H.ion.nc
coor:   Atomic-coordinates input format  =     Cartesian coordinates
coor:                                          (in units of alat)

siesta: Atomic coordinates (Bohr) and species
siesta:      0.00000   1.47935   0.60249  1        1
siesta:      0.00004   5.85660   0.60249  1        2
siesta:      3.66797   0.15738   2.66028  1        3
siesta:      3.66795   7.17861   2.66033  1        4
siesta:      3.66796   3.66797   5.49980  1        5
siesta:      3.66812  11.00392   5.02460  1        6
siesta:      0.00006   3.66799   8.03258  1        7
siesta:     -0.00002  11.00384   7.68521  1        8
siesta:      0.00032  -0.08478  10.44821  1        9
siesta:      0.00039   7.42087  10.44837  1       10
siesta:      3.66819  -0.06850  13.02976  1       11
siesta:      3.66808   7.40442  13.02951  1       12
siesta:      3.66800   3.66797  15.55476  1       13
siesta:      3.66882  11.00411  15.67418  1       14
siesta:      0.00000   3.66797  18.17376  1       15
siesta:      0.00050  11.00395  18.23786  1       16
siesta:      0.00000   0.00000  20.74900  1       17
siesta:      0.00000   7.33595  20.74900  1       18
siesta:     -2.14797   0.00000  22.53824  2       19
siesta:      2.14797   0.00000  22.53824  2       20
siesta:     -2.14797   7.33595  22.53824  2       21
siesta:      2.14797   7.33595  22.53824  2       22

siesta: System type = slab      

initatomlists: Number of atoms, orbitals, and projectors:     22   166   304

coxmol: Writing XMOL coordinates into file si111-spinpol.xyz                                               

siesta: ******************** Simulation parameters ****************************
siesta:
siesta: The following are some of the parameters of the simulation.
siesta: A complete list of the parameters used, including default values,
siesta: can be found in file out.fdf
siesta:
redata: Non-Collinear-spin run           =     F
redata: SpinPolarized (Up/Down) run      =     T
redata: Number of spin components        =     2
redata: Long output                      =     F
redata: Number of Atomic Species         =        2
redata: Charge density info will appear in .RHO file
redata: Write Mulliken Pop.              =     Atomic and Orbital charges
redata: Matel table size (NRTAB)         =     1024
redata: Mesh Cutoff                      =   100.0000 Ry
redata: Net charge of the system         =     0.0000 |e|
redata: Min. number of SCF Iter          =        0
redata: Max. number of SCF Iter          =      200
redata: Mix DM or H after convergence    =     F
redata: Recompute H after scf cycle      =     F
redata: Performing Pulay mixing using    =     3 iterations
redata: Mix DM in first SCF step ?       =     F
redata: Write Pulay info on disk?        =     F
redata: Discard 1st Pulay DM after  kick =     F
redata: New DM Mixing Weight             =     0.1000
redata: New DM Occupancy tolerance       = 0.000000000001
redata: No kicks to SCF
redata: DM Mixing Weight for Kicks       =     0.5000
redata: DM Tolerance for SCF             =     0.000100
redata: Require (free) Energy convergence in SCF =     F
redata: DM (free)Energy tolerance for SCF =     0.000010 eV
redata: Require Harris convergence for SCF =     F
redata: DM Harris energy tolerance for SCF =     0.000010 eV
redata: Antiferro initial spin density   =     F
redata: Using Saved Data (generic)   =     F
redata: Use continuation files for DM    =     F
redata: Neglect nonoverlap interactions  =     F
redata: Method of Calculation            =     Diagonalization
redata: Divide and Conquer               =     T
redata: Electronic Temperature           =     0.0004  Ry
redata: Fix the spin of the system       =     F
redata: Dynamics option                  =     Single-point calculation
redata: ***********************************************************************
Total number of electrons:    76.000000
Total ionic charge:    76.000000

* ProcessorY, Blocksize:    2  21


* Orbital distribution balance (max,min):    21    19

 Kpoints in:            6 . Kpoints trimmed:            5

siesta: k-grid: Number of k-points =     5
siesta: k-grid: Cutoff (effective) =     5.823 Ang
siesta: k-grid: Supercell and displacements
siesta: k-grid:    3   0   0      0.000
siesta: k-grid:    0   3   0      0.000
siesta: k-grid:    0   0   1      0.000
Naive supercell factors:     5    3    1

superc: Internal auxiliary supercell:     5 x     3 x     1  =      15
superc: Number of atoms, orbitals, and projectors:    330   2490   4560

                     ====================================
                        Single-point calculation
                     ====================================

outcoor: Atomic coordinates (scaled):                       
    0.00000041    0.20165728    0.08212876   1       1  Si
    0.00000557    0.79834210    0.08212876   1       2  Si
    0.49999992    0.02145368    0.36263553   1       3  Si
    0.49999722    0.97855287    0.36264235   1       4  Si
    0.49999851    0.49999916    0.74970455   1       5  Si
    0.50001930    1.49999916    0.68492868   1       6  Si
    0.00000849    0.50000179    1.09496075   1       7  Si
   -0.00000336    1.49998803    1.04760947   1       8  Si
    0.00004366   -0.01155657    1.42424719   1       9  Si
    0.00005371    1.01157604    1.42426949   1      10  Si
    0.50002980   -0.00933792    1.77615172   1      11  Si
    0.50001391    1.00933408    1.77611812   1      12  Si
    0.50000291    0.49999931    2.12034679   1      13  Si
    0.50011505    1.50002573    2.13662611   1      14  Si
    0.00000006    0.49999949    2.47735636   1      15  Si
    0.00006776    1.50000282    2.48609396   1      16  Si
    0.00000000    0.00000000    2.82840000   1      17  Si
    0.00000000    1.00000000    2.82840000   1      18  Si
   -0.29280000    0.00000000    3.07230000   2      19  H
    0.29280000    0.00000000    3.07230000   2      20  H
   -0.29280000    1.00000000    3.07230000   2      21  H
    0.29280000    1.00000000    3.07230000   2      22  H

superc: Internal auxiliary supercell:     5 x     3 x     1  =      15
superc: Number of atoms, orbitals, and projectors:    330   2490   4560

outcell: Unit cell vectors (Ang):
        3.882016    0.000000    0.000000
        0.000000    7.764032    0.000000
        0.000000    0.000000   36.879152

outcell: Cell vector modules (Ang)   :    3.882016    7.764032   36.879152
outcell: Cell angles (23,13,12) (deg):     90.0000     90.0000     90.0000
outcell: Cell volume (Ang**3)        :   1111.5412
New_DM. Step:     1
Initializing Density Matrix...
     spin moment: S , {S} =    0.00000       0.0       0.0   0.00000
New grid distribution:   1
           1       1:   12    1:   12    1:   30
           2       1:   12    1:   12   31:   60
           3       1:   12    1:   12   61:   90
           4       1:   12    1:   12   91:  120
           5       1:   12   13:   24    1:   30
           6       1:   12   13:   24   31:   60
           7       1:   12   13:   24   61:   90
           8       1:   12   13:   24   91:  120

InitMesh: MESH =    24 x    48 x   240 =      276480
InitMesh: (bp) =    12 x    24 x   120 =       34560
InitMesh: Mesh cutoff (required, used) =   100.000   105.635 Ry
ExtMesh (bp) on 0 =    56 x    56 x    78 =      244608
New grid distribution:   2
           1       1:   12    1:   24   15:   19
           2       1:   12    1:   24   29:   33
           3       1:   12    1:   24   34:  120
           4       1:   12    1:   24    7:   10
           5       1:   12    1:   24    1:    6
           6       1:   12    1:   24   20:   24
           7       1:   12    1:   24   25:   28
           8       1:   12    1:   24   11:   14
New grid distribution:   3
           1       1:   12    1:   24    8:   14
           2       1:   12    1:   24   29:   35
           3       1:   12    1:   24   43:  113
           4       1:   12    1:   24   22:   28
           5       1:   12    1:   24    1:    7
           6       1:   12    1:   24   36:   42
           7       1:   12    1:   24   15:   21
           8       1:   12    1:   24  114:  120
Setting up quadratic distribution...
ExtMesh (bp) on 0 =    56 x    68 x    53 =      201824
PhiOnMesh: Number of (b)points on node 0 =                 1440
PhiOnMesh: nlist on node 0 =               108770

stepf: Fermi-Dirac step function

siesta: Program's energy decomposition (eV):
siesta: Ebs     =      -708.698569
siesta: Eions   =      3506.048399
siesta: Ena     =      1055.453202
siesta: Ekin    =       798.086769
siesta: Enl     =       291.161013
siesta: DEna    =         0.000001
siesta: DUscf   =         0.000000
siesta: DUext   =         0.000000
siesta: Exc     =      -619.792277
siesta: eta*DQ  =         0.000000
siesta: Emadel  =         0.000000
siesta: Emeta   =         0.000000
siesta: Emolmec =         0.000000
siesta: Ekinion =         0.000000
siesta: Eharris =     -1992.725269
siesta: Etot    =     -1981.139691
siesta: FreeEng =     -1981.139691

   scf: iscf   Eharris(eV)      E_KS(eV)   FreeEng(eV)    dDmax  Ef(eV)
   scf:    1    -1992.7253    -1981.1397    -1981.1397  0.57275 -4.1493
     spin moment: S , {S} =   -0.00000       0.0       0.0  -0.00000
timer: Routine,Calls,Time,% =    IterSCF     1       0.693  33.54
   scf:    2    -1994.3028    -1992.7065    -1992.7088  0.11387 -4.0698
     spin moment: S , {S} =   -0.00003       0.0       0.0  -0.00003
   scf:    3    -1993.3510    -1992.1228    -1992.1228  0.06053 -3.9690
     spin moment: S , {S} =   -0.00000       0.0       0.0  -0.00000
   scf:    4    -1993.2271    -1992.7503    -1992.7503  0.03952 -4.2080
     spin moment: S , {S} =   -0.00000       0.0       0.0  -0.00000
   scf:    5    -1993.1751    -1993.0103    -1993.0103  0.03005 -4.3175
     spin moment: S , {S} =   -0.00000       0.0       0.0  -0.00000
   scf:    6    -1993.1611    -1993.0091    -1993.0091  0.02549 -4.3589
     spin moment: S , {S} =   -0.00000       0.0       0.0  -0.00000
   scf:    7    -1993.1626    -1992.9788    -1992.9788  0.02279 -4.3602
     spin moment: S , {S} =   -0.00000       0.0       0.0  -0.00000
   scf:    8    -1993.1636    -1992.9585    -1992.9585  0.01887 -4.3489
     spin moment: S , {S} =   -0.00000       0.0       0.0  -0.00000
   scf:    9    -1993.1651    -1992.9832    -1992.9832  0.01607 -4.3401
     spin moment: S , {S} =   -0.00000       0.0       0.0  -0.00000
   scf:   10    -1993.1678    -1993.0594    -1993.0594  0.01143 -4.3325
     spin moment: S , {S} =   -0.00000       0.0       0.0  -0.00000
   scf:   11    -1993.1684    -1993.1402    -1993.1402  0.00733 -4.3344
     spin moment: S , {S} =   -0.00000       0.0       0.0  -0.00000
   scf:   12    -1993.1681    -1993.1659    -1993.1659  0.00578 -4.3393
     spin moment: S , {S} =   -0.00000       0.0       0.0  -0.00000
   scf:   13    -1993.1679    -1993.1639    -1993.1639  0.00518 -4.3444
     spin moment: S , {S} =   -0.00000       0.0       0.0  -0.00000
   scf:   14    -1993.1679    -1993.1547    -1993.1547  0.00486 -4.3456
     spin moment: S , {S} =   -0.00000       0.0       0.0  -0.00000
   scf:   15    -1993.1680    -1993.1417    -1993.1417  0.00436 -4.3438
     spin moment: S , {S} =   -0.00000       0.0       0.0  -0.00000
   scf:   16    -1993.1681    -1993.1409    -1993.1409  0.00390 -4.3420
     spin moment: S , {S} =    0.00000       0.0       0.0   0.00000
   scf:   17    -1993.1682    -1993.1497    -1993.1497  0.00288 -4.3396
     spin moment: S , {S} =   -0.00000       0.0       0.0  -0.00000
   scf:   18    -1993.1683    -1993.1604    -1993.1604  0.00209 -4.3397
     spin moment: S , {S} =   -0.00000       0.0       0.0  -0.00000
   scf:   19    -1993.1683    -1993.1700    -1993.1700  0.00144 -4.3411
     spin moment: S , {S} =    0.00000       0.0       0.0   0.00000
   scf:   20    -1993.1683    -1993.1727    -1993.1727  0.00131 -4.3423
     spin moment: S , {S} =   -0.00000       0.0       0.0  -0.00000
   scf:   21    -1993.1683    -1993.1715    -1993.1715  0.00123 -4.3427
     spin moment: S , {S} =   -0.00000       0.0       0.0  -0.00000
   scf:   22    -1993.1683    -1993.1681    -1993.1681  0.00108 -4.3425
     spin moment: S , {S} =   -0.00000       0.0       0.0  -0.00000
   scf:   23    -1993.1683    -1993.1657    -1993.1657  0.00095 -4.3422
     spin moment: S , {S} =   -0.00000       0.0       0.0  -0.00000
   scf:   24    -1993.1683    -1993.1645    -1993.1645  0.00081 -4.3418
     spin moment: S , {S} =   -0.00000       0.0       0.0  -0.00000
   scf:   25    -1993.1683    -1993.1654    -1993.1654  0.00070 -4.3418
     spin moment: S , {S} =    0.00000       0.0       0.0   0.00000
   scf:   26    -1993.1683    -1993.1683    -1993.1683  0.00059 -4.3419
     spin moment: S , {S} =    0.00000       0.0       0.0   0.00000
   scf:   27    -1993.1683    -1993.1700    -1993.1700  0.00050 -4.3421
     spin moment: S , {S} =   -0.00000       0.0       0.0  -0.00000
   scf:   28    -1993.1683    -1993.1705    -1993.1705  0.00042 -4.3422
     spin moment: S , {S} =   -0.00000       0.0       0.0  -0.00000
   scf:   29    -1993.1683    -1993.1699    -1993.1699  0.00037 -4.3422
     spin moment: S , {S} =   -0.00000       0.0       0.0  -0.00000
   scf:   30    -1993.1683    -1993.1690    -1993.1690  0.00033 -4.3422
     spin moment: S , {S} =    0.00000       0.0       0.0   0.00000
   scf:   31    -1993.1683    -1993.1682    -1993.1682  0.00030 -4.3422
     spin moment: S , {S} =   -0.00000       0.0       0.0  -0.00000
   scf:   32    -1993.1683    -1993.1679    -1993.1679  0.00027 -4.3421
     spin moment: S , {S} =   -0.00000       0.0       0.0  -0.00000
   scf:   33    -1993.1683    -1993.1681    -1993.1681  0.00024 -4.3420
     spin moment: S , {S} =    0.00000       0.0       0.0   0.00000
   scf:   34    -1993.1683    -1993.1685    -1993.1685  0.00021 -4.3421
     spin moment: S , {S} =   -0.00000       0.0       0.0  -0.00000
   scf:   35    -1993.1683    -1993.1690    -1993.1690  0.00016 -4.3422
     spin moment: S , {S} =   -0.00000       0.0       0.0  -0.00000
   scf:   36    -1993.1683    -1993.1691    -1993.1691  0.00013 -4.3422
     spin moment: S , {S} =   -0.00000       0.0       0.0  -0.00000
   scf:   37    -1993.1683    -1993.1689    -1993.1689  0.00012 -4.3422
     spin moment: S , {S} =   -0.00000       0.0       0.0  -0.00000
   scf:   38    -1993.1683    -1993.1687    -1993.1687  0.00011 -4.3422
     spin moment: S , {S} =   -0.00000       0.0       0.0  -0.00000
   scf:   39    -1993.1683    -1993.1683    -1993.1683  0.00010 -4.3421
     spin moment: S , {S} =   -0.00000       0.0       0.0  -0.00000
   scf:   40    -1993.1683    -1993.1682    -1993.1682  0.00009 -4.3421
     spin moment: S , {S} =   -0.00000       0.0       0.0  -0.00000

SCF Convergence by dMax criterion
max |DM_out - DM_in|:     0.00009477
SCF cycle converged after   40 iterations

Using DM_out to compute the final energy and forces

siesta: E_KS(eV) =            -1993.1683

siesta: E_KS - E_eggbox =     -1993.1683
     spin moment: S , {S} =   -0.00000       0.0       0.0  -0.00000

siesta: Atomic forces (eV/Ang):
     1    0.000049    0.232357    0.006307
     2   -0.000356   -0.232223    0.006534
     3    0.000136    0.279852    0.036059
     4    0.000590   -0.280240    0.035697
     5    0.000323    0.000072   -0.051824
     6   -0.001072    0.000144    0.118281
     7   -0.000001    0.000665   -0.105615
     8    0.001277    0.000549   -0.034407
     9   -0.003574    0.055040   -0.014817
    10   -0.004198   -0.056420   -0.016935
    11    0.001052    0.010259   -0.009781
    12    0.002351   -0.008544   -0.006673
    13   -0.000026    0.000343    0.013795
    14   -0.005166   -0.001586    0.028860
    15    0.000064    0.000078   -0.062568
    16    0.002812    0.000043   -0.100738
    17    0.000192    0.086129   -0.167920
    18    0.000239   -0.086102   -0.168077
    19   -0.211641    0.020439    0.128678
    20    0.211551    0.020672    0.128792
    21   -0.211646   -0.020400    0.128666
    22    0.211547   -0.020634    0.128789
----------------------------------------
   Tot   -0.005498    0.000494    0.021103
----------------------------------------
   Max    0.280240
   Res    0.098241    sqrt( Sum f_i^2 / 3N )
----------------------------------------
   Max    0.280240    constrained

Stress-tensor-Voigt (kbar):      -22.85        0.64       -0.75        0.00        0.00       -0.03
(Free)E + p*V (eV/cell)    -1987.8594
Target enthalpy (eV/cell)    -1993.1683

mulliken: Atomic and Orbital Populations:

mulliken: Spin UP 

Species: Si                  
Atom  Qatom  Qorb
               3s      3py     3pz     3px     3Pdxy   3Pdyz   3Pdz2   3Pdxz   
               3Pdx2-y2
   1  2.250   0.698   0.439   0.603   0.417   0.024   0.007   0.008   0.022
              0.032
   2  1.737   0.639   0.392   0.198   0.398   0.023   0.021   0.010   0.023
              0.032
   3  2.030   0.634   0.409   0.398   0.418   0.030   0.033   0.029   0.042
              0.037
   4  2.013   0.642   0.414   0.406   0.415   0.026   0.032   0.015   0.032
              0.032
   5  1.958   0.648   0.377   0.382   0.411   0.015   0.029   0.017   0.041
              0.038
   6  2.014   0.644   0.400   0.405   0.427   0.021   0.035   0.017   0.033
              0.034
   7  2.002   0.633   0.404   0.406   0.431   0.019   0.029   0.015   0.032
              0.033
   8  1.994   0.645   0.414   0.400   0.411   0.016   0.030   0.017   0.034
              0.027
   9  1.999   0.637   0.408   0.403   0.421   0.019   0.031   0.017   0.032
              0.030
  10  2.004   0.637   0.411   0.404   0.421   0.020   0.031   0.017   0.033
              0.030
  11  1.999   0.636   0.411   0.403   0.420   0.018   0.031   0.017   0.032
              0.031
  12  2.001   0.637   0.411   0.403   0.419   0.018   0.032   0.017   0.032
              0.031
  13  1.999   0.640   0.409   0.404   0.421   0.017   0.030   0.016   0.031
              0.031
  14  2.003   0.633   0.413   0.406   0.420   0.018   0.031   0.017   0.033
              0.031
  15  2.007   0.636   0.418   0.414   0.419   0.017   0.031   0.016   0.028
              0.029
  16  2.010   0.630   0.419   0.416   0.421   0.018   0.031   0.016   0.028
              0.030
  17  2.166   0.640   0.406   0.471   0.495   0.009   0.024   0.011   0.073
              0.036
  18  2.165   0.640   0.406   0.471   0.495   0.009   0.024   0.011   0.073
              0.036

Species: H                   
Atom  Qatom  Qorb
               1s      
  19  0.412   0.412
  20  0.412   0.412
  21  0.412   0.412
  22  0.412   0.412

mulliken: Qtot =       38.000

mulliken: Spin DOWN 

Species: Si                  
Atom  Qatom  Qorb
               3s      3py     3pz     3px     3Pdxy   3Pdyz   3Pdz2   3Pdxz   
               3Pdx2-y2
   1  1.737   0.639   0.392   0.198   0.398   0.023   0.021   0.010   0.023
              0.032
   2  2.250   0.698   0.439   0.603   0.417   0.024   0.007   0.008   0.022
              0.032
   3  2.013   0.642   0.414   0.406   0.415   0.026   0.032   0.015   0.032
              0.032
   4  2.030   0.634   0.409   0.398   0.418   0.030   0.033   0.029   0.042
              0.037
   5  1.958   0.648   0.377   0.382   0.411   0.015   0.029   0.017   0.041
              0.038
   6  2.014   0.644   0.400   0.405   0.427   0.021   0.035   0.017   0.033
              0.034
   7  2.002   0.633   0.404   0.406   0.431   0.019   0.029   0.015   0.032
              0.033
   8  1.994   0.645   0.414   0.400   0.411   0.016   0.030   0.017   0.034
              0.027
   9  2.004   0.638   0.411   0.404   0.421   0.020   0.031   0.017   0.033
              0.030
  10  1.999   0.637   0.408   0.403   0.421   0.019   0.031   0.017   0.032
              0.030
  11  2.001   0.637   0.411   0.403   0.419   0.018   0.032   0.017   0.032
              0.031
  12  1.999   0.636   0.411   0.403   0.420   0.018   0.031   0.017   0.032
              0.031
  13  1.999   0.640   0.409   0.404   0.421   0.017   0.030   0.016   0.031
              0.031
  14  2.003   0.633   0.413   0.406   0.420   0.018   0.031   0.017   0.033
              0.031
  15  2.007   0.636   0.418   0.414   0.419   0.017   0.031   0.016   0.028
              0.029
  16  2.010   0.630   0.419   0.416   0.421   0.018   0.031   0.016   0.028
              0.030
  17  2.165   0.640   0.406   0.471   0.495   0.009   0.024   0.011   0.073
              0.036
  18  2.166   0.640   0.406   0.471   0.495   0.009   0.024   0.011   0.073
              0.036

Species: H                   
Atom  Qatom  Qorb
               1s      
  19  0.412   0.412
  20  0.412   0.412
  21  0.412   0.412
  22  0.412   0.412

mulliken: Qtot =       38.000

coxmol: Writing XMOL coordinates into file si111-spinpol.xyz                                               

siesta: Program's energy decomposition (eV):
siesta: Ebs     =      -724.917059
siesta: Eions   =      3506.048399
siesta: Ena     =      1055.453202
siesta: Ekin    =       762.689047
siesta: Enl     =       240.645255
siesta: DEna    =        64.521041
siesta: DUscf   =         3.020725
siesta: DUext   =         0.000000
siesta: Exc     =      -613.449189
siesta: eta*DQ  =         0.000000
siesta: Emadel  =         0.000000
siesta: Emeta   =         0.000000
siesta: Emolmec =         0.000000
siesta: Ekinion =         0.000000
siesta: Eharris =     -1993.168318
siesta: Etot    =     -1993.168318
siesta: FreeEng =     -1993.168318

siesta: Final energy (eV):
siesta:  Band Struct. =    -724.917059
siesta:       Kinetic =     762.689047
siesta:       Hartree =   22493.524371
siesta:    Ext. field =       0.000000
siesta:   Exch.-corr. =    -613.449189
siesta:  Ion-electron =  -45676.989315
siesta:       Ion-ion =   21041.056769
siesta:       Ekinion =       0.000000
siesta:         Total =   -1993.168318

siesta: Atomic forces (eV/Ang):
siesta:      1    0.000049    0.232357    0.006307
siesta:      2   -0.000356   -0.232223    0.006534
siesta:      3    0.000136    0.279852    0.036059
siesta:      4    0.000590   -0.280240    0.035697
siesta:      5    0.000323    0.000072   -0.051824
siesta:      6   -0.001072    0.000144    0.118281
siesta:      7   -0.000001    0.000665   -0.105615
siesta:      8    0.001277    0.000549   -0.034407
siesta:      9   -0.003574    0.055040   -0.014817
siesta:     10   -0.004198   -0.056420   -0.016935
siesta:     11    0.001052    0.010259   -0.009781
siesta:     12    0.002351   -0.008544   -0.006673
siesta:     13   -0.000026    0.000343    0.013795
siesta:     14   -0.005166   -0.001586    0.028860
siesta:     15    0.000064    0.000078   -0.062568
siesta:     16    0.002812    0.000043   -0.100738
siesta:     17    0.000192    0.086129   -0.167920
siesta:     18    0.000239   -0.086102   -0.168077
siesta:     19   -0.211641    0.020439    0.128678
siesta:     20    0.211551    0.020672    0.128792
siesta:     21   -0.211646   -0.020400    0.128666
siesta:     22    0.211547   -0.020634    0.128789
siesta: ----------------------------------------
siesta:    Tot   -0.005498    0.000494    0.021103

siesta: Constrained forces (eV/Ang):
siesta:      1    0.000049    0.232357    0.006307
siesta:      2   -0.000356   -0.232223    0.006534
siesta:      3    0.000136    0.279852    0.036059
siesta:      4    0.000590   -0.280240    0.035697
siesta:      5    0.000323    0.000072   -0.051824
siesta:      6   -0.001072    0.000144    0.118281
siesta:      7   -0.000001    0.000665   -0.105615
siesta:      8    0.001277    0.000549   -0.034407
siesta:      9   -0.003574    0.055040   -0.014817
siesta:     10   -0.004198   -0.056420   -0.016935
siesta:     11    0.001052    0.010259   -0.009781
siesta:     12    0.002351   -0.008544   -0.006673
siesta:     13   -0.000026    0.000343    0.013795
siesta:     14   -0.005166   -0.001586    0.028860
siesta:     15    0.000064    0.000078   -0.062568
siesta:     16    0.002812    0.000043   -0.100738
siesta:     17    0.000000    0.000000    0.000000
siesta:     18    0.000000    0.000000    0.000000
siesta:     19    0.000000    0.000000    0.000000
siesta:     20    0.000000    0.000000    0.000000
siesta:     21    0.000000    0.000000    0.000000
siesta:     22    0.000000    0.000000    0.000000
siesta: ----------------------------------------
siesta:  Tot   -0.005740    0.000389   -0.157826

siesta: Stress tensor (static) (eV/Ang**3):
siesta:    -0.014263    0.000000   -0.000016
siesta:     0.000000    0.000400    0.000001
siesta:    -0.000016    0.000001   -0.000465

siesta: Cell volume =       1111.541198 Ang**3

siesta: Pressure (static):
siesta:                Solid            Molecule  Units
siesta:           0.00005202          0.00005493  Ry/Bohr**3
siesta:           0.00477616          0.00504356  eV/Ang**3
siesta:           7.65233710          8.08075861  kBar
(Free)E+ p_basis*V_orbitals  =       -1983.504533
(Free)Eharris+ p_basis*V_orbitals  =       -1983.504533
     spin moment: S , {S} =   -0.00000       0.0       0.0  -0.00000

siesta: Electric dipole (a.u.)  =   -0.000000   -0.000000   -0.193837
siesta: Electric dipole (Debye) =   -0.000000   -0.000000   -0.492685

dhscf: Vacuum level (max, mean) =    0.243713    0.057715 eV
>> End of run:  10-JUN-2018  22:02:30
Job completed
