Siesta Version: siesta-trunk-479
Architecture  : atto-intel12-openmpi
Compiler flags: /share/apps/openmpi-1.6.5-intel/bin/mpif90 -w  -O2 -mp
PP flags      : -DCDF -DMPI 
PARALLEL version
NetCDF support

* Running on    4 nodes in parallel
>> Start of run:  29-SEP-2015  15:42:16

                           ***********************       
                           *  WELCOME TO SIESTA  *       
                           ***********************       

reinit: Reading from standard input
************************** Dump of input data file ****************************
# Si(100) - asymmetric 2x1 reconstruction
# Correction for slab dipole invoked
# Oscar Paz / Pablo Ordejon
SystemName              Si(100)-2x1 3 layers (H-saturated)
SystemLabel             si2x1h-dipole
NumberOfAtoms           10
NumberOfSpecies 2
%block ChemicalSpeciesLabel
        1       14      Si
        2       1       H
%endblock ChemicalSpeciesLabel
PAO.BasisType           split
PAO.BasisSize            SZ
PAO.EnergyShift 200 meV
PAO.SplitNorm           0.30
LatticeConstant 3.8184 Ang      # a_s = a_0 / sqrt(2) , a_0 = 5.40 Ang
%block LatticeParameters
        1.      2.      3.      90.     90.     90.
%endblock LatticeParameters
AtomicCoordinatesFormat ScaledCartesian
%block AtomicCoordinatesAndAtomicSpecies
   -0.00002372    0.29326368    0.19010387   1  Si        1
    0.00001337    0.85385554    0.02205212   1  Si        2
    0.49997747   -0.00525118    0.33008893   1  Si        3
    0.50001096    0.97940531    0.34402895   1  Si        4
    0.50000000    0.50000000    0.70710000   1  Si        5
    0.50000000    1.50000000    0.70710000   1  Si        6
    0.20200000    0.50000000    0.95470000   2  H         7
    0.79800000    0.50000000    0.95470000   2  H         8
    0.20200000    1.50000000    0.95470000   2  H         9
    0.79800000    1.50000000    0.95470000   2  H        10
%endblock AtomicCoordinatesAndAtomicSpecies
%block GeometryConstraints
        position from 5 to 10
%endblock GeometryConstraints
kgrid_cutoff            5.0 Ang
XC.functional           LDA
XC.authors              PZ
MeshCutoff              50. Ry
DM.MixingWeight 0.1
DM.NumberPulay  3
SolutionMethod  diagon
MD.TypeOfRun            CG
MD.NumCGsteps           0
MD.MaxCGDispl           0.02 Ang
MD.MaxForceTol  0.02 eV/Ang
WriteCoorStep           .true.
WriteForces             .true.
WriteMullikenPop        1
DM.UseSaveDM            .true.
SaveRho                 .true.
SaveDeltaRho            .true.
SaveIonicCharge         .true.
SaveElectrostaticPotential      .true.
SaveTotalPotential      .true.
SlabDipoleCorrection    .true.
************************** End of input data file *****************************

reinit: -----------------------------------------------------------------------
reinit: System Name: Si(100)-2x1 3 layers (H-saturated
reinit: -----------------------------------------------------------------------
reinit: System Label: si2x1h-dipole                                               
reinit: -----------------------------------------------------------------------

initatom: Reading input for the pseudopotentials and atomic orbitals ----------
 Species number:            1  Label: Si Atomic number:          14
 Species number:            2  Label: H Atomic number:           1
Ground state valence configuration:   3s02  3p02
Reading pseudopotential information in formatted form from Si.psf

Valence configuration for pseudopotential generation:
3s( 2.00) rc: 1.89
3p( 2.00) rc: 1.89
3d( 0.00) rc: 1.89
4f( 0.00) rc: 1.89
Ground state valence configuration:   1s01
Reading pseudopotential information in formatted form from H.psf

Valence configuration for pseudopotential generation:
1s( 1.00) rc: 1.25
2p( 0.00) rc: 1.25
3d( 0.00) rc: 1.25
4f( 0.00) rc: 1.25
For Si, standard SIESTA heuristics set lmxkb to 2
 (one more than the basis l, including polarization orbitals).
Use PS.lmax or PS.KBprojectors blocks to override.
For H, standard SIESTA heuristics set lmxkb to 1
 (one more than the basis l, including polarization orbitals).
Use PS.lmax or PS.KBprojectors blocks to override.

<basis_specs>
===============================================================================
Si                   Z=  14    Mass=  28.090        Charge= 0.17977+309
Lmxo=1 Lmxkb= 2    BasisType=split      Semic=F
L=0  Nsemic=0  Cnfigmx=3
          n=1  nzeta=1  polorb=0
            splnorm:   0.30000    
               vcte:    0.0000    
               rinn:    0.0000    
               qcoe:    0.0000    
               qyuk:    0.0000    
               qwid:   0.10000E-01
                rcs:    0.0000    
            lambdas:   1.00000    
L=1  Nsemic=0  Cnfigmx=3
          n=1  nzeta=1  polorb=0
            splnorm:   0.30000    
               vcte:    0.0000    
               rinn:    0.0000    
               qcoe:    0.0000    
               qyuk:    0.0000    
               qwid:   0.10000E-01
                rcs:    0.0000    
            lambdas:   1.00000    
-------------------------------------------------------------------------------
L=0  Nkbl=1  erefs: 0.17977+309
L=1  Nkbl=1  erefs: 0.17977+309
L=2  Nkbl=1  erefs: 0.17977+309
===============================================================================
</basis_specs>

atom: Called for Si                    (Z =  14)

read_vps: Pseudopotential generation method:
read_vps: ATM3      Troullier-Martins                       
Total valence charge:    4.00000

xc_check: Exchange-correlation functional:
xc_check: Ceperley-Alder
V l=0 = -2*Zval/r beyond r=  2.5494
V l=1 = -2*Zval/r beyond r=  2.5494
V l=2 = -2*Zval/r beyond r=  2.5494
All V_l potentials equal beyond r=  1.8652
This should be close to max(r_c) in ps generation
All pots = -2*Zval/r beyond r=  2.5494
Using large-core scheme for Vlocal

atom: Estimated core radius    2.54944

atom: Including non-local core corrections could be a good idea
atom: Maximum radius for 4*pi*r*r*local-pseudopot. charge    2.85303
atom: Maximum radius for r*vlocal+2*Zval:    2.58151
GHOST: No ghost state for L =  0
GHOST: No ghost state for L =  1
GHOST: No ghost state for L =  2

KBgen: Kleinman-Bylander projectors: 
   l= 0   rc=  1.936440   el= -0.796617   Ekb=  4.661340   kbcos=  0.299756
   l= 1   rc=  1.936440   el= -0.307040   Ekb=  1.494238   kbcos=  0.301471
   l= 2   rc=  1.936440   el=  0.002313   Ekb= -2.808672   kbcos= -0.054903

KBgen: Total number of  Kleinman-Bylander projectors:    9
atom: -------------------------------------------------------------------------

atom: SANKEY-TYPE ORBITALS:

SPLIT: Orbitals with angular momentum L= 0

SPLIT: Basis orbitals for state 3s

SPLIT: PAO cut-off radius determined from an
SPLIT: energy shift=  0.014700 Ry

   izeta = 1
                 lambda =    1.000000
                     rc =    5.264094
                 energy =   -0.784048
                kinetic =    0.554443
    potential(screened) =   -1.338491
       potential(ionic) =   -3.803943

SPLIT: Orbitals with angular momentum L= 1

SPLIT: Basis orbitals for state 3p

SPLIT: PAO cut-off radius determined from an
SPLIT: energy shift=  0.014700 Ry

   izeta = 1
                 lambda =    1.000000
                     rc =    6.429618
                 energy =   -0.291747
                kinetic =    0.864936
    potential(screened) =   -1.156682
       potential(ionic) =   -3.408656
atom: Total number of Sankey-type orbitals:  4

atm_pop: Valence configuration (for local Pseudopot. screening):
 3s( 2.00)                                                            
 3p( 2.00)                                                            
Vna: chval, zval:    4.00000   4.00000

Vna:  Cut-off radius for the neutral-atom potential:   6.429618

atom: _________________________________________________________________________

<basis_specs>
===============================================================================
H                    Z=   1    Mass=  1.0100        Charge= 0.17977+309
Lmxo=0 Lmxkb= 1    BasisType=split      Semic=F
L=0  Nsemic=0  Cnfigmx=1
          n=1  nzeta=1  polorb=0
            splnorm:   0.30000    
               vcte:    0.0000    
               rinn:    0.0000    
               qcoe:    0.0000    
               qyuk:    0.0000    
               qwid:   0.10000E-01
                rcs:    0.0000    
            lambdas:   1.00000    
-------------------------------------------------------------------------------
L=0  Nkbl=1  erefs: 0.17977+309
L=1  Nkbl=1  erefs: 0.17977+309
===============================================================================
</basis_specs>

atom: Called for H                     (Z =   1)

read_vps: Pseudopotential generation method:
read_vps: ATM3      Troullier-Martins                       
Total valence charge:    1.00000

xc_check: Exchange-correlation functional:
xc_check: Ceperley-Alder
V l=0 = -2*Zval/r beyond r=  1.2343
V l=1 = -2*Zval/r beyond r=  1.2189
All V_l potentials equal beyond r=  1.2343
This should be close to max(r_c) in ps generation
All pots = -2*Zval/r beyond r=  1.2343

VLOCAL1: 99.0% of the norm of Vloc inside     28.493 Ry
VLOCAL1: 99.9% of the norm of Vloc inside     64.935 Ry
atom: Maximum radius for 4*pi*r*r*local-pseudopot. charge    1.45251
atom: Maximum radius for r*vlocal+2*Zval:    1.21892
GHOST: No ghost state for L =  0
GHOST: No ghost state for L =  1

KBgen: Kleinman-Bylander projectors: 
   l= 0   rc=  1.364359   el= -0.467325   Ekb= -2.005361   kbcos= -0.336422
   l= 1   rc=  1.434438   el=  0.001430   Ekb= -0.501708   kbcos= -0.021697

KBgen: Total number of  Kleinman-Bylander projectors:    4
atom: -------------------------------------------------------------------------

atom: SANKEY-TYPE ORBITALS:

SPLIT: Orbitals with angular momentum L= 0

SPLIT: Basis orbitals for state 1s

SPLIT: PAO cut-off radius determined from an
SPLIT: energy shift=  0.014700 Ry

   izeta = 1
                 lambda =    1.000000
                     rc =    5.075940
                 energy =   -0.454238
                kinetic =    0.905976
    potential(screened) =   -1.360214
       potential(ionic) =   -1.894198
atom: Total number of Sankey-type orbitals:  1

atm_pop: Valence configuration (for local Pseudopot. screening):
 1s( 1.00)                                                            
Vna: chval, zval:    1.00000   1.00000

Vna:  Cut-off radius for the neutral-atom potential:   5.075940

atom: _________________________________________________________________________

prinput: Basis input ----------------------------------------------------------

PAO.BasisType split     

%block ChemicalSpeciesLabel
    1   14 Si                      # Species index, atomic number, species label
    2    1 H                       # Species index, atomic number, species label
%endblock ChemicalSpeciesLabel

%block PAO.Basis                 # Define Basis set
Si                    2                    # Species label, number of l-shells
 n=3   0   1                         # n, l, Nzeta 
   5.264   
   1.000   
 n=3   1   1                         # n, l, Nzeta 
   6.430   
   1.000   
H                     1                    # Species label, number of l-shells
 n=1   0   1                         # n, l, Nzeta 
   5.076   
   1.000   
%endblock PAO.Basis

prinput: ----------------------------------------------------------------------

Dumping basis to NetCDF file Si.ion.nc
Dumping basis to NetCDF file H.ion.nc
coor:   Atomic-coordinates input format  =     Cartesian coordinates
coor:                                          (in units of alat)

siesta: Atomic coordinates (Bohr) and species
siesta:     -0.00017   2.11611   1.37174  1        1
siesta:      0.00010   6.16119   0.15912  1        2
siesta:      3.60770  -0.03789   2.38183  1        3
siesta:      3.60795   7.06713   2.48242  1        4
siesta:      3.60787   3.60787   5.10224  1        5
siesta:      3.60787  10.82360   5.10224  1        6
siesta:      1.45758   3.60787   6.88886  2        7
siesta:      5.75816   3.60787   6.88886  2        8
siesta:      1.45758  10.82360   6.88886  2        9
siesta:      5.75816  10.82360   6.88886  2       10

siesta: System type = slab      

initatomlists: Number of atoms, orbitals, and projectors:     10    28    70

siesta: ******************** Simulation parameters ****************************
siesta:
siesta: The following are some of the parameters of the simulation.
siesta: A complete list of the parameters used, including default values,
siesta: can be found in file out.fdf
siesta:
redata: Non-Collinear-spin run           =     F
redata: SpinPolarized (Up/Down) run      =     F
redata: Number of spin components        =     1
redata: Long output                      =     F
redata: Number of Atomic Species         =        2
redata: Charge density info will appear in .RHO file
redata: Write Mulliken Pop.              =     Atomic and Orbital charges
redata: Mesh Cutoff                      =    50.0000  Ry
redata: Net charge of the system         =     0.0000 |e|
redata: Min. number of SCF Iter          =        0
redata: Max. number of SCF Iter          =       50
redata: Mix DM or H after convergence    =     F
redata: Recompute H after scf cycle      =     F
redata: Performing Pulay mixing using    =     3 iterations
redata: Mix DM in first SCF step ?       =     F
redata: Write Pulay info on disk?        =     F
redata: Discard 1st Pulay DM after  kick =     F
redata: New DM Mixing Weight             =     0.1000
redata: New DM Occupancy tolerance       = 0.000000000001
redata: No kicks to SCF
redata: DM Mixing Weight for Kicks       =     0.5000
redata: DM Tolerance for SCF             =     0.000100
redata: Require (free) Energy convergence in SCF =     F
redata: DM (free)Energy tolerance for SCF =     0.000010 eV
redata: Require Harris convergence for SCF =     F
redata: DM Harris energy tolerance for SCF =     0.000010 eV
redata: Using Saved Data (generic)   =     F
redata: Use continuation files for DM    =     T
redata: Neglect nonoverlap interactions  =     F
redata: Method of Calculation            =     Diagonalization
redata: Divide and Conquer               =     T
redata: Electronic Temperature           =     0.0019  Ry
redata: Fix the spin of the system       =     F
redata: Dynamics option                  =     Single-point calculation
redata: ***********************************************************************
Total number of electrons:    28.000000
Total ionic charge:    28.000000

* ProcessorY, Blocksize:    2   8


* Orbital distribution balance (max,min):     8     4

 Kpoints in:            4 . Kpoints trimmed:            4

siesta: k-grid: Number of k-points =     4
siesta: k-grid: Cutoff (effective) =     5.728 Ang
siesta: k-grid: Supercell and displacements
siesta: k-grid:    3   0   0      0.000
siesta: k-grid:    0   0   1      0.500
siesta: k-grid:    0   2   0      0.000
Naive supercell factors:     5    3    2

superc: Internal auxiliary supercell:     5 x     3 x     2  =      30
superc: Number of atoms, orbitals, and projectors:    300    840   2100

                     ====================================
                        Single-point calculation
                     ====================================

outcoor: Atomic coordinates (scaled):                       
   -0.00002372    0.29326368    0.19010387   1       1  Si
    0.00001337    0.85385554    0.02205212   1       2  Si
    0.49997747   -0.00525118    0.33008893   1       3  Si
    0.50001096    0.97940531    0.34402895   1       4  Si
    0.50000000    0.50000000    0.70710000   1       5  Si
    0.50000000    1.50000000    0.70710000   1       6  Si
    0.20200000    0.50000000    0.95470000   2       7  H
    0.79800000    0.50000000    0.95470000   2       8  H
    0.20200000    1.50000000    0.95470000   2       9  H
    0.79800000    1.50000000    0.95470000   2      10  H

superc: Internal auxiliary supercell:     5 x     3 x     2  =      30
superc: Number of atoms, orbitals, and projectors:    300    840   2100

outcell: Unit cell vectors (Ang):
        3.818400    0.000000    0.000000
        0.000000    7.636800    0.000000
        0.000000    0.000000   11.455200

outcell: Cell vector modules (Ang)   :    3.818400    7.636800   11.455200
outcell: Cell angles (23,13,12) (deg):     90.0000     90.0000     90.0000
outcell: Cell volume (Ang**3)        :    334.0377
New_DM. Step:     1
Initializing Density Matrix...
New grid distribution:   1
           1       1:    9    1:    9    1:   13
           2       1:    9    1:    9   14:   25
           3       1:    9   10:   18    1:   13
           4       1:    9   10:   18   14:   25

InitMesh: MESH =    18 x    36 x    50 =       32400
InitMesh: (bp) =     9 x    18 x    25 =        4050
InitMesh: Mesh cutoff (required, used) =    50.000    52.655 Ry
ExtMesh (bp) on 0 =    45 x    45 x    45 =       91125
New grid distribution:   2
           1       1:    9    1:    8    1:    5
           2       1:    9    1:    8    6:   25
           3       1:    9    9:   18    1:    5
           4       1:    9    9:   18    6:   25
New grid distribution:   3
           1       1:    9    1:    9    1:   10
           2       1:    9    1:    9   11:   25
           3       1:    9   10:   18    1:   10
           4       1:    9   10:   18   11:   25
Setting up quadratic distribution...
ExtMesh (bp) on 0 =    45 x    44 x    37 =       73260
PhiOnMesh: Number of (b)points on node 0 =                  360
PhiOnMesh: nlist on node 0 =                10699

efield: SlabDipoleCorrection = .true. in input file
efield: A dipole layer will be introduced in the vacuum
efield: region to compensate the system dipole
Dipole moment in unit cell   =      0.0000      0.0000     -0.0000 D
Electric field for dipole correction =    0.000000   -0.000000    0.000000 Ry/Bohr/e

stepf: Fermi-Dirac step function

siesta: Program's energy decomposition (eV):
siesta: Ebs     =      -277.609151
siesta: Eions   =      1221.235657
siesta: Ena     =       369.290948
siesta: Ekin    =       281.018022
siesta: Enl     =        93.485096
siesta: DEna    =         0.000002
siesta: DUscf   =         0.000000
siesta: DUext   =         0.000000
siesta: Exc     =      -224.568024
siesta: eta*DQ  =         0.000000
siesta: Emadel  =         0.000000
siesta: Emeta   =         0.000000
siesta: Emolmec =         0.000000
siesta: Ekinion =         0.000000
siesta: Eharris =      -697.274847
siesta: Etot    =      -702.009613
siesta: FreeEng =      -702.009613

   scf: iscf   Eharris(eV)      E_KS(eV)   FreeEng(eV)    dDmax  Ef(eV)
   scf:    1     -697.2748     -702.0096     -702.0096  1.15789 -4.1091
timer: Routine,Calls,Time,% =    IterSCF     1       0.068   8.66
Dipole moment in unit cell   =      0.0000      0.0000     -1.5864 D
Electric field for dipole correction =    0.000000   -0.000000    0.006959 Ry/Bohr/e
   scf:    2     -700.8306     -694.3888     -694.3888  1.35257 -5.8414
Dipole moment in unit cell   =      0.0000      0.0000     -0.9533 D
Electric field for dipole correction =    0.000000   -0.000000    0.004182 Ry/Bohr/e
   scf:    3     -696.3668     -698.0207     -698.0207  0.37740 -4.9428
Dipole moment in unit cell   =      0.0000      0.0000     -1.0949 D
Electric field for dipole correction =    0.000000   -0.000000    0.004803 Ry/Bohr/e
   scf:    4     -696.2588     -697.0392     -697.0392  0.24142 -4.9960
Dipole moment in unit cell   =      0.0000      0.0000     -0.8852 D
Electric field for dipole correction =    0.000000   -0.000000    0.003883 Ry/Bohr/e
   scf:    5     -696.2350     -695.6175     -695.6175  0.18165 -5.0200
Dipole moment in unit cell   =      0.0000      0.0000     -0.6311 D
Electric field for dipole correction =    0.000000   -0.000000    0.002768 Ry/Bohr/e
   scf:    6     -696.1800     -695.3679     -695.3679  0.11936 -4.9160
Dipole moment in unit cell   =      0.0000      0.0000     -0.3330 D
Electric field for dipole correction =    0.000000   -0.000000    0.001460 Ry/Bohr/e
   scf:    7     -696.1176     -695.6780     -695.6780  0.03530 -4.7591
Dipole moment in unit cell   =      0.0000      0.0000     -0.3688 D
Electric field for dipole correction =    0.000000   -0.000000    0.001618 Ry/Bohr/e
   scf:    8     -696.1145     -695.8223     -695.8223  0.02555 -4.8431
Dipole moment in unit cell   =      0.0000      0.0000     -0.4136 D
Electric field for dipole correction =    0.000000   -0.000000    0.001814 Ry/Bohr/e
   scf:    9     -696.1132     -695.9109     -695.9109  0.02471 -4.8365
Dipole moment in unit cell   =      0.0000      0.0000     -0.4435 D
Electric field for dipole correction =    0.000000   -0.000000    0.001945 Ry/Bohr/e
   scf:   10     -696.1126     -695.9740     -695.9740  0.02155 -4.8390
Dipole moment in unit cell   =      0.0000      0.0000     -0.4494 D
Electric field for dipole correction =    0.000000   -0.000000    0.001971 Ry/Bohr/e
   scf:   11     -696.1126     -696.0104     -696.0104  0.01522 -4.8440
Dipole moment in unit cell   =      0.0000      0.0000     -0.4403 D
Electric field for dipole correction =    0.000000   -0.000000    0.001932 Ry/Bohr/e
   scf:   12     -696.1129     -696.0307     -696.0307  0.00801 -4.8470
Dipole moment in unit cell   =      0.0000      0.0000     -0.4350 D
Electric field for dipole correction =    0.000000   -0.000000    0.001908 Ry/Bohr/e
   scf:   13     -696.1128     -696.0331     -696.0331  0.00728 -4.8449
Dipole moment in unit cell   =      0.0000      0.0000     -0.4323 D
Electric field for dipole correction =    0.000000   -0.000000    0.001896 Ry/Bohr/e
   scf:   14     -696.1127     -696.0385     -696.0385  0.00572 -4.8414
Dipole moment in unit cell   =      0.0000      0.0000     -0.4337 D
Electric field for dipole correction =    0.000000   -0.000000    0.001903 Ry/Bohr/e
   scf:   15     -696.1126     -696.0484     -696.0484  0.00429 -4.8401
Dipole moment in unit cell   =      0.0000      0.0000     -0.4369 D
Electric field for dipole correction =    0.000000   -0.000000    0.001916 Ry/Bohr/e
   scf:   16     -696.1126     -696.0656     -696.0656  0.00400 -4.8398
Dipole moment in unit cell   =      0.0000      0.0000     -0.4388 D
Electric field for dipole correction =    0.000000   -0.000000    0.001925 Ry/Bohr/e
   scf:   17     -696.1125     -696.0825     -696.0825  0.00326 -4.8404
Dipole moment in unit cell   =      0.0000      0.0000     -0.4386 D
Electric field for dipole correction =    0.000000   -0.000000    0.001924 Ry/Bohr/e
   scf:   18     -696.1125     -696.0923     -696.0923  0.00228 -4.8409
Dipole moment in unit cell   =      0.0000      0.0000     -0.4379 D
Electric field for dipole correction =    0.000000   -0.000000    0.001921 Ry/Bohr/e
   scf:   19     -696.1126     -696.0975     -696.0975  0.00131 -4.8411
Dipole moment in unit cell   =      0.0000      0.0000     -0.4379 D
Electric field for dipole correction =    0.000000   -0.000000    0.001921 Ry/Bohr/e
   scf:   20     -696.1126     -696.0996     -696.0996  0.00117 -4.8408
Dipole moment in unit cell   =      0.0000      0.0000     -0.4383 D
Electric field for dipole correction =    0.000000   -0.000000    0.001923 Ry/Bohr/e
   scf:   21     -696.1125     -696.1004     -696.1004  0.00105 -4.8404
Dipole moment in unit cell   =      0.0000      0.0000     -0.4384 D
Electric field for dipole correction =    0.000000   -0.000000    0.001923 Ry/Bohr/e
   scf:   22     -696.1125     -696.1015     -696.1015  0.00074 -4.8401
Dipole moment in unit cell   =      0.0000      0.0000     -0.4382 D
Electric field for dipole correction =    0.000000   -0.000000    0.001922 Ry/Bohr/e
   scf:   23     -696.1125     -696.1035     -696.1035  0.00061 -4.8400
Dipole moment in unit cell   =      0.0000      0.0000     -0.4380 D
Electric field for dipole correction =    0.000000   -0.000000    0.001921 Ry/Bohr/e
   scf:   24     -696.1126     -696.1055     -696.1055  0.00054 -4.8401
Dipole moment in unit cell   =      0.0000      0.0000     -0.4381 D
Electric field for dipole correction =    0.000000   -0.000000    0.001922 Ry/Bohr/e
   scf:   25     -696.1125     -696.1078     -696.1078  0.00041 -4.8403
Dipole moment in unit cell   =      0.0000      0.0000     -0.4385 D
Electric field for dipole correction =    0.000000   -0.000000    0.001923 Ry/Bohr/e
   scf:   26     -696.1125     -696.1093     -696.1093  0.00031 -4.8403
Dipole moment in unit cell   =      0.0000      0.0000     -0.4387 D
Electric field for dipole correction =    0.000000   -0.000000    0.001924 Ry/Bohr/e
   scf:   27     -696.1125     -696.1101     -696.1101  0.00024 -4.8402
Dipole moment in unit cell   =      0.0000      0.0000     -0.4387 D
Electric field for dipole correction =    0.000000   -0.000000    0.001924 Ry/Bohr/e
   scf:   28     -696.1125     -696.1103     -696.1103  0.00017 -4.8401
Dipole moment in unit cell   =      0.0000      0.0000     -0.4385 D
Electric field for dipole correction =    0.000000   -0.000000    0.001923 Ry/Bohr/e
   scf:   29     -696.1125     -696.1105     -696.1105  0.00014 -4.8400
Dipole moment in unit cell   =      0.0000      0.0000     -0.4383 D
Electric field for dipole correction =    0.000000   -0.000000    0.001923 Ry/Bohr/e
   scf:   30     -696.1125     -696.1107     -696.1107  0.00011 -4.8401
Dipole moment in unit cell   =      0.0000      0.0000     -0.4384 D
Electric field for dipole correction =    0.000000   -0.000000    0.001923 Ry/Bohr/e
   scf:   31     -696.1125     -696.1111     -696.1111  0.00009 -4.8401

SCF Convergence by dMax criterion
max |DM_out - DM_in|:     0.00009272
SCF cycle converged after   31 iterations

Using DM_out to compute the final energy and forces
Dipole moment in unit cell   =      0.0000      0.0000     -0.4387 D
Electric field for dipole correction =    0.000000   -0.000000    0.001924 Ry/Bohr/e

siesta: E_KS(eV) =             -696.1125

siesta: E_KS - E_eggbox =      -696.1125

siesta: Atomic forces (eV/Ang):
     1   -0.000345   -1.095475   -1.058230
     2   -0.000016    0.987778   -1.747363
     3    0.004426   -0.847238   -0.110559
     4    0.000230    1.464904    0.578039
     5   -0.000108    0.063987    0.093669
     6   -0.000013   -0.630913   -2.701656
     7   -1.635716   -0.052355    1.316266
     8    1.635723   -0.052402    1.316228
     9   -1.652027    0.092189    1.131687
    10    1.652041    0.092282    1.131675
----------------------------------------
   Tot    0.004195    0.022758   -0.050244
----------------------------------------
   Max    2.701656
   Res    1.066574    sqrt( Sum f_i^2 / 3N )
----------------------------------------
   Max    1.747363    constrained

Stress-tensor-Voigt (kbar):     -120.22      -31.35      -50.69        0.02        4.99       -0.02
(Free)E + p*V (eV/cell)     -682.0563
Target enthalpy (eV/cell)     -696.1125
 
mulliken: Atomic and Orbital Populations:

Species: Si                  
Atom  Qatom  Qorb
               3s      3py     3pz     3px     
   1  3.975   1.433   0.925   0.775   0.842
   2  3.978   1.507   0.696   0.980   0.794
   3  4.037   1.395   0.863   0.909   0.870
   4  4.054   1.364   0.888   0.866   0.936
   5  3.848   1.308   0.775   0.852   0.913
   6  3.781   1.281   0.834   0.819   0.847

Species: H                   
Atom  Qatom  Qorb
               1s      
   7  1.085   1.085
   8  1.085   1.085
   9  1.078   1.078
  10  1.078   1.078

mulliken: Qtot =       28.000

siesta: Program's energy decomposition (eV):
siesta: Ebs     =      -300.426704
siesta: Eions   =      1221.235657
siesta: Ena     =       369.290948
siesta: Ekin    =       284.592802
siesta: Enl     =        75.032833
siesta: DEna    =        18.362773
siesta: DUscf   =         1.028010
siesta: DUext   =         0.004519
siesta: Exc     =      -223.188771
siesta: eta*DQ  =         0.000000
siesta: Emadel  =         0.000000
siesta: Emeta   =         0.000000
siesta: Emolmec =         0.000000
siesta: Ekinion =         0.000000
siesta: Eharris =      -696.112547
siesta: Etot    =      -696.112544
siesta: FreeEng =      -696.112544

siesta: Final energy (eV):
siesta:  Band Struct. =    -300.426704
siesta:       Kinetic =     284.592802
siesta:       Hartree =     854.621873
siesta:    Ext. field =       0.004519
siesta:   Exch.-corr. =    -223.188771
siesta:  Ion-electron =   -2003.501493
siesta:       Ion-ion =     391.358526
siesta:       Ekinion =       0.000000
siesta:         Total =    -696.112544

siesta: Atomic forces (eV/Ang):
siesta:      1   -0.000345   -1.095475   -1.058230
siesta:      2   -0.000016    0.987778   -1.747363
siesta:      3    0.004426   -0.847238   -0.110559
siesta:      4    0.000230    1.464904    0.578039
siesta:      5   -0.000108    0.063987    0.093669
siesta:      6   -0.000013   -0.630913   -2.701656
siesta:      7   -1.635716   -0.052355    1.316266
siesta:      8    1.635723   -0.052402    1.316228
siesta:      9   -1.652027    0.092189    1.131687
siesta:     10    1.652041    0.092282    1.131675
siesta: ----------------------------------------
siesta:    Tot    0.004195    0.022758   -0.050244

siesta: Constrained forces (eV/Ang):
siesta:      1   -0.000345   -1.095475   -1.058230
siesta:      2   -0.000016    0.987778   -1.747363
siesta:      3    0.004426   -0.847238   -0.110559
siesta:      4    0.000230    1.464904    0.578039
siesta:      5    0.000000    0.000000    0.000000
siesta:      6    0.000000    0.000000    0.000000
siesta:      7    0.000000    0.000000    0.000000
siesta:      8    0.000000    0.000000    0.000000
siesta:      9    0.000000    0.000000    0.000000
siesta:     10    0.000000    0.000000    0.000000
siesta: ----------------------------------------
siesta:  Tot    0.004295    0.509969   -2.338113

siesta: Stress tensor (static) (eV/Ang**3):
siesta:    -0.075035    0.000014   -0.000011
siesta:     0.000014   -0.019566    0.003115
siesta:    -0.000011    0.003115   -0.031638

siesta: Cell volume =        334.037723 Ang**3

siesta: Pressure (static):
siesta:                Solid            Molecule  Units
siesta:           0.00045830          0.00020946  Ry/Bohr**3
siesta:           0.04207984          0.01923191  eV/Ang**3
siesta:          67.42007213         30.81325185  kBar
(Free)E+ p_basis*V_orbitals  =        -693.793352
(Free)Eharris+ p_basis*V_orbitals  =        -693.793356

siesta: Electric dipole (a.u.)  =    0.000000    0.000000   -0.172598
siesta: Electric dipole (Debye) =    0.000000    0.000000   -0.438701
Dipole moment in unit cell   =      0.0000      0.0000     -0.4387 D
Electric field for dipole correction =    0.000000   -0.000000    0.001924 Ry/Bohr/e

dhscf: Vacuum level (max, mean) =    0.979219    0.504578 eV
>> End of run:  29-SEP-2015  15:42:18
