Siesta Version: siesta-trunk-479
Architecture  : atto-intel12-openmpi
Compiler flags: /share/apps/openmpi-1.6.5-intel/bin/mpif90 -w  -O2 -mp
PP flags      : -DCDF -DMPI 
PARALLEL version
NetCDF support

* Running on    4 nodes in parallel
>> Start of run:  29-SEP-2015  15:42:19

                           ***********************       
                           *  WELCOME TO SIESTA  *       
                           ***********************       

reinit: Reading from standard input
************************** Dump of input data file ****************************
# Si(100) - asymmetric 2x1 reconstruction
# Oscar Paz
SystemName              Si(100)-2x1 3 layers (H-saturated)
SystemLabel             si2x1h
NumberOfAtoms           10
NumberOfSpecies 2
%block ChemicalSpeciesLabel
        1       14      Si
        2       1       H
%endblock ChemicalSpeciesLabel
PAO.BasisType           split
PAO.BasisSize           DZP
PAO.EnergyShift 200 meV
PAO.SplitNorm           0.30
LatticeConstant 3.8184 Ang      # a_s = a_0 / sqrt(2) , a_0 = 5.40 Ang
%block LatticeParameters
        1.      2.      3.      90.     90.     90.
%endblock LatticeParameters
AtomicCoordinatesFormat ScaledCartesian
%block AtomicCoordinatesAndAtomicSpecies
   -0.00002372    0.29326368    0.19010387   1  Si        1
    0.00001337    0.85385554    0.02205212   1  Si        2
    0.49997747   -0.00525118    0.33008893   1  Si        3
    0.50001096    0.97940531    0.34402895   1  Si        4
    0.50000000    0.50000000    0.70710000   1  Si        5
    0.50000000    1.50000000    0.70710000   1  Si        6
    0.20200000    0.50000000    0.95470000   2  H         7
    0.79800000    0.50000000    0.95470000   2  H         8
    0.20200000    1.50000000    0.95470000   2  H         9
    0.79800000    1.50000000    0.95470000   2  H        10
%endblock AtomicCoordinatesAndAtomicSpecies
%block GeometryConstraints
        position from 5 to 10
%endblock GeometryConstraints
kgrid_cutoff            5.0 Ang
XC.functional           LDA
XC.authors              PZ
MeshCutoff              10. Ry
DM.MixingWeight 0.1
DM.NumberPulay  3
SolutionMethod  diagon
MD.TypeOfRun            CG
MD.NumCGsteps           50
MD.MaxCGDispl           0.02 Ang
MD.MaxForceTol  0.02 eV/Ang
WriteCoorStep           .true.
WriteForces             .true.
WriteMullikenPop        1
WriteCoorXmol           .true.
WriteMDXmol             .true.
WriteMDhistory          .true.
DM.UseSaveDM            .true.
MD.UseSaveXV            .true.
MD.UseSaveCG            .true.
SaveRho                 .true.
SaveDeltaRho            .true.
SaveIonicCharge         .true.
SaveElectrostaticPotential      .true.
SaveTotalPotential      .true.
************************** End of input data file *****************************

reinit: -----------------------------------------------------------------------
reinit: System Name: Si(100)-2x1 3 layers (H-saturated
reinit: -----------------------------------------------------------------------
reinit: System Label: si2x1h                                                      
reinit: -----------------------------------------------------------------------

initatom: Reading input for the pseudopotentials and atomic orbitals ----------
 Species number:            1  Label: Si Atomic number:          14
 Species number:            2  Label: H Atomic number:           1
Ground state valence configuration:   3s02  3p02
Reading pseudopotential information in formatted form from Si.psf

Valence configuration for pseudopotential generation:
3s( 2.00) rc: 1.89
3p( 2.00) rc: 1.89
3d( 0.00) rc: 1.89
4f( 0.00) rc: 1.89
Ground state valence configuration:   1s01
Reading pseudopotential information in formatted form from H.psf

Valence configuration for pseudopotential generation:
1s( 1.00) rc: 1.25
2p( 0.00) rc: 1.25
3d( 0.00) rc: 1.25
4f( 0.00) rc: 1.25
For Si, standard SIESTA heuristics set lmxkb to 3
 (one more than the basis l, including polarization orbitals).
Use PS.lmax or PS.KBprojectors blocks to override.
For H, standard SIESTA heuristics set lmxkb to 2
 (one more than the basis l, including polarization orbitals).
Use PS.lmax or PS.KBprojectors blocks to override.

<basis_specs>
===============================================================================
Si                   Z=  14    Mass=  28.090        Charge= 0.17977+309
Lmxo=1 Lmxkb= 3    BasisType=split      Semic=F
L=0  Nsemic=0  Cnfigmx=3
          n=1  nzeta=2  polorb=0
            splnorm:   0.30000    
               vcte:    0.0000    
               rinn:    0.0000    
               qcoe:    0.0000    
               qyuk:    0.0000    
               qwid:   0.10000E-01
                rcs:    0.0000      0.0000    
            lambdas:   1.00000     1.00000    
L=1  Nsemic=0  Cnfigmx=3
          n=1  nzeta=2  polorb=1
            splnorm:   0.30000    
               vcte:    0.0000    
               rinn:    0.0000    
               qcoe:    0.0000    
               qyuk:    0.0000    
               qwid:   0.10000E-01
                rcs:    0.0000      0.0000    
            lambdas:   1.00000     1.00000    
-------------------------------------------------------------------------------
L=0  Nkbl=1  erefs: 0.17977+309
L=1  Nkbl=1  erefs: 0.17977+309
L=2  Nkbl=1  erefs: 0.17977+309
L=3  Nkbl=1  erefs: 0.17977+309
===============================================================================
</basis_specs>

atom: Called for Si                    (Z =  14)

read_vps: Pseudopotential generation method:
read_vps: ATM3      Troullier-Martins                       
Total valence charge:    4.00000

xc_check: Exchange-correlation functional:
xc_check: Ceperley-Alder
V l=0 = -2*Zval/r beyond r=  2.5494
V l=1 = -2*Zval/r beyond r=  2.5494
V l=2 = -2*Zval/r beyond r=  2.5494
V l=3 = -2*Zval/r beyond r=  2.5494
All V_l potentials equal beyond r=  1.8652
This should be close to max(r_c) in ps generation
All pots = -2*Zval/r beyond r=  2.5494
Using large-core scheme for Vlocal

atom: Estimated core radius    2.54944

atom: Including non-local core corrections could be a good idea
atom: Maximum radius for 4*pi*r*r*local-pseudopot. charge    2.85303
atom: Maximum radius for r*vlocal+2*Zval:    2.58151
GHOST: No ghost state for L =  0
GHOST: No ghost state for L =  1
GHOST: No ghost state for L =  2
GHOST: No ghost state for L =  3

KBgen: Kleinman-Bylander projectors: 
   l= 0   rc=  1.936440   el= -0.796617   Ekb=  4.661340   kbcos=  0.299756
   l= 1   rc=  1.936440   el= -0.307040   Ekb=  1.494238   kbcos=  0.301471
   l= 2   rc=  1.936440   el=  0.002313   Ekb= -2.808672   kbcos= -0.054903
   l= 3   rc=  1.936440   el=  0.003402   Ekb= -0.959059   kbcos= -0.005513

KBgen: Total number of  Kleinman-Bylander projectors:   16
atom: -------------------------------------------------------------------------

atom: SANKEY-TYPE ORBITALS:
atom: Selected multiple-zeta basis: split     

SPLIT: Orbitals with angular momentum L= 0

SPLIT: Basis orbitals for state 3s

SPLIT: PAO cut-off radius determined from an
SPLIT: energy shift=  0.014700 Ry

   izeta = 1
                 lambda =    1.000000
                     rc =    5.264094
                 energy =   -0.784048
                kinetic =    0.554443
    potential(screened) =   -1.338491
       potential(ionic) =   -3.803943

   izeta = 2
                 rmatch =    3.899691
              splitnorm =    0.300000
                 energy =   -0.557333
                kinetic =    1.099884
    potential(screened) =   -1.657217
       potential(ionic) =   -4.272900

SPLIT: Orbitals with angular momentum L= 1

SPLIT: Basis orbitals for state 3p

SPLIT: PAO cut-off radius determined from an
SPLIT: energy shift=  0.014700 Ry

   izeta = 1
                 lambda =    1.000000
                     rc =    6.429618
                 energy =   -0.291747
                kinetic =    0.864936
    potential(screened) =   -1.156682
       potential(ionic) =   -3.408656

   izeta = 2
                 rmatch =    4.309843
              splitnorm =    0.300000
                 energy =   -0.094863
                kinetic =    1.512251
    potential(screened) =   -1.607114
       potential(ionic) =   -4.136814

POLgen: Perturbative polarization orbital with L=  2

POLgen: Polarization orbital for state 3p

   izeta = 1
                     rc =    6.429618
                 energy =    0.416453
                kinetic =    1.265989
    potential(screened) =   -0.849535
       potential(ionic) =   -2.900468
atom: Total number of Sankey-type orbitals: 13

atm_pop: Valence configuration (for local Pseudopot. screening):
 3s( 2.00)                                                            
 3p( 2.00)                                                            
Vna: chval, zval:    4.00000   4.00000

Vna:  Cut-off radius for the neutral-atom potential:   6.429618

atom: _________________________________________________________________________

<basis_specs>
===============================================================================
H                    Z=   1    Mass=  1.0100        Charge= 0.17977+309
Lmxo=0 Lmxkb= 2    BasisType=split      Semic=F
L=0  Nsemic=0  Cnfigmx=1
          n=1  nzeta=2  polorb=1
            splnorm:   0.30000    
               vcte:    0.0000    
               rinn:    0.0000    
               qcoe:    0.0000    
               qyuk:    0.0000    
               qwid:   0.10000E-01
                rcs:    0.0000      0.0000    
            lambdas:   1.00000     1.00000    
-------------------------------------------------------------------------------
L=0  Nkbl=1  erefs: 0.17977+309
L=1  Nkbl=1  erefs: 0.17977+309
L=2  Nkbl=1  erefs: 0.17977+309
===============================================================================
</basis_specs>

atom: Called for H                     (Z =   1)

read_vps: Pseudopotential generation method:
read_vps: ATM3      Troullier-Martins                       
Total valence charge:    1.00000

xc_check: Exchange-correlation functional:
xc_check: Ceperley-Alder
V l=0 = -2*Zval/r beyond r=  1.2343
V l=1 = -2*Zval/r beyond r=  1.2189
V l=2 = -2*Zval/r beyond r=  1.2189
All V_l potentials equal beyond r=  1.2343
This should be close to max(r_c) in ps generation
All pots = -2*Zval/r beyond r=  1.2343

VLOCAL1: 99.0% of the norm of Vloc inside     28.493 Ry
VLOCAL1: 99.9% of the norm of Vloc inside     64.935 Ry
atom: Maximum radius for 4*pi*r*r*local-pseudopot. charge    1.45251
atom: Maximum radius for r*vlocal+2*Zval:    1.21892
GHOST: No ghost state for L =  0
GHOST: No ghost state for L =  1
GHOST: No ghost state for L =  2

KBgen: Kleinman-Bylander projectors: 
   l= 0   rc=  1.364359   el= -0.467325   Ekb= -2.005361   kbcos= -0.336422
   l= 1   rc=  1.434438   el=  0.001430   Ekb= -0.501708   kbcos= -0.021697
   l= 2   rc=  1.470814   el=  0.002365   Ekb= -0.190555   kbcos= -0.002281

KBgen: Total number of  Kleinman-Bylander projectors:    9
atom: -------------------------------------------------------------------------

atom: SANKEY-TYPE ORBITALS:
atom: Selected multiple-zeta basis: split     

SPLIT: Orbitals with angular momentum L= 0

SPLIT: Basis orbitals for state 1s

SPLIT: PAO cut-off radius determined from an
SPLIT: energy shift=  0.014700 Ry

   izeta = 1
                 lambda =    1.000000
                     rc =    5.075940
                 energy =   -0.454238
                kinetic =    0.905976
    potential(screened) =   -1.360214
       potential(ionic) =   -1.894198

   izeta = 2
                 rmatch =    3.195439
              splitnorm =    0.300000
                 energy =   -0.202816
                kinetic =    1.888421
    potential(screened) =   -2.091238
       potential(ionic) =   -2.676134

POLgen: Perturbative polarization orbital with L=  1

POLgen: Polarization orbital for state 1s

   izeta = 1
                     rc =    5.075940
                 energy =    0.658058
                kinetic =    1.324347
    potential(screened) =   -0.666290
       potential(ionic) =   -1.141575
atom: Total number of Sankey-type orbitals:  5

atm_pop: Valence configuration (for local Pseudopot. screening):
 1s( 1.00)                                                            
Vna: chval, zval:    1.00000   1.00000

Vna:  Cut-off radius for the neutral-atom potential:   5.075940

atom: _________________________________________________________________________

prinput: Basis input ----------------------------------------------------------

PAO.BasisType split     

%block ChemicalSpeciesLabel
    1   14 Si                      # Species index, atomic number, species label
    2    1 H                       # Species index, atomic number, species label
%endblock ChemicalSpeciesLabel

%block PAO.Basis                 # Define Basis set
Si                    2                    # Species label, number of l-shells
 n=3   0   2                         # n, l, Nzeta 
   5.264      3.900   
   1.000      1.000   
 n=3   1   2 P   1                   # n, l, Nzeta, Polarization, NzetaPol
   6.430      4.310   
   1.000      1.000   
H                     1                    # Species label, number of l-shells
 n=1   0   2 P   1                   # n, l, Nzeta, Polarization, NzetaPol
   5.076      3.195   
   1.000      1.000   
%endblock PAO.Basis

prinput: ----------------------------------------------------------------------

Dumping basis to NetCDF file Si.ion.nc
Dumping basis to NetCDF file H.ion.nc
coor:   Atomic-coordinates input format  =     Cartesian coordinates
coor:                                          (in units of alat)

siesta: WARNING: XV file not found

siesta: Atomic coordinates (Bohr) and species
siesta:     -0.00017   2.11611   1.37174  1        1
siesta:      0.00010   6.16119   0.15912  1        2
siesta:      3.60770  -0.03789   2.38183  1        3
siesta:      3.60795   7.06713   2.48242  1        4
siesta:      3.60787   3.60787   5.10224  1        5
siesta:      3.60787  10.82360   5.10224  1        6
siesta:      1.45758   3.60787   6.88886  2        7
siesta:      5.75816   3.60787   6.88886  2        8
siesta:      1.45758  10.82360   6.88886  2        9
siesta:      5.75816  10.82360   6.88886  2       10

siesta: System type = slab      

initatomlists: Number of atoms, orbitals, and projectors:     10    98   132

coxmol: Writing XMOL coordinates into file si2x1h.xyz                                                      

siesta: ******************** Simulation parameters ****************************
siesta:
siesta: The following are some of the parameters of the simulation.
siesta: A complete list of the parameters used, including default values,
siesta: can be found in file out.fdf
siesta:
redata: Non-Collinear-spin run           =     F
redata: SpinPolarized (Up/Down) run      =     F
redata: Number of spin components        =     1
redata: Long output                      =     F
redata: Number of Atomic Species         =        2
redata: Charge density info will appear in .RHO file
redata: Write Mulliken Pop.              =     Atomic and Orbital charges
redata: Mesh Cutoff                      =    10.0000  Ry
redata: Net charge of the system         =     0.0000 |e|
redata: Min. number of SCF Iter          =        0
redata: Max. number of SCF Iter          =       50
redata: Mix DM or H after convergence    =     F
redata: Recompute H after scf cycle      =     F
redata: Performing Pulay mixing using    =     3 iterations
redata: Mix DM in first SCF step ?       =     F
redata: Write Pulay info on disk?        =     F
redata: Discard 1st Pulay DM after  kick =     F
redata: New DM Mixing Weight             =     0.1000
redata: New DM Occupancy tolerance       = 0.000000000001
redata: No kicks to SCF
redata: DM Mixing Weight for Kicks       =     0.5000
redata: DM Tolerance for SCF             =     0.000100
redata: Require (free) Energy convergence in SCF =     F
redata: DM (free)Energy tolerance for SCF =     0.000010 eV
redata: Require Harris convergence for SCF =     F
redata: DM Harris energy tolerance for SCF =     0.000010 eV
redata: Using Saved Data (generic)   =     F
redata: Use continuation files for DM    =     T
redata: Neglect nonoverlap interactions  =     F
redata: Method of Calculation            =     Diagonalization
redata: Divide and Conquer               =     T
redata: Electronic Temperature           =     0.0019  Ry
redata: Fix the spin of the system       =     F
redata: Dynamics option                  =     CG coord. optimization
redata: Variable cell                    =     F
redata: Use continuation files for CG    =     T
redata: Max atomic displ per move        =     0.0378  Bohr
redata: Maximum number of CG moves       =       50
redata: Force tolerance                  =     0.0008  Ry/Bohr
redata: ***********************************************************************
Total number of electrons:    28.000000
Total ionic charge:    28.000000

* ProcessorY, Blocksize:    2  24


* Orbital distribution balance (max,min):    26    24

 Kpoints in:            4 . Kpoints trimmed:            4

siesta: k-grid: Number of k-points =     4
siesta: k-grid: Cutoff (effective) =     5.728 Ang
siesta: k-grid: Supercell and displacements
siesta: k-grid:    3   0   0      0.000
siesta: k-grid:    0   0   1      0.500
siesta: k-grid:    0   2   0      0.000
Naive supercell factors:     5    3    2

superc: Internal auxiliary supercell:     5 x     3 x     2  =      30
superc: Number of atoms, orbitals, and projectors:    300   2940   3960

                     ====================================
                        Begin CG opt. move =      0
                     ====================================

outcoor: Atomic coordinates (scaled):                       
   -0.00002372    0.29326368    0.19010387   1       1  Si
    0.00001337    0.85385554    0.02205212   1       2  Si
    0.49997747   -0.00525118    0.33008893   1       3  Si
    0.50001096    0.97940531    0.34402895   1       4  Si
    0.50000000    0.50000000    0.70710000   1       5  Si
    0.50000000    1.50000000    0.70710000   1       6  Si
    0.20200000    0.50000000    0.95470000   2       7  H
    0.79800000    0.50000000    0.95470000   2       8  H
    0.20200000    1.50000000    0.95470000   2       9  H
    0.79800000    1.50000000    0.95470000   2      10  H

superc: Internal auxiliary supercell:     5 x     3 x     2  =      30
superc: Number of atoms, orbitals, and projectors:    300   2940   3960

outcell: Unit cell vectors (Ang):
        3.818400    0.000000    0.000000
        0.000000    7.636800    0.000000
        0.000000    0.000000   11.455200

outcell: Cell vector modules (Ang)   :    3.818400    7.636800   11.455200
outcell: Cell angles (23,13,12) (deg):     90.0000     90.0000     90.0000
outcell: Cell volume (Ang**3)        :    334.0377
New_DM. Step:     1
Initializing Density Matrix...
New grid distribution:   1
           1       1:    4    1:    4    1:    6
           2       1:    4    1:    4    7:   12
           3       1:    4    5:    8    1:    6
           4       1:    4    5:    8    7:   12

InitMesh: MESH =     8 x    16 x    24 =        3072
InitMesh: (bp) =     4 x     8 x    12 =         384
InitMesh: Mesh cutoff (required, used) =    10.000    12.132 Ry
ExtMesh (bp) on 0 =    20 x    20 x    22 =        8800
New grid distribution:   2
           1       1:    4    1:    3    1:    3
           2       1:    4    1:    3    4:   12
           3       1:    4    4:    8    1:    3
           4       1:    4    4:    8    4:   12
New grid distribution:   3
           1       1:    4    1:    4    1:    5
           2       1:    4    1:    4    6:   12
           3       1:    4    5:    8    1:    5
           4       1:    4    5:    8    6:   12
Setting up quadratic distribution...
ExtMesh (bp) on 0 =    20 x    19 x    19 =        7220
PhiOnMesh: Number of (b)points on node 0 =                   36
PhiOnMesh: nlist on node 0 =                 3428

stepf: Fermi-Dirac step function

siesta: Program's energy decomposition (eV):
siesta: Ebs     =      -285.539211
siesta: Eions   =      1221.235657
siesta: Ena     =       369.290948
siesta: Ekin    =       281.018022
siesta: Enl     =        93.471874
siesta: DEna    =         0.000002
siesta: DUscf   =         0.000000
siesta: DUext   =         0.000000
siesta: Exc     =      -224.373704
siesta: eta*DQ  =         0.000000
siesta: Emadel  =         0.000000
siesta: Emeta   =         0.000000
siesta: Emolmec =         0.000000
siesta: Ekinion =         0.000000
siesta: Eharris =      -705.079895
siesta: Etot    =      -701.828515
siesta: FreeEng =      -701.828515

   scf: iscf   Eharris(eV)      E_KS(eV)   FreeEng(eV)    dDmax  Ef(eV)
   scf:    1     -705.0799     -701.8285     -701.8285  1.77464 -4.5906
timer: Routine,Calls,Time,% =    IterSCF     1       0.130   4.61
   scf:    2     -707.4004     -702.2588     -702.2623  0.30850 -4.3325
   scf:    3     -704.0993     -702.6293     -702.6293  0.18813 -4.4238
   scf:    4     -703.8797     -702.7362     -702.7362  0.07784 -4.3178
   scf:    5     -703.7227     -702.8876     -702.8876  0.07572 -4.2233
   scf:    6     -703.6564     -703.1863     -703.1863  0.02671 -4.1656
   scf:    7     -703.6528     -703.2872     -703.2872  0.01699 -4.1792
   scf:    8     -703.6429     -703.4431     -703.4431  0.02087 -4.2167
   scf:    9     -703.6418     -703.4750     -703.4750  0.01862 -4.2245
   scf:   10     -703.6423     -703.5427     -703.5427  0.00945 -4.2371
   scf:   11     -703.6420     -703.5629     -703.5629  0.00582 -4.2343
   scf:   12     -703.6416     -703.5753     -703.5753  0.00520 -4.2294
   scf:   13     -703.6414     -703.5855     -703.5855  0.00307 -4.2243
   scf:   14     -703.6414     -703.5942     -703.5942  0.00261 -4.2244
   scf:   15     -703.6413     -703.6099     -703.6099  0.00249 -4.2291
   scf:   16     -703.6413     -703.6156     -703.6156  0.00230 -4.2313
   scf:   17     -703.6413     -703.6262     -703.6262  0.00137 -4.2342
   scf:   18     -703.6413     -703.6297     -703.6297  0.00089 -4.2337
   scf:   19     -703.6413     -703.6327     -703.6327  0.00053 -4.2319
   scf:   20     -703.6413     -703.6338     -703.6338  0.00046 -4.2309
   scf:   21     -703.6413     -703.6348     -703.6348  0.00038 -4.2308
   scf:   22     -703.6413     -703.6361     -703.6361  0.00036 -4.2317
   scf:   23     -703.6413     -703.6370     -703.6370  0.00033 -4.2322
   scf:   24     -703.6413     -703.6388     -703.6388  0.00020 -4.2325
   scf:   25     -703.6413     -703.6394     -703.6394  0.00015 -4.2324
   scf:   26     -703.6413     -703.6400     -703.6400  0.00009 -4.2320

SCF Convergence by dMax criterion
max |DM_out - DM_in|:     0.00008502
SCF cycle converged after   26 iterations

Using DM_out to compute the final energy and forces

siesta: E_KS(eV) =             -703.6413

siesta: E_KS - E_eggbox =      -703.6413

siesta: Atomic forces (eV/Ang):
     1   -0.000501   -0.046247    0.021353
     2    0.000224   -0.069348    0.036528
     3   -0.000537    0.084772    0.005441
     4    0.000233    0.034766    0.070177
     5   -0.000065    0.119982    0.323656
     6   -0.000026   -0.445748   -0.991832
     7    2.228824   -0.104741    0.974289
     8   -2.228802   -0.104772    0.974244
     9    2.323403    0.081449    0.667827
    10   -2.323391    0.081532    0.667805
----------------------------------------
   Tot   -0.000638   -0.368355    2.749489
----------------------------------------
   Max    2.323403
   Res    0.910692    sqrt( Sum f_i^2 / 3N )
----------------------------------------
   Max    0.084772    constrained

Stress-tensor-Voigt (kbar):      -62.66       -7.96       18.86        0.00        2.50        0.00
(Free)E + p*V (eV/cell)     -700.0444
Target enthalpy (eV/cell)     -703.6413
 
mulliken: Atomic and Orbital Populations:

Species: Si                  
Atom  Qatom  Qorb
               3s      3s      3py     3pz     3px     3py     3pz     3px     
               3Pdxy   3Pdyz   3Pdz2   3Pdxz   3Pdx2-y2
   1  3.922   0.822   0.374   0.555   0.567   0.520   0.262   0.098   0.220
              0.161   0.077   0.049   0.105   0.110
   2  4.250   0.903   0.329   0.789   0.983   0.732   0.062   0.028   0.121
              0.057   0.044   0.034   0.072   0.095
   3  3.976   0.761   0.356   0.595   0.743   0.556   0.192   0.146   0.227
              0.104   0.091   0.047   0.049   0.108
   4  3.863   0.747   0.358   0.561   0.614   0.492   0.205   0.200   0.259
              0.066   0.092   0.057   0.109   0.103
   5  3.859   0.622   0.410   0.635   0.542   0.572   0.121   0.226   0.224
              0.044   0.077   0.035   0.228   0.122
   6  3.872   0.632   0.386   0.721   0.641   0.694   0.111   0.175   0.178
              0.036   0.082   0.027   0.107   0.083

Species: H                   
Atom  Qatom  Qorb
               1s      1s      1Ppy    1Ppz    1Ppx    
   7  1.076   0.541   0.418   0.012   0.015   0.090
   8  1.076   0.541   0.418   0.012   0.015   0.090
   9  1.053   0.490   0.447   0.013   0.014   0.089
  10  1.053   0.490   0.447   0.013   0.014   0.089

mulliken: Qtot =       28.000

cgvc: WARNING: CG file not found

                     ====================================
                        Begin CG opt. move =      1
                     ====================================

outcoor: Atomic coordinates (scaled):                       
   -0.00004136    0.29163380    0.19085640   1       1  Si
    0.00002128    0.85141153    0.02333947   1       2  Si
    0.49995854   -0.00226360    0.33028069   1       3  Si
    0.50001917    0.98063055    0.34650216   1       4  Si
    0.50000000    0.50000000    0.70710000   1       5  Si
    0.50000000    1.50000000    0.70710000   1       6  Si
    0.20200000    0.50000000    0.95470000   2       7  H
    0.79800000    0.50000000    0.95470000   2       8  H
    0.20200000    1.50000000    0.95470000   2       9  H
    0.79800000    1.50000000    0.95470000   2      10  H

superc: Internal auxiliary supercell:     5 x     3 x     2  =      30
superc: Number of atoms, orbitals, and projectors:    300   2940   3960

outcell: Unit cell vectors (Ang):
        3.818400    0.000000    0.000000
        0.000000    7.636800    0.000000
        0.000000    0.000000   11.455200

outcell: Cell vector modules (Ang)   :    3.818400    7.636800   11.455200
outcell: Cell angles (23,13,12) (deg):     90.0000     90.0000     90.0000
outcell: Cell volume (Ang**3)        :    334.0377
New_DM. Step:     2
Re-using DM from previous geometry...
Re-using DM without extrapolation (not allowed)
New grid distribution:   1
           1       1:    4    1:    4    1:    6
           2       1:    4    1:    4    7:   12
           3       1:    4    5:    8    1:    6
           4       1:    4    5:    8    7:   12

InitMesh: MESH =     8 x    16 x    24 =        3072
InitMesh: (bp) =     4 x     8 x    12 =         384
InitMesh: Mesh cutoff (required, used) =    10.000    12.132 Ry
ExtMesh (bp) on 0 =    20 x    20 x    22 =        8800
New grid distribution:   2
           1       1:    4    1:    3    1:    3
           2       1:    4    1:    3    4:   12
           3       1:    4    4:    8    1:    3
           4       1:    4    4:    8    4:   12
New grid distribution:   3
           1       1:    4    1:    4    1:    5
           2       1:    4    1:    4    6:   12
           3       1:    4    5:    8    1:    5
           4       1:    4    5:    8    6:   12
Setting up quadratic distribution...
ExtMesh (bp) on 0 =    20 x    19 x    19 =        7220
PhiOnMesh: Number of (b)points on node 0 =                   36
PhiOnMesh: nlist on node 0 =                 3417

   scf: iscf   Eharris(eV)      E_KS(eV)   FreeEng(eV)    dDmax  Ef(eV)
   scf:    1     -703.6429     -703.6705     -703.6705  0.00949 -4.2348
   scf:    2     -703.6729     -703.6347     -703.6347  0.08449 -4.2645
   scf:    3     -703.6414     -703.6631     -703.6631  0.00489 -4.2391
   scf:    4     -703.6414     -703.6481     -703.6481  0.00356 -4.2387
   scf:    5     -703.6414     -703.6423     -703.6423  0.00087 -4.2397
   scf:    6     -703.6413     -703.6418     -703.6418  0.00081 -4.2375
   scf:    7     -703.6413     -703.6419     -703.6419  0.00023 -4.2390
   scf:    8     -703.6413     -703.6419     -703.6419  0.00015 -4.2394
   scf:    9     -703.6413     -703.6419     -703.6419  0.00012 -4.2397
   scf:   10     -703.6413     -703.6418     -703.6418  0.00009 -4.2395

SCF Convergence by dMax criterion
max |DM_out - DM_in|:     0.00009256
SCF cycle converged after   10 iterations

Using DM_out to compute the final energy and forces

siesta: E_KS(eV) =             -703.6413

siesta: Atomic forces (eV/Ang):
     1   -0.001490    0.058597   -0.023246
     2    0.000450    0.082218    0.030871
     3   -0.000862   -0.107140    0.067230
     4    0.000315   -0.023780   -0.082069
     5   -0.000127    0.153827    0.376058
     6   -0.000061   -0.354685   -0.994528
     7    2.232182   -0.108676    0.976109
     8   -2.232135   -0.108726    0.976019
     9    2.325136    0.080799    0.669015
    10   -2.325109    0.080948    0.668972
----------------------------------------
   Tot   -0.001700   -0.246618    2.664430
----------------------------------------
   Max    2.325136
   Res    0.911585    sqrt( Sum f_i^2 / 3N )
----------------------------------------
   Max    0.107140    constrained

Stress-tensor-Voigt (kbar):      -63.47      -11.20       18.18        0.00        3.13        0.00
(Free)E + p*V (eV/cell)     -699.7159
Target enthalpy (eV/cell)     -703.6413
 
mulliken: Atomic and Orbital Populations:

Species: Si                  
Atom  Qatom  Qorb
               3s      3s      3py     3pz     3px     3py     3pz     3px     
               3Pdxy   3Pdyz   3Pdz2   3Pdxz   3Pdx2-y2
   1  3.920   0.817   0.376   0.552   0.566   0.514   0.265   0.099   0.226
              0.161   0.078   0.049   0.106   0.112
   2  4.251   0.906   0.327   0.793   0.980   0.734   0.063   0.028   0.119
              0.056   0.044   0.034   0.072   0.094
   3  3.974   0.753   0.360   0.596   0.742   0.548   0.193   0.147   0.232
              0.105   0.091   0.047   0.050   0.110
   4  3.864   0.747   0.358   0.562   0.615   0.494   0.205   0.200   0.257
              0.066   0.092   0.056   0.108   0.103
   5  3.861   0.620   0.411   0.633   0.541   0.571   0.123   0.227   0.224
              0.044   0.077   0.036   0.228   0.123
   6  3.873   0.631   0.386   0.718   0.645   0.694   0.112   0.174   0.178
              0.036   0.082   0.027   0.107   0.083

Species: H                   
Atom  Qatom  Qorb
               1s      1s      1Ppy    1Ppz    1Ppx    
   7  1.076   0.541   0.418   0.012   0.015   0.090
   8  1.076   0.541   0.418   0.012   0.015   0.090
   9  1.053   0.489   0.448   0.012   0.014   0.089
  10  1.053   0.489   0.448   0.012   0.014   0.089

mulliken: Qtot =       28.000

                     ====================================
                        Begin CG opt. move =      2
                     ====================================

outcoor: Atomic coordinates (scaled):                       
   -0.00003235    0.29246666    0.19047186   1       1  Si
    0.00001724    0.85266041    0.02268164   1       2  Si
    0.49996821   -0.00379024    0.33018270   1       3  Si
    0.50001497    0.98000446    0.34523836   1       4  Si
    0.50000000    0.50000000    0.70710000   1       5  Si
    0.50000000    1.50000000    0.70710000   1       6  Si
    0.20200000    0.50000000    0.95470000   2       7  H
    0.79800000    0.50000000    0.95470000   2       8  H
    0.20200000    1.50000000    0.95470000   2       9  H
    0.79800000    1.50000000    0.95470000   2      10  H

superc: Internal auxiliary supercell:     5 x     3 x     2  =      30
superc: Number of atoms, orbitals, and projectors:    300   2940   3960

outcell: Unit cell vectors (Ang):
        3.818400    0.000000    0.000000
        0.000000    7.636800    0.000000
        0.000000    0.000000   11.455200

outcell: Cell vector modules (Ang)   :    3.818400    7.636800   11.455200
outcell: Cell angles (23,13,12) (deg):     90.0000     90.0000     90.0000
outcell: Cell volume (Ang**3)        :    334.0377
New_DM. Step:     3
Re-using DM from previous geometry...
Re-using DM without extrapolation (not allowed)
New grid distribution:   1
           1       1:    4    1:    4    1:    6
           2       1:    4    1:    4    7:   12
           3       1:    4    5:    8    1:    6
           4       1:    4    5:    8    7:   12

InitMesh: MESH =     8 x    16 x    24 =        3072
InitMesh: (bp) =     4 x     8 x    12 =         384
InitMesh: Mesh cutoff (required, used) =    10.000    12.132 Ry
ExtMesh (bp) on 0 =    20 x    20 x    22 =        8800
New grid distribution:   2
           1       1:    4    1:    3    1:    3
           2       1:    4    1:    3    4:   12
           3       1:    4    4:    8    1:    3
           4       1:    4    4:    8    4:   12
New grid distribution:   3
           1       1:    4    1:    4    1:    5
           2       1:    4    1:    4    6:   12
           3       1:    4    5:    8    1:    5
           4       1:    4    5:    8    6:   12
Setting up quadratic distribution...
ExtMesh (bp) on 0 =    20 x    19 x    19 =        7220
PhiOnMesh: Number of (b)points on node 0 =                   36
PhiOnMesh: nlist on node 0 =                 3416

   scf: iscf   Eharris(eV)      E_KS(eV)   FreeEng(eV)    dDmax  Ef(eV)
   scf:    1     -703.6427     -703.6266     -703.6266  0.00501 -4.2370
   scf:    2     -703.6501     -703.6406     -703.6406  0.03874 -4.2265
   scf:    3     -703.6423     -703.6304     -703.6304  0.00258 -4.2354
   scf:    4     -703.6423     -703.6405     -703.6405  0.00210 -4.2347
   scf:    5     -703.6423     -703.6418     -703.6418  0.00044 -4.2355
   scf:    6     -703.6423     -703.6422     -703.6422  0.00032 -4.2351
   scf:    7     -703.6423     -703.6425     -703.6425  0.00018 -4.2347
   scf:    8     -703.6423     -703.6425     -703.6425  0.00019 -4.2346
   scf:    9     -703.6423     -703.6422     -703.6422  0.00009 -4.2344

SCF Convergence by dMax criterion
max |DM_out - DM_in|:     0.00008554
SCF cycle converged after    9 iterations

Using DM_out to compute the final energy and forces

siesta: E_KS(eV) =             -703.6423

siesta: Atomic forces (eV/Ang):
     1   -0.001945    0.007500   -0.000535
     2   -0.008713   -0.033266    0.045026
     3   -0.000697    0.054871    0.036486
     4    0.000258   -0.013156   -0.011833
     5   -0.000097    0.136233    0.348168
     6   -0.000042   -0.400988   -0.993961
     7    2.230750   -0.106637    0.976024
     8   -2.230714   -0.106678    0.975955
     9    2.324545    0.081197    0.669148
    10   -2.324527    0.081313    0.669116
----------------------------------------
   Tot   -0.011182   -0.299611    2.713593
----------------------------------------
   Max    2.324545
   Res    0.910902    sqrt( Sum f_i^2 / 3N )
----------------------------------------
   Max    0.054871    constrained

Stress-tensor-Voigt (kbar):      -62.69       -7.83       18.67        0.05        2.61       -0.11
(Free)E + p*V (eV/cell)     -700.0389
Target enthalpy (eV/cell)     -703.6423
 
mulliken: Atomic and Orbital Populations:

Species: Si                  
Atom  Qatom  Qorb
               3s      3s      3py     3pz     3px     3py     3pz     3px     
               3Pdxy   3Pdyz   3Pdz2   3Pdxz   3Pdx2-y2
   1  3.921   0.820   0.375   0.553   0.567   0.518   0.264   0.099   0.223
              0.161   0.078   0.049   0.106   0.111
   2  4.250   0.904   0.328   0.791   0.982   0.733   0.062   0.028   0.120
              0.057   0.044   0.034   0.072   0.095
   3  3.975   0.757   0.358   0.596   0.742   0.552   0.192   0.146   0.229
              0.104   0.091   0.047   0.050   0.109
   4  3.864   0.747   0.358   0.562   0.615   0.493   0.205   0.200   0.258
              0.066   0.092   0.056   0.109   0.103
   5  3.860   0.621   0.411   0.634   0.542   0.572   0.122   0.227   0.224
              0.044   0.077   0.036   0.228   0.122
   6  3.872   0.631   0.386   0.719   0.643   0.694   0.111   0.174   0.178
              0.036   0.082   0.027   0.107   0.083

Species: H                   
Atom  Qatom  Qorb
               1s      1s      1Ppy    1Ppz    1Ppx    
   7  1.076   0.541   0.418   0.012   0.015   0.090
   8  1.076   0.541   0.418   0.012   0.015   0.090
   9  1.053   0.489   0.447   0.012   0.014   0.089
  10  1.053   0.489   0.447   0.012   0.014   0.089

mulliken: Qtot =       28.000

cgvc: Finished line minimization    1.  Mean atomic displacement =    0.0058

                     ====================================
                        Begin CG opt. move =      3
                     ====================================

outcoor: Atomic coordinates (scaled):                       
   -0.00008701    0.29263064    0.19047772   1       1  Si
   -0.00022528    0.85166622    0.02397158   1       2  Si
    0.49994826   -0.00217914    0.33120447   1       3  Si
    0.50002239    0.97967174    0.34497691   1       4  Si
    0.50000000    0.50000000    0.70710000   1       5  Si
    0.50000000    1.50000000    0.70710000   1       6  Si
    0.20200000    0.50000000    0.95470000   2       7  H
    0.79800000    0.50000000    0.95470000   2       8  H
    0.20200000    1.50000000    0.95470000   2       9  H
    0.79800000    1.50000000    0.95470000   2      10  H

superc: Internal auxiliary supercell:     5 x     3 x     2  =      30
superc: Number of atoms, orbitals, and projectors:    300   2940   3960

outcell: Unit cell vectors (Ang):
        3.818400    0.000000    0.000000
        0.000000    7.636800    0.000000
        0.000000    0.000000   11.455200

outcell: Cell vector modules (Ang)   :    3.818400    7.636800   11.455200
outcell: Cell angles (23,13,12) (deg):     90.0000     90.0000     90.0000
outcell: Cell volume (Ang**3)        :    334.0377
New_DM. Step:     4
Re-using DM from previous geometry...
Re-using DM without extrapolation (not allowed)
Density Matrix sparsity pattern changed.
New grid distribution:   1
           1       1:    4    1:    4    1:    6
           2       1:    4    1:    4    7:   12
           3       1:    4    5:    8    1:    6
           4       1:    4    5:    8    7:   12

InitMesh: MESH =     8 x    16 x    24 =        3072
InitMesh: (bp) =     4 x     8 x    12 =         384
InitMesh: Mesh cutoff (required, used) =    10.000    12.132 Ry
ExtMesh (bp) on 0 =    20 x    20 x    22 =        8800
New grid distribution:   2
           1       1:    4    1:    3    1:    3
           2       1:    4    1:    3    4:   12
           3       1:    4    4:    8    1:    3
           4       1:    4    4:    8    4:   12
New grid distribution:   3
           1       1:    4    1:    4    1:    5
           2       1:    4    1:    4    6:   12
           3       1:    4    5:    8    1:    5
           4       1:    4    5:    8    6:   12
Setting up quadratic distribution...
ExtMesh (bp) on 0 =    20 x    19 x    19 =        7220
PhiOnMesh: Number of (b)points on node 0 =                   36
PhiOnMesh: nlist on node 0 =                 3425

   scf: iscf   Eharris(eV)      E_KS(eV)   FreeEng(eV)    dDmax  Ef(eV)
   scf:    1     -703.6424     -703.6754     -703.6754  0.00643 -4.2223
   scf:    2     -703.6501     -703.6397     -703.6397  0.02269 -4.2748
   scf:    3     -703.6418     -703.6635     -703.6635  0.00177 -4.2360
   scf:    4     -703.6419     -703.6458     -703.6458  0.00124 -4.2402
   scf:    5     -703.6418     -703.6422     -703.6422  0.00062 -4.2389
   scf:    6     -703.6418     -703.6419     -703.6419  0.00013 -4.2339
   scf:    7     -703.6418     -703.6421     -703.6421  0.00011 -4.2336
   scf:    8     -703.6418     -703.6424     -703.6424  0.00008 -4.2334

SCF Convergence by dMax criterion
max |DM_out - DM_in|:     0.00007834
SCF cycle converged after    8 iterations

Using DM_out to compute the final energy and forces

siesta: E_KS(eV) =             -703.6418

siesta: Atomic forces (eV/Ang):
     1   -0.000832   -0.035588    0.001858
     2    0.005596    0.090460   -0.029009
     3   -0.002549   -0.065473    0.024628
     4   -0.011697    0.020359    0.010851
     5   -0.001397    0.157791    0.379114
     6   -0.000289   -0.387541   -1.010465
     7    2.233423   -0.103944    0.975930
     8   -2.233060   -0.103439    0.975044
     9    2.324555    0.079390    0.668652
    10   -2.324427    0.079721    0.668612
----------------------------------------
   Tot   -0.010678   -0.268263    2.665214
----------------------------------------
   Max    2.324555
   Res    0.912295    sqrt( Sum f_i^2 / 3N )
----------------------------------------
   Max    0.090460    constrained

Stress-tensor-Voigt (kbar):      -63.49      -11.29       18.13        0.02        3.07        0.07
(Free)E + p*V (eV/cell)     -699.7045
Target enthalpy (eV/cell)     -703.6418
 
mulliken: Atomic and Orbital Populations:

Species: Si                  
Atom  Qatom  Qorb
               3s      3s      3py     3pz     3px     3py     3pz     3px     
               3Pdxy   3Pdyz   3Pdz2   3Pdxz   3Pdx2-y2
   1  3.922   0.817   0.375   0.552   0.568   0.516   0.265   0.099   0.224
              0.161   0.078   0.049   0.106   0.112
   2  4.250   0.901   0.328   0.792   0.980   0.731   0.064   0.029   0.121
              0.057   0.044   0.034   0.072   0.095
   3  3.974   0.755   0.359   0.594   0.742   0.550   0.194   0.147   0.231
              0.104   0.091   0.047   0.050   0.110
   4  3.864   0.745   0.359   0.562   0.615   0.492   0.205   0.200   0.259
              0.066   0.092   0.056   0.109   0.104
   5  3.860   0.620   0.411   0.634   0.541   0.571   0.123   0.228   0.224
              0.044   0.078   0.036   0.228   0.123
   6  3.872   0.632   0.386   0.719   0.644   0.694   0.111   0.174   0.178
              0.036   0.082   0.026   0.107   0.083

Species: H                   
Atom  Qatom  Qorb
               1s      1s      1Ppy    1Ppz    1Ppx    
   7  1.076   0.541   0.418   0.012   0.015   0.090
   8  1.076   0.541   0.418   0.012   0.015   0.090
   9  1.053   0.489   0.448   0.012   0.014   0.089
  10  1.053   0.489   0.448   0.012   0.014   0.089

mulliken: Qtot =       28.000

                     ====================================
                        Begin CG opt. move =      4
                     ====================================

outcoor: Atomic coordinates (scaled):                       
   -0.00005988    0.29254925    0.19047481   1       1  Si
   -0.00010491    0.85215967    0.02333133   1       2  Si
    0.49995816   -0.00297879    0.33069733   1       3  Si
    0.50001871    0.97983688    0.34510668   1       4  Si
    0.50000000    0.50000000    0.70710000   1       5  Si
    0.50000000    1.50000000    0.70710000   1       6  Si
    0.20200000    0.50000000    0.95470000   2       7  H
    0.79800000    0.50000000    0.95470000   2       8  H
    0.20200000    1.50000000    0.95470000   2       9  H
    0.79800000    1.50000000    0.95470000   2      10  H

superc: Internal auxiliary supercell:     5 x     3 x     2  =      30
superc: Number of atoms, orbitals, and projectors:    300   2940   3960

outcell: Unit cell vectors (Ang):
        3.818400    0.000000    0.000000
        0.000000    7.636800    0.000000
        0.000000    0.000000   11.455200

outcell: Cell vector modules (Ang)   :    3.818400    7.636800   11.455200
outcell: Cell angles (23,13,12) (deg):     90.0000     90.0000     90.0000
outcell: Cell volume (Ang**3)        :    334.0377
New_DM. Step:     5
Re-using DM from previous geometry...
Re-using DM without extrapolation (not allowed)
New grid distribution:   1
           1       1:    4    1:    4    1:    6
           2       1:    4    1:    4    7:   12
           3       1:    4    5:    8    1:    6
           4       1:    4    5:    8    7:   12

InitMesh: MESH =     8 x    16 x    24 =        3072
InitMesh: (bp) =     4 x     8 x    12 =         384
InitMesh: Mesh cutoff (required, used) =    10.000    12.132 Ry
ExtMesh (bp) on 0 =    20 x    20 x    22 =        8800
New grid distribution:   2
           1       1:    4    1:    3    1:    3
           2       1:    4    1:    3    4:   12
           3       1:    4    4:    8    1:    3
           4       1:    4    4:    8    4:   12
New grid distribution:   3
           1       1:    4    1:    4    1:    5
           2       1:    4    1:    4    6:   12
           3       1:    4    5:    8    1:    5
           4       1:    4    5:    8    6:   12
Setting up quadratic distribution...
ExtMesh (bp) on 0 =    20 x    19 x    19 =        7220
PhiOnMesh: Number of (b)points on node 0 =                   36
PhiOnMesh: nlist on node 0 =                 3417

   scf: iscf   Eharris(eV)      E_KS(eV)   FreeEng(eV)    dDmax  Ef(eV)
   scf:    1     -703.6424     -703.6253     -703.6253  0.00329 -4.2427
   scf:    2     -703.6447     -703.6415     -703.6415  0.01239 -4.2122
   scf:    3     -703.6422     -703.6308     -703.6308  0.00090 -4.2355
   scf:    4     -703.6422     -703.6391     -703.6391  0.00055 -4.2333
   scf:    5     -703.6422     -703.6416     -703.6416  0.00036 -4.2338
   scf:    6     -703.6422     -703.6419     -703.6419  0.00006 -4.2352

SCF Convergence by dMax criterion
max |DM_out - DM_in|:     0.00005892
SCF cycle converged after    6 iterations

Using DM_out to compute the final energy and forces

siesta: E_KS(eV) =             -703.6422

siesta: Atomic forces (eV/Ang):
     1   -0.000826   -0.013940    0.000283
     2    0.002917    0.074785   -0.017461
     3   -0.001613   -0.054010    0.036769
     4   -0.005684   -0.003874    0.000723
     5   -0.000710    0.147162    0.365050
     6   -0.000157   -0.394372   -1.002042
     7    2.232026   -0.105351    0.974891
     8   -2.231816   -0.105115    0.974383
     9    2.324768    0.080341    0.668597
    10   -2.324693    0.080559    0.668543
----------------------------------------
   Tot   -0.005788   -0.293816    2.669735
----------------------------------------
   Max    2.324768
   Res    0.911510    sqrt( Sum f_i^2 / 3N )
----------------------------------------
   Max    0.074785    constrained

Stress-tensor-Voigt (kbar):      -63.23      -10.82       18.19        0.01        3.21        0.03
(Free)E + p*V (eV/cell)     -699.7606
Target enthalpy (eV/cell)     -703.6422
 
mulliken: Atomic and Orbital Populations:

Species: Si                  
Atom  Qatom  Qorb
               3s      3s      3py     3pz     3px     3py     3pz     3px     
               3Pdxy   3Pdyz   3Pdz2   3Pdxz   3Pdx2-y2
   1  3.922   0.819   0.375   0.552   0.567   0.517   0.265   0.099   0.223
              0.161   0.078   0.049   0.106   0.112
   2  4.250   0.902   0.328   0.792   0.981   0.732   0.063   0.029   0.120
              0.057   0.044   0.034   0.072   0.095
   3  3.974   0.756   0.358   0.595   0.742   0.551   0.193   0.147   0.230
              0.104   0.091   0.047   0.050   0.110
   4  3.864   0.746   0.358   0.562   0.615   0.492   0.205   0.200   0.259
              0.066   0.092   0.056   0.109   0.103
   5  3.860   0.620   0.411   0.634   0.542   0.571   0.123   0.227   0.224
              0.044   0.077   0.036   0.228   0.122
   6  3.872   0.632   0.386   0.719   0.644   0.694   0.111   0.174   0.178
              0.036   0.082   0.026   0.107   0.083

Species: H                   
Atom  Qatom  Qorb
               1s      1s      1Ppy    1Ppz    1Ppx    
   7  1.076   0.541   0.418   0.012   0.015   0.090
   8  1.076   0.541   0.418   0.012   0.015   0.090
   9  1.053   0.489   0.448   0.012   0.014   0.089
  10  1.053   0.489   0.448   0.012   0.014   0.089

mulliken: Qtot =       28.000

cgvc: Finished line minimization    2.  Mean atomic displacement =    0.0029

                     ====================================
                        Begin CG opt. move =      5
                     ====================================

outcoor: Atomic coordinates (scaled):                       
   -0.00010053    0.29252733    0.19048087   1       1  Si
   -0.00022760    0.85220728    0.02396685   1       2  Si
    0.49993183   -0.00246724    0.33164415   1       3  Si
    0.49997343    0.97959953    0.34495319   1       4  Si
    0.50000000    0.50000000    0.70710000   1       5  Si
    0.50000000    1.50000000    0.70710000   1       6  Si
    0.20200000    0.50000000    0.95470000   2       7  H
    0.79800000    0.50000000    0.95470000   2       8  H
    0.20200000    1.50000000    0.95470000   2       9  H
    0.79800000    1.50000000    0.95470000   2      10  H

superc: Internal auxiliary supercell:     5 x     3 x     2  =      30
superc: Number of atoms, orbitals, and projectors:    300   2940   3960

outcell: Unit cell vectors (Ang):
        3.818400    0.000000    0.000000
        0.000000    7.636800    0.000000
        0.000000    0.000000   11.455200

outcell: Cell vector modules (Ang)   :    3.818400    7.636800   11.455200
outcell: Cell angles (23,13,12) (deg):     90.0000     90.0000     90.0000
outcell: Cell volume (Ang**3)        :    334.0377
New_DM. Step:     6
Re-using DM from previous geometry...
Re-using DM without extrapolation (not allowed)
Density Matrix sparsity pattern changed.
New grid distribution:   1
           1       1:    4    1:    4    1:    6
           2       1:    4    1:    4    7:   12
           3       1:    4    5:    8    1:    6
           4       1:    4    5:    8    7:   12

InitMesh: MESH =     8 x    16 x    24 =        3072
InitMesh: (bp) =     4 x     8 x    12 =         384
InitMesh: Mesh cutoff (required, used) =    10.000    12.132 Ry
ExtMesh (bp) on 0 =    20 x    20 x    22 =        8800
New grid distribution:   2
           1       1:    4    1:    3    1:    3
           2       1:    4    1:    3    4:   12
           3       1:    4    4:    8    1:    3
           4       1:    4    4:    8    4:   12
New grid distribution:   3
           1       1:    4    1:    4    1:    5
           2       1:    4    1:    4    6:   12
           3       1:    4    5:    8    1:    5
           4       1:    4    5:    8    6:   12
Setting up quadratic distribution...
ExtMesh (bp) on 0 =    20 x    19 x    19 =        7220
PhiOnMesh: Number of (b)points on node 0 =                   36
PhiOnMesh: nlist on node 0 =                 3433

   scf: iscf   Eharris(eV)      E_KS(eV)   FreeEng(eV)    dDmax  Ef(eV)
   scf:    1     -703.6421     -703.6580     -703.6580  0.00241 -4.2327
   scf:    2     -703.6429     -703.6419     -703.6419  0.01010 -4.2451
   scf:    3     -703.6421     -703.6517     -703.6517  0.00077 -4.2352
   scf:    4     -703.6421     -703.6427     -703.6427  0.00030 -4.2344
   scf:    5     -703.6421     -703.6421     -703.6421  0.00019 -4.2339
   scf:    6     -703.6421     -703.6421     -703.6421  0.00005 -4.2331

SCF Convergence by dMax criterion
max |DM_out - DM_in|:     0.00004829
SCF cycle converged after    6 iterations

Using DM_out to compute the final energy and forces

siesta: E_KS(eV) =             -703.6421

siesta: Atomic forces (eV/Ang):
     1   -0.002546   -0.019707   -0.000734
     2    0.003337    0.063508   -0.035335
     3    0.003471   -0.057037    0.009039
     4   -0.010299    0.027352    0.019922
     5   -0.001453    0.156634    0.382014
     6   -0.000624   -0.399506   -1.000565
     7    2.232745   -0.103482    0.976197
     8   -2.232395   -0.102894    0.975186
     9    2.324434    0.079462    0.668799
    10   -2.324237    0.079673    0.668559
----------------------------------------
   Tot   -0.007568   -0.275997    2.663083
----------------------------------------
   Max    2.324434
   Res    0.911911    sqrt( Sum f_i^2 / 3N )
----------------------------------------
   Max    0.063508    constrained

Stress-tensor-Voigt (kbar):      -63.58      -11.19       17.98        0.01        3.07        0.08
(Free)E + p*V (eV/cell)     -699.6954
Target enthalpy (eV/cell)     -703.6421
 
mulliken: Atomic and Orbital Populations:

Species: Si                  
Atom  Qatom  Qorb
               3s      3s      3py     3pz     3px     3py     3pz     3px     
               3Pdxy   3Pdyz   3Pdz2   3Pdxz   3Pdx2-y2
   1  3.923   0.819   0.375   0.553   0.568   0.518   0.264   0.099   0.223
              0.161   0.078   0.049   0.106   0.112
   2  4.250   0.901   0.329   0.791   0.981   0.731   0.064   0.029   0.121
              0.057   0.044   0.034   0.072   0.095
   3  3.973   0.755   0.359   0.593   0.742   0.550   0.194   0.147   0.231
              0.104   0.091   0.047   0.050   0.110
   4  3.864   0.744   0.359   0.562   0.615   0.492   0.205   0.200   0.259
              0.066   0.092   0.057   0.109   0.104
   5  3.860   0.619   0.411   0.634   0.541   0.571   0.123   0.228   0.224
              0.044   0.077   0.036   0.228   0.123
   6  3.872   0.632   0.386   0.719   0.644   0.694   0.111   0.174   0.178
              0.036   0.082   0.026   0.107   0.083

Species: H                   
Atom  Qatom  Qorb
               1s      1s      1Ppy    1Ppz    1Ppx    
   7  1.076   0.541   0.418   0.012   0.015   0.090
   8  1.076   0.541   0.418   0.012   0.015   0.090
   9  1.053   0.489   0.447   0.012   0.014   0.089
  10  1.053   0.489   0.447   0.012   0.014   0.089

mulliken: Qtot =       28.000

                     ====================================
                        Begin CG opt. move =      6
                     ====================================

outcoor: Atomic coordinates (scaled):                       
   -0.00006048    0.29254893    0.19047490   1       1  Si
   -0.00010673    0.85216038    0.02334076   1       2  Si
    0.49995777   -0.00297121    0.33071137   1       3  Si
    0.50001804    0.97983336    0.34510440   1       4  Si
    0.50000000    0.50000000    0.70710000   1       5  Si
    0.50000000    1.50000000    0.70710000   1       6  Si
    0.20200000    0.50000000    0.95470000   2       7  H
    0.79800000    0.50000000    0.95470000   2       8  H
    0.20200000    1.50000000    0.95470000   2       9  H
    0.79800000    1.50000000    0.95470000   2      10  H

superc: Internal auxiliary supercell:     5 x     3 x     2  =      30
superc: Number of atoms, orbitals, and projectors:    300   2940   3960

outcell: Unit cell vectors (Ang):
        3.818400    0.000000    0.000000
        0.000000    7.636800    0.000000
        0.000000    0.000000   11.455200

outcell: Cell vector modules (Ang)   :    3.818400    7.636800   11.455200
outcell: Cell angles (23,13,12) (deg):     90.0000     90.0000     90.0000
outcell: Cell volume (Ang**3)        :    334.0377
New_DM. Step:     7
Re-using DM from previous geometry...
Re-using DM without extrapolation (not allowed)
Density Matrix sparsity pattern changed.
New grid distribution:   1
           1       1:    4    1:    4    1:    6
           2       1:    4    1:    4    7:   12
           3       1:    4    5:    8    1:    6
           4       1:    4    5:    8    7:   12

InitMesh: MESH =     8 x    16 x    24 =        3072
InitMesh: (bp) =     4 x     8 x    12 =         384
InitMesh: Mesh cutoff (required, used) =    10.000    12.132 Ry
ExtMesh (bp) on 0 =    20 x    20 x    22 =        8800
New grid distribution:   2
           1       1:    4    1:    3    1:    3
           2       1:    4    1:    3    4:   12
           3       1:    4    4:    8    1:    3
           4       1:    4    4:    8    4:   12
New grid distribution:   3
           1       1:    4    1:    4    1:    5
           2       1:    4    1:    4    6:   12
           3       1:    4    5:    8    1:    5
           4       1:    4    5:    8    6:   12
Setting up quadratic distribution...
ExtMesh (bp) on 0 =    20 x    19 x    19 =        7220
PhiOnMesh: Number of (b)points on node 0 =                   36
PhiOnMesh: nlist on node 0 =                 3417

   scf: iscf   Eharris(eV)      E_KS(eV)   FreeEng(eV)    dDmax  Ef(eV)
   scf:    1     -703.6422     -703.6264     -703.6264  0.00217 -4.2384
   scf:    2     -703.6428     -703.6420     -703.6420  0.00886 -4.2248
   scf:    3     -703.6422     -703.6330     -703.6330  0.00073 -4.2355
   scf:    4     -703.6422     -703.6417     -703.6417  0.00030 -4.2340
   scf:    5     -703.6422     -703.6422     -703.6422  0.00018 -4.2344
   scf:    6     -703.6422     -703.6421     -703.6421  0.00005 -4.2352

SCF Convergence by dMax criterion
max |DM_out - DM_in|:     0.00005214
SCF cycle converged after    6 iterations

Using DM_out to compute the final energy and forces

siesta: E_KS(eV) =             -703.6422

siesta: Atomic forces (eV/Ang):
     1   -0.001895   -0.015225    0.000882
     2    0.002936    0.074894   -0.017647
     3   -0.001635   -0.054318    0.036728
     4   -0.005765   -0.003274    0.000936
     5   -0.000730    0.147233    0.365011
     6   -0.000168   -0.394322   -1.002297
     7    2.232068   -0.105377    0.975245
     8   -2.231848   -0.105136    0.974728
     9    2.324713    0.080415    0.668437
    10   -2.324630    0.080635    0.668379
----------------------------------------
   Tot   -0.006953   -0.294476    2.670402
----------------------------------------
   Max    2.324713
   Res    0.911534    sqrt( Sum f_i^2 / 3N )
----------------------------------------
   Max    0.074894    constrained

Stress-tensor-Voigt (kbar):      -63.24      -10.83       18.18        0.00        3.21        0.04
(Free)E + p*V (eV/cell)     -699.7588
Target enthalpy (eV/cell)     -703.6422
 
mulliken: Atomic and Orbital Populations:

Species: Si                  
Atom  Qatom  Qorb
               3s      3s      3py     3pz     3px     3py     3pz     3px     
               3Pdxy   3Pdyz   3Pdz2   3Pdxz   3Pdx2-y2
   1  3.922   0.819   0.375   0.552   0.567   0.517   0.265   0.099   0.223
              0.161   0.078   0.049   0.106   0.112
   2  4.250   0.902   0.328   0.792   0.981   0.732   0.063   0.029   0.120
              0.057   0.044   0.034   0.072   0.095
   3  3.974   0.756   0.358   0.595   0.742   0.551   0.193   0.147   0.230
              0.104   0.091   0.047   0.050   0.110
   4  3.864   0.746   0.358   0.562   0.615   0.492   0.205   0.200   0.259
              0.066   0.092   0.056   0.109   0.103
   5  3.860   0.620   0.411   0.634   0.542   0.571   0.123   0.227   0.224
              0.044   0.077   0.036   0.228   0.122
   6  3.872   0.632   0.386   0.719   0.644   0.694   0.111   0.174   0.178
              0.036   0.082   0.026   0.107   0.083

Species: H                   
Atom  Qatom  Qorb
               1s      1s      1Ppy    1Ppz    1Ppx    
   7  1.076   0.541   0.418   0.012   0.015   0.090
   8  1.076   0.541   0.418   0.012   0.015   0.090
   9  1.053   0.489   0.448   0.012   0.014   0.089
  10  1.053   0.489   0.448   0.012   0.014   0.089

mulliken: Qtot =       28.000

cgvc: Finished line minimization    3.  Mean atomic displacement =    0.0000

                     ====================================
                        Begin CG opt. move =      7
                     ====================================

outcoor: Atomic coordinates (scaled):                       
   -0.00006084    0.29254609    0.19047507   1       1  Si
   -0.00010619    0.85217436    0.02333752   1       2  Si
    0.49995746   -0.00298129    0.33071831   1       3  Si
    0.50001696    0.97983273    0.34510456   1       4  Si
    0.50000000    0.50000000    0.70710000   1       5  Si
    0.50000000    1.50000000    0.70710000   1       6  Si
    0.20200000    0.50000000    0.95470000   2       7  H
    0.79800000    0.50000000    0.95470000   2       8  H
    0.20200000    1.50000000    0.95470000   2       9  H
    0.79800000    1.50000000    0.95470000   2      10  H

superc: Internal auxiliary supercell:     5 x     3 x     2  =      30
superc: Number of atoms, orbitals, and projectors:    300   2940   3960

outcell: Unit cell vectors (Ang):
        3.818400    0.000000    0.000000
        0.000000    7.636800    0.000000
        0.000000    0.000000   11.455200

outcell: Cell vector modules (Ang)   :    3.818400    7.636800   11.455200
outcell: Cell angles (23,13,12) (deg):     90.0000     90.0000     90.0000
outcell: Cell volume (Ang**3)        :    334.0377
New_DM. Step:     8
Re-using DM from previous geometry...
Re-using DM without extrapolation (not allowed)
New grid distribution:   1
           1       1:    4    1:    4    1:    6
           2       1:    4    1:    4    7:   12
           3       1:    4    5:    8    1:    6
           4       1:    4    5:    8    7:   12

InitMesh: MESH =     8 x    16 x    24 =        3072
InitMesh: (bp) =     4 x     8 x    12 =         384
InitMesh: Mesh cutoff (required, used) =    10.000    12.132 Ry
ExtMesh (bp) on 0 =    20 x    20 x    22 =        8800
New grid distribution:   2
           1       1:    4    1:    3    1:    3
           2       1:    4    1:    3    4:   12
           3       1:    4    4:    8    1:    3
           4       1:    4    4:    8    4:   12
New grid distribution:   3
           1       1:    4    1:    4    1:    5
           2       1:    4    1:    4    6:   12
           3       1:    4    5:    8    1:    5
           4       1:    4    5:    8    6:   12
Setting up quadratic distribution...
ExtMesh (bp) on 0 =    20 x    19 x    19 =        7220
PhiOnMesh: Number of (b)points on node 0 =                   36
PhiOnMesh: nlist on node 0 =                 3417

   scf: iscf   Eharris(eV)      E_KS(eV)   FreeEng(eV)    dDmax  Ef(eV)
   scf:    1     -703.6422     -703.6421     -703.6421  0.00007 -4.2356

SCF Convergence by dMax criterion
max |DM_out - DM_in|:     0.00006777
SCF cycle converged after    1 iterations

Using DM_out to compute the final energy and forces

siesta: E_KS(eV) =             -703.6422

siesta: Atomic forces (eV/Ang):
     1   -0.001862   -0.014541    0.000226
     2    0.002934    0.072379   -0.018340
     3   -0.001663   -0.052872    0.034669
     4   -0.005752   -0.002451    0.000283
     5   -0.000771    0.146627    0.363794
     6   -0.000182   -0.394241   -1.001531
     7    2.231960   -0.105158    0.976641
     8   -2.231762   -0.104916    0.976165
     9    2.324383    0.080195    0.668905
    10   -2.324310    0.080417    0.668871
----------------------------------------
   Tot   -0.007024   -0.294560    2.669683
----------------------------------------
   Max    2.324383
   Res    0.911524    sqrt( Sum f_i^2 / 3N )
----------------------------------------
   Max    0.072379    constrained

Stress-tensor-Voigt (kbar):      -63.25      -10.84       18.13        0.00        3.20        0.04
(Free)E + p*V (eV/cell)     -699.7531
Target enthalpy (eV/cell)     -703.6422
 
mulliken: Atomic and Orbital Populations:

Species: Si                  
Atom  Qatom  Qorb
               3s      3s      3py     3pz     3px     3py     3pz     3px     
               3Pdxy   3Pdyz   3Pdz2   3Pdxz   3Pdx2-y2
   1  3.922   0.819   0.375   0.552   0.567   0.517   0.265   0.099   0.223
              0.161   0.078   0.049   0.106   0.112
   2  4.250   0.902   0.328   0.792   0.981   0.732   0.063   0.029   0.120
              0.057   0.044   0.034   0.072   0.095
   3  3.974   0.756   0.358   0.595   0.742   0.551   0.193   0.147   0.230
              0.104   0.091   0.047   0.050   0.110
   4  3.864   0.746   0.358   0.562   0.615   0.492   0.205   0.200   0.259
              0.066   0.092   0.056   0.109   0.103
   5  3.860   0.620   0.411   0.634   0.542   0.571   0.123   0.227   0.224
              0.044   0.077   0.036   0.228   0.122
   6  3.872   0.632   0.386   0.719   0.644   0.694   0.111   0.174   0.178
              0.036   0.082   0.026   0.107   0.083

Species: H                   
Atom  Qatom  Qorb
               1s      1s      1Ppy    1Ppz    1Ppx    
   7  1.076   0.541   0.418   0.012   0.015   0.090
   8  1.076   0.541   0.418   0.012   0.015   0.090
   9  1.053   0.489   0.447   0.012   0.014   0.089
  10  1.053   0.489   0.447   0.012   0.014   0.089

mulliken: Qtot =       28.000

                     ====================================
                        Begin CG opt. move =      8
                     ====================================

outcoor: Atomic coordinates (scaled):                       
   -0.00006141    0.29254154    0.19047533   1       1  Si
   -0.00010533    0.85219672    0.02333236   1       2  Si
    0.49995697   -0.00299743    0.33072942   1       3  Si
    0.50001523    0.97983171    0.34510482   1       4  Si
    0.50000000    0.50000000    0.70710000   1       5  Si
    0.50000000    1.50000000    0.70710000   1       6  Si
    0.20200000    0.50000000    0.95470000   2       7  H
    0.79800000    0.50000000    0.95470000   2       8  H
    0.20200000    1.50000000    0.95470000   2       9  H
    0.79800000    1.50000000    0.95470000   2      10  H

superc: Internal auxiliary supercell:     5 x     3 x     2  =      30
superc: Number of atoms, orbitals, and projectors:    300   2940   3960

outcell: Unit cell vectors (Ang):
        3.818400    0.000000    0.000000
        0.000000    7.636800    0.000000
        0.000000    0.000000   11.455200

outcell: Cell vector modules (Ang)   :    3.818400    7.636800   11.455200
outcell: Cell angles (23,13,12) (deg):     90.0000     90.0000     90.0000
outcell: Cell volume (Ang**3)        :    334.0377
New_DM. Step:     9
Re-using DM from previous geometry...
Re-using DM without extrapolation (not allowed)
New grid distribution:   1
           1       1:    4    1:    4    1:    6
           2       1:    4    1:    4    7:   12
           3       1:    4    5:    8    1:    6
           4       1:    4    5:    8    7:   12

InitMesh: MESH =     8 x    16 x    24 =        3072
InitMesh: (bp) =     4 x     8 x    12 =         384
InitMesh: Mesh cutoff (required, used) =    10.000    12.132 Ry
ExtMesh (bp) on 0 =    20 x    20 x    22 =        8800
New grid distribution:   2
           1       1:    4    1:    3    1:    3
           2       1:    4    1:    3    4:   12
           3       1:    4    4:    8    1:    3
           4       1:    4    4:    8    4:   12
New grid distribution:   3
           1       1:    4    1:    4    1:    5
           2       1:    4    1:    4    6:   12
           3       1:    4    5:    8    1:    5
           4       1:    4    5:    8    6:   12
Setting up quadratic distribution...
ExtMesh (bp) on 0 =    20 x    19 x    19 =        7220
PhiOnMesh: Number of (b)points on node 0 =                   36
PhiOnMesh: nlist on node 0 =                 3417

   scf: iscf   Eharris(eV)      E_KS(eV)   FreeEng(eV)    dDmax  Ef(eV)
   scf:    1     -703.6422     -703.6420     -703.6420  0.00023 -4.2349
   scf:    2     -703.6423     -703.6422     -703.6422  0.00077 -4.2332
   scf:    3     -703.6422     -703.6421     -703.6421  0.00004 -4.2351

SCF Convergence by dMax criterion
max |DM_out - DM_in|:     0.00004200
SCF cycle converged after    3 iterations

Using DM_out to compute the final energy and forces

siesta: E_KS(eV) =             -703.6422

siesta: Atomic forces (eV/Ang):
     1   -0.002031   -0.013564    0.001256
     2    0.002798    0.072383   -0.017129
     3   -0.001669   -0.052930    0.035182
     4   -0.005627   -0.003351    0.000513
     5   -0.000739    0.146939    0.364005
     6   -0.000187   -0.394955   -1.002040
     7    2.232078   -0.105317    0.975838
     8   -2.231873   -0.105074    0.975337
     9    2.324652    0.080380    0.668898
    10   -2.324571    0.080594    0.668839
----------------------------------------
   Tot   -0.007169   -0.294894    2.670700
----------------------------------------
   Max    2.324652
   Res    0.911564    sqrt( Sum f_i^2 / 3N )
----------------------------------------
   Max    0.072383    constrained

Stress-tensor-Voigt (kbar):      -63.23      -10.81       18.17        0.00        3.20        0.04
(Free)E + p*V (eV/cell)     -699.7597
Target enthalpy (eV/cell)     -703.6422
 
mulliken: Atomic and Orbital Populations:

Species: Si                  
Atom  Qatom  Qorb
               3s      3s      3py     3pz     3px     3py     3pz     3px     
               3Pdxy   3Pdyz   3Pdz2   3Pdxz   3Pdx2-y2
   1  3.922   0.819   0.375   0.552   0.567   0.517   0.265   0.099   0.223
              0.161   0.078   0.049   0.106   0.112
   2  4.250   0.902   0.328   0.792   0.981   0.732   0.063   0.029   0.120
              0.057   0.044   0.034   0.072   0.095
   3  3.974   0.756   0.358   0.595   0.742   0.551   0.193   0.147   0.230
              0.104   0.091   0.047   0.050   0.110
   4  3.864   0.746   0.358   0.562   0.615   0.492   0.205   0.200   0.259
              0.066   0.092   0.056   0.109   0.103
   5  3.860   0.620   0.411   0.634   0.542   0.571   0.123   0.227   0.224
              0.044   0.077   0.036   0.228   0.122
   6  3.872   0.632   0.386   0.719   0.644   0.694   0.111   0.174   0.178
              0.036   0.082   0.026   0.107   0.083

Species: H                   
Atom  Qatom  Qorb
               1s      1s      1Ppy    1Ppz    1Ppx    
   7  1.076   0.541   0.418   0.012   0.015   0.090
   8  1.076   0.541   0.418   0.012   0.015   0.090
   9  1.053   0.489   0.447   0.012   0.014   0.089
  10  1.053   0.489   0.447   0.012   0.014   0.089

mulliken: Qtot =       28.000

                     ====================================
                        Begin CG opt. move =      9
                     ====================================

outcoor: Atomic coordinates (scaled):                       
   -0.00006233    0.29253426    0.19047575   1       1  Si
   -0.00010396    0.85223250    0.02332409   1       2  Si
    0.49995619   -0.00302324    0.33074720   1       3  Si
    0.50001246    0.97983009    0.34510523   1       4  Si
    0.50000000    0.50000000    0.70710000   1       5  Si
    0.50000000    1.50000000    0.70710000   1       6  Si
    0.20200000    0.50000000    0.95470000   2       7  H
    0.79800000    0.50000000    0.95470000   2       8  H
    0.20200000    1.50000000    0.95470000   2       9  H
    0.79800000    1.50000000    0.95470000   2      10  H

superc: Internal auxiliary supercell:     5 x     3 x     2  =      30
superc: Number of atoms, orbitals, and projectors:    300   2940   3960

outcell: Unit cell vectors (Ang):
        3.818400    0.000000    0.000000
        0.000000    7.636800    0.000000
        0.000000    0.000000   11.455200

outcell: Cell vector modules (Ang)   :    3.818400    7.636800   11.455200
outcell: Cell angles (23,13,12) (deg):     90.0000     90.0000     90.0000
outcell: Cell volume (Ang**3)        :    334.0377
New_DM. Step:    10
Re-using DM from previous geometry...
Re-using DM without extrapolation (not allowed)
New grid distribution:   1
           1       1:    4    1:    4    1:    6
           2       1:    4    1:    4    7:   12
           3       1:    4    5:    8    1:    6
           4       1:    4    5:    8    7:   12

InitMesh: MESH =     8 x    16 x    24 =        3072
InitMesh: (bp) =     4 x     8 x    12 =         384
InitMesh: Mesh cutoff (required, used) =    10.000    12.132 Ry
ExtMesh (bp) on 0 =    20 x    20 x    22 =        8800
New grid distribution:   2
           1       1:    4    1:    3    1:    3
           2       1:    4    1:    3    4:   12
           3       1:    4    4:    8    1:    3
           4       1:    4    4:    8    4:   12
New grid distribution:   3
           1       1:    4    1:    4    1:    5
           2       1:    4    1:    4    6:   12
           3       1:    4    5:    8    1:    5
           4       1:    4    5:    8    6:   12
Setting up quadratic distribution...
ExtMesh (bp) on 0 =    20 x    19 x    19 =        7220
PhiOnMesh: Number of (b)points on node 0 =                   36
PhiOnMesh: nlist on node 0 =                 3417

   scf: iscf   Eharris(eV)      E_KS(eV)   FreeEng(eV)    dDmax  Ef(eV)
   scf:    1     -703.6422     -703.6420     -703.6420  0.00024 -4.2355
   scf:    2     -703.6422     -703.6422     -703.6422  0.00106 -4.2323
   scf:    3     -703.6422     -703.6420     -703.6420  0.00005 -4.2353

SCF Convergence by dMax criterion
max |DM_out - DM_in|:     0.00005405
SCF cycle converged after    3 iterations

Using DM_out to compute the final energy and forces

siesta: E_KS(eV) =             -703.6422

siesta: Atomic forces (eV/Ang):
     1   -0.002033   -0.012554    0.000493
     2    0.002654    0.070919   -0.018141
     3   -0.001707   -0.052760    0.034040
     4   -0.005490   -0.002286    0.001395
     5   -0.000748    0.146831    0.364586
     6   -0.000207   -0.395935   -1.000469
     7    2.231889   -0.105205    0.975814
     8   -2.231688   -0.104959    0.975318
     9    2.324457    0.080298    0.668398
    10   -2.324374    0.080504    0.668335
----------------------------------------
   Tot   -0.007246   -0.295146    2.669769
----------------------------------------
   Max    2.324457
   Res    0.911431    sqrt( Sum f_i^2 / 3N )
----------------------------------------
   Max    0.070919    constrained

Stress-tensor-Voigt (kbar):      -63.24      -10.81       18.15       -0.00        3.21        0.04
(Free)E + p*V (eV/cell)     -699.7576
Target enthalpy (eV/cell)     -703.6422
 
mulliken: Atomic and Orbital Populations:

Species: Si                  
Atom  Qatom  Qorb
               3s      3s      3py     3pz     3px     3py     3pz     3px     
               3Pdxy   3Pdyz   3Pdz2   3Pdxz   3Pdx2-y2
   1  3.922   0.819   0.375   0.552   0.567   0.517   0.265   0.099   0.223
              0.161   0.078   0.049   0.106   0.112
   2  4.250   0.903   0.328   0.792   0.981   0.732   0.063   0.029   0.120
              0.057   0.044   0.034   0.072   0.095
   3  3.974   0.756   0.358   0.595   0.742   0.551   0.193   0.147   0.230
              0.104   0.091   0.047   0.050   0.110
   4  3.864   0.746   0.358   0.562   0.615   0.492   0.205   0.200   0.259
              0.066   0.092   0.056   0.109   0.103
   5  3.860   0.620   0.411   0.634   0.542   0.571   0.123   0.227   0.224
              0.044   0.077   0.036   0.228   0.122
   6  3.872   0.632   0.386   0.719   0.643   0.694   0.111   0.174   0.178
              0.036   0.082   0.026   0.107   0.083

Species: H                   
Atom  Qatom  Qorb
               1s      1s      1Ppy    1Ppz    1Ppx    
   7  1.076   0.541   0.418   0.012   0.015   0.090
   8  1.076   0.541   0.418   0.012   0.015   0.090
   9  1.053   0.489   0.447   0.012   0.014   0.089
  10  1.053   0.489   0.447   0.012   0.014   0.089

mulliken: Qtot =       28.000

                     ====================================
                        Begin CG opt. move =     10
                     ====================================

outcoor: Atomic coordinates (scaled):                       
   -0.00006379    0.29252262    0.19047643   1       1  Si
   -0.00010177    0.85228975    0.02331085   1       2  Si
    0.49995493   -0.00306455    0.33077564   1       3  Si
    0.50000804    0.97982749    0.34510588   1       4  Si
    0.50000000    0.50000000    0.70710000   1       5  Si
    0.50000000    1.50000000    0.70710000   1       6  Si
    0.20200000    0.50000000    0.95470000   2       7  H
    0.79800000    0.50000000    0.95470000   2       8  H
    0.20200000    1.50000000    0.95470000   2       9  H
    0.79800000    1.50000000    0.95470000   2      10  H

superc: Internal auxiliary supercell:     5 x     3 x     2  =      30
superc: Number of atoms, orbitals, and projectors:    300   2940   3960

outcell: Unit cell vectors (Ang):
        3.818400    0.000000    0.000000
        0.000000    7.636800    0.000000
        0.000000    0.000000   11.455200

outcell: Cell vector modules (Ang)   :    3.818400    7.636800   11.455200
outcell: Cell angles (23,13,12) (deg):     90.0000     90.0000     90.0000
outcell: Cell volume (Ang**3)        :    334.0377
New_DM. Step:    11
Re-using DM from previous geometry...
Re-using DM without extrapolation (not allowed)
New grid distribution:   1
           1       1:    4    1:    4    1:    6
           2       1:    4    1:    4    7:   12
           3       1:    4    5:    8    1:    6
           4       1:    4    5:    8    7:   12

InitMesh: MESH =     8 x    16 x    24 =        3072
InitMesh: (bp) =     4 x     8 x    12 =         384
InitMesh: Mesh cutoff (required, used) =    10.000    12.132 Ry
ExtMesh (bp) on 0 =    20 x    20 x    22 =        8800
New grid distribution:   2
           1       1:    4    1:    3    1:    3
           2       1:    4    1:    3    4:   12
           3       1:    4    4:    8    1:    3
           4       1:    4    4:    8    4:   12
New grid distribution:   3
           1       1:    4    1:    4    1:    5
           2       1:    4    1:    4    6:   12
           3       1:    4    5:    8    1:    5
           4       1:    4    5:    8    6:   12
Setting up quadratic distribution...
ExtMesh (bp) on 0 =    20 x    19 x    19 =        7220
PhiOnMesh: Number of (b)points on node 0 =                   36
PhiOnMesh: nlist on node 0 =                 3417

   scf: iscf   Eharris(eV)      E_KS(eV)   FreeEng(eV)    dDmax  Ef(eV)
   scf:    1     -703.6422     -703.6418     -703.6418  0.00031 -4.2349
   scf:    2     -703.6423     -703.6422     -703.6422  0.00130 -4.2332
   scf:    3     -703.6422     -703.6420     -703.6420  0.00010 -4.2350

SCF Convergence by dMax criterion
max |DM_out - DM_in|:     0.00009730
SCF cycle converged after    3 iterations

Using DM_out to compute the final energy and forces

siesta: E_KS(eV) =             -703.6422

siesta: Atomic forces (eV/Ang):
     1   -0.002063   -0.010327    0.000332
     2    0.002394    0.068159   -0.017782
     3   -0.001754   -0.051223    0.032623
     4   -0.005244   -0.002382    0.001531
     5   -0.000736    0.146537    0.364116
     6   -0.000233   -0.397024   -0.999988
     7    2.231891   -0.105257    0.975892
     8   -2.231691   -0.105008    0.975386
     9    2.324533    0.080388    0.668694
    10   -2.324442    0.080581    0.668609
----------------------------------------
   Tot   -0.007346   -0.295556    2.669414
----------------------------------------
   Max    2.324533
   Res    0.911441    sqrt( Sum f_i^2 / 3N )
----------------------------------------
   Max    0.068159    constrained

Stress-tensor-Voigt (kbar):      -63.22      -10.79       18.15       -0.00        3.21        0.04
(Free)E + p*V (eV/cell)     -699.7601
Target enthalpy (eV/cell)     -703.6422
 
mulliken: Atomic and Orbital Populations:

Species: Si                  
Atom  Qatom  Qorb
               3s      3s      3py     3pz     3px     3py     3pz     3px     
               3Pdxy   3Pdyz   3Pdz2   3Pdxz   3Pdx2-y2
   1  3.922   0.819   0.375   0.552   0.567   0.517   0.265   0.099   0.223
              0.161   0.078   0.049   0.106   0.111
   2  4.250   0.903   0.328   0.792   0.981   0.732   0.063   0.029   0.120
              0.057   0.044   0.034   0.072   0.095
   3  3.974   0.756   0.358   0.595   0.742   0.551   0.193   0.147   0.230
              0.104   0.091   0.047   0.050   0.110
   4  3.864   0.746   0.358   0.562   0.615   0.492   0.205   0.200   0.259
              0.066   0.092   0.056   0.109   0.103
   5  3.860   0.620   0.411   0.634   0.542   0.571   0.123   0.227   0.224
              0.044   0.077   0.036   0.228   0.122
   6  3.872   0.632   0.386   0.719   0.643   0.694   0.111   0.174   0.178
              0.036   0.082   0.026   0.107   0.083

Species: H                   
Atom  Qatom  Qorb
               1s      1s      1Ppy    1Ppz    1Ppx    
   7  1.076   0.541   0.418   0.012   0.015   0.090
[...]
   4  3.863   0.746   0.358   0.561   0.615   0.492   0.205   0.200   0.259
              0.066   0.092   0.056   0.109   0.103
   5  3.860   0.620   0.411   0.634   0.542   0.571   0.123   0.227   0.224
              0.044   0.077   0.036   0.228   0.123
   6  3.872   0.631   0.386   0.719   0.643   0.694   0.111   0.174   0.178
              0.036   0.082   0.027   0.107   0.083

Species: H                   
Atom  Qatom  Qorb
               1s      1s      1Ppy    1Ppz    1Ppx    
   7  1.076   0.541   0.418   0.012   0.015   0.090
   8  1.076   0.541   0.418   0.012   0.015   0.090
   9  1.053   0.489   0.447   0.012   0.014   0.089
  10  1.053   0.489   0.447   0.012   0.014   0.089

mulliken: Qtot =       28.000

cgvc: Finished line minimization    9.  Mean atomic displacement =    0.0001

                     ====================================
                        Begin CG opt. move =     29
                     ====================================

outcoor: Atomic coordinates (scaled):                       
   -0.00016526    0.29235597    0.19050850   1       1  Si
   -0.00009576    0.85266192    0.02323156   1       2  Si
    0.49986190   -0.00331408    0.33140343   1       3  Si
    0.49990901    0.97979163    0.34520619   1       4  Si
    0.50000000    0.50000000    0.70710000   1       5  Si
    0.50000000    1.50000000    0.70710000   1       6  Si
    0.20200000    0.50000000    0.95470000   2       7  H
    0.79800000    0.50000000    0.95470000   2       8  H
    0.20200000    1.50000000    0.95470000   2       9  H
    0.79800000    1.50000000    0.95470000   2      10  H

superc: Internal auxiliary supercell:     5 x     3 x     2  =      30
superc: Number of atoms, orbitals, and projectors:    300   2940   3960

outcell: Unit cell vectors (Ang):
        3.818400    0.000000    0.000000
        0.000000    7.636800    0.000000
        0.000000    0.000000   11.455200

outcell: Cell vector modules (Ang)   :    3.818400    7.636800   11.455200
outcell: Cell angles (23,13,12) (deg):     90.0000     90.0000     90.0000
outcell: Cell volume (Ang**3)        :    334.0377
New_DM. Step:    30
Re-using DM from previous geometry...
Re-using DM without extrapolation (not allowed)
New grid distribution:   1
           1       1:    4    1:    4    1:    6
           2       1:    4    1:    4    7:   12
           3       1:    4    5:    8    1:    6
           4       1:    4    5:    8    7:   12

InitMesh: MESH =     8 x    16 x    24 =        3072
InitMesh: (bp) =     4 x     8 x    12 =         384
InitMesh: Mesh cutoff (required, used) =    10.000    12.132 Ry
ExtMesh (bp) on 0 =    20 x    20 x    22 =        8800
New grid distribution:   2
           1       1:    4    1:    3    1:    3
           2       1:    4    1:    3    4:   12
           3       1:    4    4:    8    1:    3
           4       1:    4    4:    8    4:   12
New grid distribution:   3
           1       1:    4    1:    4    1:    5
           2       1:    4    1:    4    6:   12
           3       1:    4    5:    8    1:    5
           4       1:    4    5:    8    6:   12
Setting up quadratic distribution...
ExtMesh (bp) on 0 =    20 x    19 x    19 =        7220
PhiOnMesh: Number of (b)points on node 0 =                   36
PhiOnMesh: nlist on node 0 =                 3422

   scf: iscf   Eharris(eV)      E_KS(eV)   FreeEng(eV)    dDmax  Ef(eV)
   scf:    1     -703.6424     -703.6422     -703.6422  0.00014 -4.2347
   scf:    2     -703.6425     -703.6424     -703.6424  0.00054 -4.2355
   scf:    3     -703.6424     -703.6423     -703.6423  0.00005 -4.2348

SCF Convergence by dMax criterion
max |DM_out - DM_in|:     0.00004739
SCF cycle converged after    3 iterations

Using DM_out to compute the final energy and forces

siesta: E_KS(eV) =             -703.6424

siesta: Atomic forces (eV/Ang):
     1   -0.004058    0.005731   -0.002521
     2   -0.002526    0.014246   -0.008768
     3   -0.011359   -0.046654    0.014567
     4   -0.002053   -0.000498   -0.000183
     5   -0.001101    0.146865    0.370722
     6   -0.001159   -0.408740   -0.987558
     7    2.231402   -0.105012    0.976411
     8   -2.231125   -0.104553    0.975363
     9    2.324624    0.080425    0.669658
    10   -2.324301    0.080498    0.668996
----------------------------------------
   Tot   -0.021655   -0.337692    2.676687
----------------------------------------
   Max    2.324624
   Res    0.911101    sqrt( Sum f_i^2 / 3N )
----------------------------------------
   Max    0.046654    constrained

Stress-tensor-Voigt (kbar):      -63.35      -10.21       18.05       -0.07        3.09        0.09
(Free)E + p*V (eV/cell)     -699.7841
Target enthalpy (eV/cell)     -703.6424
 
mulliken: Atomic and Orbital Populations:

Species: Si                  
Atom  Qatom  Qorb
               3s      3s      3py     3pz     3px     3py     3pz     3px     
               3Pdxy   3Pdyz   3Pdz2   3Pdxz   3Pdx2-y2
   1  3.923   0.820   0.375   0.554   0.568   0.519   0.264   0.098   0.222
              0.161   0.078   0.049   0.105   0.111
   2  4.250   0.904   0.328   0.791   0.982   0.732   0.062   0.029   0.120
              0.057   0.044   0.034   0.072   0.095
   3  3.973   0.755   0.359   0.594   0.742   0.551   0.194   0.147   0.230
              0.104   0.091   0.047   0.050   0.110
   4  3.864   0.746   0.358   0.561   0.615   0.492   0.205   0.200   0.259
              0.066   0.092   0.056   0.109   0.103
   5  3.860   0.620   0.411   0.634   0.542   0.571   0.123   0.227   0.224
              0.044   0.077   0.036   0.228   0.123
   6  3.872   0.631   0.386   0.719   0.643   0.694   0.111   0.174   0.178
              0.036   0.082   0.027   0.107   0.083

Species: H                   
Atom  Qatom  Qorb
               1s      1s      1Ppy    1Ppz    1Ppx    
   7  1.076   0.541   0.418   0.012   0.015   0.090
   8  1.076   0.541   0.418   0.012   0.015   0.090
   9  1.053   0.489   0.447   0.012   0.014   0.089
  10  1.053   0.489   0.447   0.012   0.014   0.089

mulliken: Qtot =       28.000

                     ====================================
                        Begin CG opt. move =     30
                     ====================================

outcoor: Atomic coordinates (scaled):                       
   -0.00016942    0.29236561    0.19050372   1       1  Si
   -0.00009895    0.85267921    0.02322186   1       2  Si
    0.49984740   -0.00338465    0.33142394   1       3  Si
    0.49990667    0.97979177    0.34520665   1       4  Si
    0.50000000    0.50000000    0.70710000   1       5  Si
    0.50000000    1.50000000    0.70710000   1       6  Si
    0.20200000    0.50000000    0.95470000   2       7  H
    0.79800000    0.50000000    0.95470000   2       8  H
    0.20200000    1.50000000    0.95470000   2       9  H
    0.79800000    1.50000000    0.95470000   2      10  H

superc: Internal auxiliary supercell:     5 x     3 x     2  =      30
superc: Number of atoms, orbitals, and projectors:    300   2940   3960

outcell: Unit cell vectors (Ang):
        3.818400    0.000000    0.000000
        0.000000    7.636800    0.000000
        0.000000    0.000000   11.455200

outcell: Cell vector modules (Ang)   :    3.818400    7.636800   11.455200
outcell: Cell angles (23,13,12) (deg):     90.0000     90.0000     90.0000
outcell: Cell volume (Ang**3)        :    334.0377
New_DM. Step:    31
Re-using DM from previous geometry...
Re-using DM without extrapolation (not allowed)
New grid distribution:   1
           1       1:    4    1:    4    1:    6
           2       1:    4    1:    4    7:   12
           3       1:    4    5:    8    1:    6
           4       1:    4    5:    8    7:   12

InitMesh: MESH =     8 x    16 x    24 =        3072
InitMesh: (bp) =     4 x     8 x    12 =         384
InitMesh: Mesh cutoff (required, used) =    10.000    12.132 Ry
ExtMesh (bp) on 0 =    20 x    20 x    22 =        8800
New grid distribution:   2
           1       1:    4    1:    3    1:    3
           2       1:    4    1:    3    4:   12
           3       1:    4    4:    8    1:    3
           4       1:    4    4:    8    4:   12
New grid distribution:   3
           1       1:    4    1:    4    1:    5
           2       1:    4    1:    4    6:   12
           3       1:    4    5:    8    1:    5
           4       1:    4    5:    8    6:   12
Setting up quadratic distribution...
ExtMesh (bp) on 0 =    20 x    19 x    19 =        7220
PhiOnMesh: Number of (b)points on node 0 =                   36
PhiOnMesh: nlist on node 0 =                 3422

   scf: iscf   Eharris(eV)      E_KS(eV)   FreeEng(eV)    dDmax  Ef(eV)
   scf:    1     -703.6425     -703.6421     -703.6421  0.00011 -4.2346
   scf:    2     -703.6425     -703.6424     -703.6424  0.00023 -4.2342
   scf:    3     -703.6425     -703.6423     -703.6423  0.00006 -4.2345

SCF Convergence by dMax criterion
max |DM_out - DM_in|:     0.00006326
SCF cycle converged after    3 iterations

Using DM_out to compute the final energy and forces

siesta: E_KS(eV) =             -703.6424

siesta: Atomic forces (eV/Ang):
     1   -0.004690    0.003833   -0.000842
     2   -0.002559    0.013153   -0.009072
     3   -0.011154   -0.042231    0.012086
     4   -0.002165   -0.001474   -0.000473
     5   -0.001173    0.145767    0.369527
     6   -0.001242   -0.409783   -0.987019
     7    2.231368   -0.105042    0.976647
     8   -2.231068   -0.104591    0.975543
     9    2.324718    0.080431    0.670468
    10   -2.324373    0.080548    0.669756
----------------------------------------
   Tot   -0.022337   -0.339390    2.676622
----------------------------------------
   Max    2.324718
   Res    0.911126    sqrt( Sum f_i^2 / 3N )
----------------------------------------
   Max    0.042231    constrained

Stress-tensor-Voigt (kbar):      -63.32      -10.20       18.03       -0.07        3.10        0.09
(Free)E + p*V (eV/cell)     -699.7862
Target enthalpy (eV/cell)     -703.6424
 
mulliken: Atomic and Orbital Populations:

Species: Si                  
Atom  Qatom  Qorb
               3s      3s      3py     3pz     3px     3py     3pz     3px     
               3Pdxy   3Pdyz   3Pdz2   3Pdxz   3Pdx2-y2
   1  3.923   0.820   0.375   0.554   0.568   0.519   0.264   0.098   0.222
              0.161   0.078   0.049   0.105   0.111
   2  4.250   0.904   0.328   0.791   0.982   0.732   0.062   0.028   0.120
              0.057   0.044   0.034   0.072   0.095
   3  3.973   0.755   0.359   0.593   0.742   0.551   0.194   0.147   0.230
              0.104   0.091   0.047   0.050   0.110
   4  3.864   0.746   0.358   0.561   0.615   0.492   0.205   0.200   0.259
              0.066   0.092   0.056   0.109   0.103
   5  3.860   0.620   0.411   0.634   0.542   0.571   0.123   0.227   0.224
              0.044   0.077   0.036   0.228   0.123
   6  3.872   0.631   0.386   0.719   0.643   0.694   0.111   0.175   0.178
              0.036   0.082   0.027   0.107   0.083

Species: H                   
Atom  Qatom  Qorb
               1s      1s      1Ppy    1Ppz    1Ppx    
   7  1.076   0.541   0.418   0.012   0.015   0.090
   8  1.076   0.541   0.418   0.012   0.015   0.090
   9  1.053   0.489   0.447   0.012   0.014   0.089
  10  1.053   0.489   0.447   0.012   0.014   0.089

mulliken: Qtot =       28.000

                     ====================================
                        Begin CG opt. move =     31
                     ====================================

outcoor: Atomic coordinates (scaled):                       
   -0.00017609    0.29238105    0.19049607   1       1  Si
   -0.00010405    0.85270689    0.02320634   1       2  Si
    0.49982419   -0.00349757    0.33145676   1       3  Si
    0.49990293    0.97979199    0.34520740   1       4  Si
    0.50000000    0.50000000    0.70710000   1       5  Si
    0.50000000    1.50000000    0.70710000   1       6  Si
    0.20200000    0.50000000    0.95470000   2       7  H
    0.79800000    0.50000000    0.95470000   2       8  H
    0.20200000    1.50000000    0.95470000   2       9  H
    0.79800000    1.50000000    0.95470000   2      10  H

superc: Internal auxiliary supercell:     5 x     3 x     2  =      30
superc: Number of atoms, orbitals, and projectors:    300   2940   3960

outcell: Unit cell vectors (Ang):
        3.818400    0.000000    0.000000
        0.000000    7.636800    0.000000
        0.000000    0.000000   11.455200

outcell: Cell vector modules (Ang)   :    3.818400    7.636800   11.455200
outcell: Cell angles (23,13,12) (deg):     90.0000     90.0000     90.0000
outcell: Cell volume (Ang**3)        :    334.0377
New_DM. Step:    32
Re-using DM from previous geometry...
Re-using DM without extrapolation (not allowed)
New grid distribution:   1
           1       1:    4    1:    4    1:    6
           2       1:    4    1:    4    7:   12
           3       1:    4    5:    8    1:    6
           4       1:    4    5:    8    7:   12

InitMesh: MESH =     8 x    16 x    24 =        3072
InitMesh: (bp) =     4 x     8 x    12 =         384
InitMesh: Mesh cutoff (required, used) =    10.000    12.132 Ry
ExtMesh (bp) on 0 =    20 x    20 x    22 =        8800
New grid distribution:   2
           1       1:    4    1:    3    1:    3
           2       1:    4    1:    3    4:   12
           3       1:    4    4:    8    1:    3
           4       1:    4    4:    8    4:   12
New grid distribution:   3
           1       1:    4    1:    4    1:    5
           2       1:    4    1:    4    6:   12
           3       1:    4    5:    8    1:    5
           4       1:    4    5:    8    6:   12
Setting up quadratic distribution...
ExtMesh (bp) on 0 =    20 x    19 x    19 =        7220
PhiOnMesh: Number of (b)points on node 0 =                   36
PhiOnMesh: nlist on node 0 =                 3422

   scf: iscf   Eharris(eV)      E_KS(eV)   FreeEng(eV)    dDmax  Ef(eV)
   scf:    1     -703.6425     -703.6420     -703.6420  0.00029 -4.2350
   scf:    2     -703.6425     -703.6424     -703.6424  0.00198 -4.2309
   scf:    3     -703.6425     -703.6421     -703.6421  0.00013 -4.2343
   scf:    4     -703.6425     -703.6423     -703.6423  0.00004 -4.2343

SCF Convergence by dMax criterion
max |DM_out - DM_in|:     0.00004399
SCF cycle converged after    4 iterations

Using DM_out to compute the final energy and forces

siesta: E_KS(eV) =             -703.6425

siesta: Atomic forces (eV/Ang):
     1   -0.005697    0.001512    0.000497
     2    0.009950   -0.011714    0.003036
     3   -0.004161    0.009064    0.003907
     4   -0.002350   -0.002243   -0.001177
     5   -0.001288    0.144701    0.368537
     6   -0.001378   -0.412420   -0.985519
     7    2.231366   -0.104942    0.977184
     8   -2.231026   -0.104505    0.975987
     9    2.324770    0.080347    0.671050
    10   -2.324390    0.080531    0.670257
----------------------------------------
   Tot   -0.004205   -0.319668    2.683761
----------------------------------------
   Max    2.324770
   Res    0.911120    sqrt( Sum f_i^2 / 3N )
----------------------------------------
   Max    0.011714    constrained

Stress-tensor-Voigt (kbar):      -63.18       -9.13       18.09       -0.12        2.89        0.16
(Free)E + p*V (eV/cell)     -699.8742
Target enthalpy (eV/cell)     -703.6425
 
mulliken: Atomic and Orbital Populations:

Species: Si                  
Atom  Qatom  Qorb
               3s      3s      3py     3pz     3px     3py     3pz     3px     
               3Pdxy   3Pdyz   3Pdz2   3Pdxz   3Pdx2-y2
   1  3.923   0.821   0.375   0.554   0.568   0.519   0.263   0.098   0.222
              0.161   0.078   0.049   0.105   0.111
   2  4.250   0.904   0.328   0.791   0.982   0.732   0.062   0.028   0.120
              0.057   0.044   0.034   0.072   0.095
   3  3.973   0.755   0.359   0.593   0.742   0.551   0.194   0.147   0.230
              0.104   0.091   0.047   0.050   0.109
   4  3.864   0.746   0.358   0.561   0.615   0.493   0.205   0.200   0.259
              0.066   0.092   0.056   0.109   0.103
   5  3.860   0.620   0.411   0.634   0.542   0.571   0.123   0.227   0.224
              0.044   0.077   0.036   0.228   0.123
   6  3.872   0.631   0.386   0.719   0.643   0.694   0.111   0.175   0.178
              0.036   0.082   0.027   0.107   0.083

Species: H                   
Atom  Qatom  Qorb
               1s      1s      1Ppy    1Ppz    1Ppx    
   7  1.076   0.541   0.418   0.012   0.015   0.090
   8  1.076   0.541   0.418   0.012   0.015   0.090
   9  1.053   0.489   0.447   0.012   0.014   0.089
  10  1.053   0.489   0.447   0.012   0.014   0.089

mulliken: Qtot =       28.000

outcoor: Relaxed atomic coordinates (scaled):               
   -0.00017609    0.29238105    0.19049607   1       1  Si
   -0.00010405    0.85270689    0.02320634   1       2  Si
    0.49982419   -0.00349757    0.33145676   1       3  Si
    0.49990293    0.97979199    0.34520740   1       4  Si
    0.50000000    0.50000000    0.70710000   1       5  Si
    0.50000000    1.50000000    0.70710000   1       6  Si
    0.20200000    0.50000000    0.95470000   2       7  H
    0.79800000    0.50000000    0.95470000   2       8  H
    0.20200000    1.50000000    0.95470000   2       9  H
    0.79800000    1.50000000    0.95470000   2      10  H

coxmol: Writing XMOL coordinates into file si2x1h.xyz                                                      

siesta: Program's energy decomposition (eV):
siesta: Ebs     =      -267.913690
siesta: Eions   =      1221.235657
siesta: Ena     =       369.209576
siesta: Ekin    =       305.885771
siesta: Enl     =        70.730091
siesta: DEna    =         0.382030
siesta: DUscf   =         2.266212
siesta: DUext   =         0.000000
siesta: Exc     =      -230.880484
siesta: eta*DQ  =         0.000000
siesta: Emadel  =         0.000000
siesta: Emeta   =         0.000000
siesta: Emolmec =         0.000000
siesta: Ekinion =         0.000000
siesta: Eharris =      -703.642461
siesta: Etot    =      -703.642461
siesta: FreeEng =      -703.642461

siesta: Final energy (eV):
siesta:  Band Struct. =    -267.913690
siesta:       Kinetic =     305.885771
siesta:       Hartree =     897.945161
siesta:    Ext. field =       0.000000
siesta:   Exch.-corr. =    -230.880484
siesta:  Ion-electron =   -2068.578933
siesta:       Ion-ion =     391.986025
siesta:       Ekinion =       0.000000
siesta:         Total =    -703.642461

siesta: Atomic forces (eV/Ang):
siesta:      1   -0.005697    0.001512    0.000497
siesta:      2    0.009950   -0.011714    0.003036
siesta:      3   -0.004161    0.009064    0.003907
siesta:      4   -0.002350   -0.002243   -0.001177
siesta:      5   -0.001288    0.144701    0.368537
siesta:      6   -0.001378   -0.412420   -0.985519
siesta:      7    2.231366   -0.104942    0.977184
siesta:      8   -2.231026   -0.104505    0.975987
siesta:      9    2.324770    0.080347    0.671050
siesta:     10   -2.324390    0.080531    0.670257
siesta: ----------------------------------------
siesta:    Tot   -0.004205   -0.319668    2.683761

siesta: Stress tensor (static) (eV/Ang**3):
siesta:    -0.039436   -0.000078    0.000098
siesta:    -0.000078   -0.005699    0.001803
siesta:     0.000098    0.001803    0.011292

siesta: Cell volume =        334.037723 Ang**3

siesta: Pressure (static):
siesta:                Solid            Molecule  Units
siesta:           0.00012286          0.00019810  Ry/Bohr**3
siesta:           0.01128093          0.01818900  eV/Ang**3
siesta:          18.07424004         29.14230022  kBar
(Free)E+ p_basis*V_orbitals  =        -698.933230
(Free)Eharris+ p_basis*V_orbitals  =        -698.933230

siesta: Electric dipole (a.u.)  =    0.000000    0.000000   -0.025579
siesta: Electric dipole (Debye) =    0.000000    0.000000   -0.065015

dhscf: Vacuum level (max, mean) =   -0.029226   -0.171648 eV
>> End of run:  29-SEP-2015  15:43:04
