Siesta Version: siesta-4.0--527
Architecture  : x86_64-linux-n-62-18-14
Compiler flags: mpifort -m64 -fPIC -O3 -march=native -ftree-vectorize -fexpensive-optimizatioons -funroll-loops -fprefetch-loop-arrays -fno-second-underscore 
PP flags      : -I/zdata/groups/common/nicpa/2016-oct/generic/build-tools/1.0/include -I/zdatta/groups/common/nicpa/2016-oct/generic/gmp/6.1.0/include -I/zdata/groups/common/nicpa/2016-oct/generic/mpfr/3.1.4/include -I/zdata/groups/common/nicpa/2016-oct/generic/mpc/1.0.3/include -I/zdata/groups/common/nicpa/2016-oct/generic/isl/0.16.1/include -I/zdata/groups/common/nicpa/2016-oct/generic/gcc/6.2.0/include -I/zdata/groups/common/nicpa/2016-oct/generic/numactl/2.0.11/include -I/zdata/groups/common/nicpa/2016-oct/XeonE5-2665/zlib/1.2.8/gnu-6.2.0/include -I/zdata/groups/common/nicpa/2016-oct/XeonE5-2665/libxml2/2.9.4/gnu-6.2.0/include -I/zdata/groups/common/nicpa/2016-oct/XeonE5-2665/hwloc/1.11.4/gnu-6.2.0/include -I/zdata/groups/common/nicpa/2016-oct/XeonE5-2665/openmpi/2.0.1/gnu-6.2.0/include -I/zdata/groups/common/nicpa/2016-oct/XeonE5-2665/hdf5/1.8.17/gnu-6.2.0/include -I/zdata/groups/common/nicpa/2016-oct/XeonE5-2665/pnetcdf/1.7.0/gnu-6.2.0/include -I/zdata/groups/common/nicpa/2016-oct/XeonE5-2665/netcdf/4.4.1/gnu-6.2.0/include -I/zdata/groups/common/nicpa/2016-oct/XeonE5-2665/flook/0.7.0/gnu-6.2.0/include -I/zdata/groups/common/nicpa/2016-oct/XeonE5-2665/parmetis/4.0.3/gnu-6.2.0/include -I/zdata/groups/common/nicpa/2016-oct/XeonE5-2665/scalapack/204/gnu-6.2.0/include -I/zdata/groups/common/nicpa/2016-oct/XeonE5-2665/openblas/0.2.19/gnu-6.2.0/include -I/zdata/groups/common/nicpa/2016-oct/XeonE5-2665/mumps/5.0.2/gnu-6.2.0/include -I/zdata/groups/common/nicpa/2016-oct/XeonE5-2665/fftw/3.3.5/gnu-6.2.0/include -DMPI -DFC_HAVE_FLUSH -DFC_HAVE_ABORT -DCDF  -DSIESTA__METIS -DSIESTA__MUMPS -DTS_NOCHECKS -DSIESTA__FLOOK  
PARALLEL version
NetCDF support

* Running on    8 nodes in parallel
>> Start of run:   3-JUL-2017   9:18:55

                           ***********************       
                           *  WELCOME TO SIESTA  *       
                           ***********************       

reinit: Reading from standard input
************************** Dump of input data file ****************************
# Si(100) - asymmetric 2x1 reconstruction
# Correction for slab dipole invoked
# Oscar Paz / Pablo Ordejon
%block Grid.CellSampling
 0.25 0. 0.
 0.5  0. 0.
 0.75 0. 0.
 0.25 0.25 0.
 0.5  0.25 0.
 0.75 0.25 0.
 0.25 0.5 0.
 0.5  0.5 0.
 0.75 0.5 0.
 0.25 0.75 0.
 0.5  0.75 0.
 0.75 0.75 0.
%endblock
SystemName              Si(100)-2x1 3 layers (H-saturated)
SystemLabel             si2x1h-dipole
NumberOfAtoms           10
NumberOfSpecies 2
%block ChemicalSpeciesLabel
        1       14      Si
        2       1       H
%endblock ChemicalSpeciesLabel
PAO.BasisType           split
PAO.BasisSize            SZ
PAO.EnergyShift 200 meV
PAO.SplitNorm           0.30
LatticeConstant 3.8184 Ang      # a_s = a_0 / sqrt(2) , a_0 = 5.40 Ang
%block LatticeParameters
        1.      2.      3.      90.     90.     90.
%endblock LatticeParameters
AtomicCoordinatesFormat ScaledCartesian
%block AtomicCoordinatesAndAtomicSpecies
   -0.00002372    0.29326368    0.19010387   1  Si        1
    0.00001337    0.85385554    0.02205212   1  Si        2
    0.49997747   -0.00525118    0.33008893   1  Si        3
    0.50001096    0.97940531    0.34402895   1  Si        4
    0.50000000    0.50000000    0.70710000   1  Si        5
    0.50000000    1.50000000    0.70710000   1  Si        6
    0.20200000    0.50000000    0.95470000   2  H         7
    0.79800000    0.50000000    0.95470000   2  H         8
    0.20200000    1.50000000    0.95470000   2  H         9
    0.79800000    1.50000000    0.95470000   2  H        10
%endblock AtomicCoordinatesAndAtomicSpecies
%block GeometryConstraints
        position from 5 to 10
%endblock GeometryConstraints
kgrid_cutoff            5.0 Ang
XC.functional           LDA
XC.authors              PZ
MeshCutoff              50. Ry
DM.MixingWeight 0.1
DM.NumberPulay  3
SolutionMethod  diagon
MD.TypeOfRun            CG
MD.NumCGsteps           0
MD.MaxCGDispl           0.02 Ang
MD.MaxForceTol  0.02 eV/Ang
WriteCoorStep           .true.
WriteForces             .true.
WriteMullikenPop        1
DM.UseSaveDM            .true.
SaveRho                 .true.
SaveDeltaRho            .true.
SaveIonicCharge         .true.
SaveElectrostaticPotential      .true.
SaveTotalPotential      .true.
SlabDipoleCorrection    .true.
************************** End of input data file *****************************

reinit: -----------------------------------------------------------------------
reinit: System Name: Si(100)-2x1 3 layers (H-saturated
reinit: -----------------------------------------------------------------------
reinit: System Label: si2x1h-dipole                                               
reinit: -----------------------------------------------------------------------

initatom: Reading input for the pseudopotentials and atomic orbitals ----------
 Species number:            1  Label: Si Atomic number:          14
 Species number:            2  Label: H Atomic number:           1
Ground state valence configuration:   3s02  3p02
Reading pseudopotential information in formatted form from Si.psf

Valence configuration for pseudopotential generation:
3s( 2.00) rc: 1.89
3p( 2.00) rc: 1.89
3d( 0.00) rc: 1.89
4f( 0.00) rc: 1.89
Ground state valence configuration:   1s01
Reading pseudopotential information in formatted form from H.psf

Valence configuration for pseudopotential generation:
1s( 1.00) rc: 1.25
2p( 0.00) rc: 1.25
3d( 0.00) rc: 1.25
4f( 0.00) rc: 1.25
For Si, standard SIESTA heuristics set lmxkb to 2
 (one more than the basis l, including polarization orbitals).
Use PS.lmax or PS.KBprojectors blocks to override.
For H, standard SIESTA heuristics set lmxkb to 1
 (one more than the basis l, including polarization orbitals).
Use PS.lmax or PS.KBprojectors blocks to override.

<basis_specs>
===============================================================================
Si                   Z=  14    Mass=  28.090        Charge= 0.17977+309
Lmxo=1 Lmxkb= 2    BasisType=split      Semic=F
L=0  Nsemic=0  Cnfigmx=3
          n=1  nzeta=1  polorb=0
            splnorm:   0.30000    
               vcte:    0.0000    
               rinn:    0.0000    
               qcoe:    0.0000    
               qyuk:    0.0000    
               qwid:   0.10000E-01
                rcs:    0.0000    
            lambdas:    1.0000    
L=1  Nsemic=0  Cnfigmx=3
          n=1  nzeta=1  polorb=0
            splnorm:   0.30000    
               vcte:    0.0000    
               rinn:    0.0000    
               qcoe:    0.0000    
               qyuk:    0.0000    
               qwid:   0.10000E-01
                rcs:    0.0000    
            lambdas:    1.0000    
-------------------------------------------------------------------------------
L=0  Nkbl=1  erefs: 0.17977+309
L=1  Nkbl=1  erefs: 0.17977+309
L=2  Nkbl=1  erefs: 0.17977+309
===============================================================================
</basis_specs>

atom: Called for Si                    (Z =  14)

read_vps: Pseudopotential generation method:
read_vps: ATM3      Troullier-Martins                       
Total valence charge:    4.00000

xc_check: Exchange-correlation functional:
xc_check: Ceperley-Alder
V l=0 = -2*Zval/r beyond r=  2.5494
V l=1 = -2*Zval/r beyond r=  2.5494
V l=2 = -2*Zval/r beyond r=  2.5494
All V_l potentials equal beyond r=  1.8652
This should be close to max(r_c) in ps generation
All pots = -2*Zval/r beyond r=  2.5494
Using large-core scheme for Vlocal

atom: Estimated core radius    2.54944

atom: Including non-local core corrections could be a good idea
atom: Maximum radius for 4*pi*r*r*local-pseudopot. charge    2.85303
atom: Maximum radius for r*vlocal+2*Zval:    2.58151
GHOST: No ghost state for L =  0
GHOST: No ghost state for L =  1
GHOST: No ghost state for L =  2

KBgen: Kleinman-Bylander projectors: 
   l= 0   rc=  1.936440   el= -0.796617   Ekb=  4.661340   kbcos=  0.299756
   l= 1   rc=  1.936440   el= -0.307040   Ekb=  1.494238   kbcos=  0.301471
   l= 2   rc=  1.936440   el=  0.002313   Ekb= -2.808672   kbcos= -0.054903

KBgen: Total number of  Kleinman-Bylander projectors:    9
atom: -------------------------------------------------------------------------

atom: SANKEY-TYPE ORBITALS:

SPLIT: Orbitals with angular momentum L= 0

SPLIT: Basis orbitals for state 3s

SPLIT: PAO cut-off radius determined from an
SPLIT: energy shift=  0.014700 Ry

   izeta = 1
                 lambda =    1.000000
                     rc =    5.264094
                 energy =   -0.784048
                kinetic =    0.554443
    potential(screened) =   -1.338491
       potential(ionic) =   -3.803943

SPLIT: Orbitals with angular momentum L= 1

SPLIT: Basis orbitals for state 3p

SPLIT: PAO cut-off radius determined from an
SPLIT: energy shift=  0.014700 Ry

   izeta = 1
                 lambda =    1.000000
                     rc =    6.429618
                 energy =   -0.291747
                kinetic =    0.864936
    potential(screened) =   -1.156682
       potential(ionic) =   -3.408656
atom: Total number of Sankey-type orbitals:  4

atm_pop: Valence configuration (for local Pseudopot. screening):
 3s( 2.00)                                                            
 3p( 2.00)                                                            
Vna: chval, zval:    4.00000   4.00000

Vna:  Cut-off radius for the neutral-atom potential:   6.429618

atom: _________________________________________________________________________

<basis_specs>
===============================================================================
H                    Z=   1    Mass=  1.0100        Charge= 0.17977+309
Lmxo=0 Lmxkb= 1    BasisType=split      Semic=F
L=0  Nsemic=0  Cnfigmx=1
          n=1  nzeta=1  polorb=0
            splnorm:   0.30000    
               vcte:    0.0000    
               rinn:    0.0000    
               qcoe:    0.0000    
               qyuk:    0.0000    
               qwid:   0.10000E-01
                rcs:    0.0000    
            lambdas:    1.0000    
-------------------------------------------------------------------------------
L=0  Nkbl=1  erefs: 0.17977+309
L=1  Nkbl=1  erefs: 0.17977+309
===============================================================================
</basis_specs>

atom: Called for H                     (Z =   1)

read_vps: Pseudopotential generation method:
read_vps: ATM3      Troullier-Martins                       
Total valence charge:    1.00000

xc_check: Exchange-correlation functional:
xc_check: Ceperley-Alder
V l=0 = -2*Zval/r beyond r=  1.2343
V l=1 = -2*Zval/r beyond r=  1.2189
All V_l potentials equal beyond r=  1.2343
This should be close to max(r_c) in ps generation
All pots = -2*Zval/r beyond r=  1.2343

VLOCAL1: 99.0% of the norm of Vloc inside     28.493 Ry
VLOCAL1: 99.9% of the norm of Vloc inside     64.935 Ry
atom: Maximum radius for 4*pi*r*r*local-pseudopot. charge    1.45251
atom: Maximum radius for r*vlocal+2*Zval:    1.21892
GHOST: No ghost state for L =  0
GHOST: No ghost state for L =  1

KBgen: Kleinman-Bylander projectors: 
   l= 0   rc=  1.364359   el= -0.467325   Ekb= -2.005361   kbcos= -0.336422
   l= 1   rc=  1.434438   el=  0.001430   Ekb= -0.501708   kbcos= -0.021697

KBgen: Total number of  Kleinman-Bylander projectors:    4
atom: -------------------------------------------------------------------------

atom: SANKEY-TYPE ORBITALS:

SPLIT: Orbitals with angular momentum L= 0

SPLIT: Basis orbitals for state 1s

SPLIT: PAO cut-off radius determined from an
SPLIT: energy shift=  0.014700 Ry

   izeta = 1
                 lambda =    1.000000
                     rc =    5.075940
                 energy =   -0.454238
                kinetic =    0.905976
    potential(screened) =   -1.360214
       potential(ionic) =   -1.894198
atom: Total number of Sankey-type orbitals:  1

atm_pop: Valence configuration (for local Pseudopot. screening):
 1s( 1.00)                                                            
Vna: chval, zval:    1.00000   1.00000

Vna:  Cut-off radius for the neutral-atom potential:   5.075940

atom: _________________________________________________________________________

prinput: Basis input ----------------------------------------------------------

PAO.BasisType split     

%block ChemicalSpeciesLabel
    1   14 Si                      # Species index, atomic number, species label
    2    1 H                       # Species index, atomic number, species label
%endblock ChemicalSpeciesLabel

%block PAO.Basis                 # Define Basis set
Si                    2                    # Species label, number of l-shells
 n=3   0   1                         # n, l, Nzeta 
   5.264   
   1.000   
 n=3   1   1                         # n, l, Nzeta 
   6.430   
   1.000   
H                     1                    # Species label, number of l-shells
 n=1   0   1                         # n, l, Nzeta 
   5.076   
   1.000   
%endblock PAO.Basis

prinput: ----------------------------------------------------------------------

Dumping basis to NetCDF file Si.ion.nc
Dumping basis to NetCDF file H.ion.nc
coor:   Atomic-coordinates input format  =     Cartesian coordinates
coor:                                          (in units of alat)

siesta: Atomic coordinates (Bohr) and species
siesta:     -0.00017   2.11611   1.37174  1        1
siesta:      0.00010   6.16119   0.15912  1        2
siesta:      3.60770  -0.03789   2.38183  1        3
siesta:      3.60795   7.06713   2.48242  1        4
siesta:      3.60787   3.60787   5.10224  1        5
siesta:      3.60787  10.82360   5.10224  1        6
siesta:      1.45758   3.60787   6.88886  2        7
siesta:      5.75816   3.60787   6.88886  2        8
siesta:      1.45758  10.82360   6.88886  2        9
siesta:      5.75816  10.82360   6.88886  2       10

siesta: System type = slab      

initatomlists: Number of atoms, orbitals, and projectors:     10    28    70

siesta: ******************** Simulation parameters ****************************
siesta:
siesta: The following are some of the parameters of the simulation.
siesta: A complete list of the parameters used, including default values,
siesta: can be found in file out.fdf
siesta:
redata: Non-Collinear-spin run           =     F
redata: SpinPolarized (Up/Down) run      =     F
redata: Number of spin components        =     1
redata: Long output                      =     F
redata: Number of Atomic Species         =        2
redata: Charge density info will appear in .RHO file
redata: Write Mulliken Pop.              =     Atomic and Orbital charges
redata: Mesh Cutoff                      =    50.0000  Ry
redata: Net charge of the system         =     0.0000 |e|
redata: Min. number of SCF Iter          =        0
redata: Max. number of SCF Iter          =       50
redata: Mix DM or H after convergence    =     F
redata: Recompute H after scf cycle      =     F
redata: Performing Pulay mixing using    =     3 iterations
redata: Mix DM in first SCF step ?       =     F
redata: Write Pulay info on disk?        =     F
redata: Discard 1st Pulay DM after  kick =     F
redata: New DM Mixing Weight             =     0.1000
redata: New DM Occupancy tolerance       = 0.000000000001
redata: No kicks to SCF
redata: DM Mixing Weight for Kicks       =     0.5000
redata: DM Tolerance for SCF             =     0.000100
redata: Require (free) Energy convergence in SCF =     F
redata: DM (free)Energy tolerance for SCF =     0.000010 eV
redata: Require Harris convergence for SCF =     F
redata: DM Harris energy tolerance for SCF =     0.000010 eV
redata: Using Saved Data (generic)   =     F
redata: Use continuation files for DM    =     T
redata: Neglect nonoverlap interactions  =     F
redata: Method of Calculation            =     Diagonalization
redata: Divide and Conquer               =     T
redata: Electronic Temperature           =     0.0019  Ry
redata: Fix the spin of the system       =     F
redata: Dynamics option                  =     Single-point calculation
redata: ***********************************************************************
Total number of electrons:    28.000000
Total ionic charge:    28.000000

* ProcessorY, Blocksize:    2   3


* Orbital distribution balance (max,min):     6     3

 Kpoints in:            3 . Kpoints trimmed:            3

siesta: k-grid: Number of k-points =     3
siesta: k-grid: Cutoff (effective) =     5.728 Ang
siesta: k-grid: Supercell and displacements
siesta: k-grid:    3   0   0      0.000
siesta: k-grid:    0   2   0      0.500
siesta: k-grid:    0   0   1      0.000
Naive supercell factors:     5    3    2

superc: Internal auxiliary supercell:     5 x     3 x     2  =      30
superc: Number of atoms, orbitals, and projectors:    300    840   2100

                     ====================================
                        Single-point calculation
                     ====================================

outcoor: Atomic coordinates (scaled):                       
   -0.00002372    0.29326368    0.19010387   1       1  Si
    0.00001337    0.85385554    0.02205212   1       2  Si
    0.49997747   -0.00525118    0.33008893   1       3  Si
    0.50001096    0.97940531    0.34402895   1       4  Si
    0.50000000    0.50000000    0.70710000   1       5  Si
    0.50000000    1.50000000    0.70710000   1       6  Si
    0.20200000    0.50000000    0.95470000   2       7  H
    0.79800000    0.50000000    0.95470000   2       8  H
    0.20200000    1.50000000    0.95470000   2       9  H
    0.79800000    1.50000000    0.95470000   2      10  H

superc: Internal auxiliary supercell:     5 x     3 x     2  =      30
superc: Number of atoms, orbitals, and projectors:    300    840   2100

outcell: Unit cell vectors (Ang):
        3.818400    0.000000    0.000000
        0.000000    7.636800    0.000000
        0.000000    0.000000   11.455200

outcell: Cell vector modules (Ang)   :    3.818400    7.636800   11.455200
outcell: Cell angles (23,13,12) (deg):     90.0000     90.0000     90.0000
outcell: Cell volume (Ang**3)        :    334.0377
New_DM. Step:     1
Initializing Density Matrix...
New grid distribution:   1
           1       1:    9    1:    9    1:    7
           2       1:    9    1:    9    8:   13
           3       1:    9    1:    9   14:   19
           4       1:    9    1:    9   20:   25
           5       1:    9   10:   18    1:    7
           6       1:    9   10:   18    8:   13
           7       1:    9   10:   18   14:   19
           8       1:    9   10:   18   20:   25

InitMesh: MESH =    18 x    36 x    50 =       32400
InitMesh: (bp) =     9 x    18 x    25 =        4050
InitMesh: Mesh cutoff (required, used) =    50.000    52.655 Ry
ExtMesh (bp) on 0 =    45 x    45 x    39 =       78975
New grid distribution:   2
           1       1:    9    9:   18    6:    8
           2       1:    9    1:    8    6:    8
           3       1:    9    1:    8    9:   25
           4       1:    9    9:   18    4:    5
           5       1:    9    9:   18    1:    3
           6       1:    9    1:    8    1:    3
           7       1:    9    9:   18    9:   25
           8       1:    9    1:    8    4:    5
New grid distribution:   3
           1       1:    9   10:   18    1:    5
           2       1:    9    1:    9    6:   10
           3       1:    9    1:    9   11:   20
           4       1:    9    1:    9   21:   25
           5       1:    9    1:    9    1:    5
           6       1:    9   10:   18    6:   10
           7       1:    9   10:   18   11:   20
           8       1:    9   10:   18   21:   25
Setting up quadratic distribution...
ExtMesh (bp) on 0 =    45 x    46 x    35 =       72450
PhiOnMesh: Number of (b)points on node 0 =                  270
PhiOnMesh: nlist on node 0 =                 6477

efield: SlabDipoleCorrection enabled.
efield: A dipole layer will be introduced in the vacuum
efield: region to compensate the system dipole
Dipole moment in unit cell   =     -0.0000      0.0000     -0.0000 D
Electric field for dipole correction =    0.000000   -0.000000    0.000000 Ry/Bohr/e

stepf: Fermi-Dirac step function

siesta: Program's energy decomposition (eV):
siesta: Ebs     =      -277.737790
siesta: Eions   =      1221.235657
siesta: Ena     =       369.290948
siesta: Ekin    =       281.018022
siesta: Enl     =        93.485096
siesta: DEna    =         0.000002
siesta: DUscf   =         0.000000
siesta: DUext   =         0.000000
siesta: Exc     =      -224.568024
siesta: eta*DQ  =         0.000000
siesta: Emadel  =         0.000000
siesta: Emeta   =         0.000000
siesta: Emolmec =         0.000000
siesta: Ekinion =         0.000000
siesta: Eharris =      -697.403486
siesta: Etot    =      -702.009613
siesta: FreeEng =      -702.009613

   scf: iscf   Eharris(eV)      E_KS(eV)   FreeEng(eV)    dDmax  Ef(eV)
   scf:    1     -697.4035     -702.0096     -702.0096  1.14849 -4.1241
timer: Routine,Calls,Time,% =    IterSCF     1       0.068  14.32
Dipole moment in unit cell   =     -0.0000      0.0000     -1.5872 D
Electric field for dipole correction =    0.000000   -0.000000    0.006962 Ry/Bohr/e
   scf:    2     -700.9596     -694.5448     -694.5448  1.34755 -5.8434
Dipole moment in unit cell   =     -0.0000      0.0000     -0.9533 D
Electric field for dipole correction =    0.000000   -0.000000    0.004182 Ry/Bohr/e
   scf:    3     -696.5013     -698.1118     -698.1118  0.37621 -4.9670
Dipole moment in unit cell   =     -0.0000      0.0000     -1.0942 D
Electric field for dipole correction =    0.000000   -0.000000    0.004800 Ry/Bohr/e
   scf:    4     -696.3977     -697.1456     -697.1456  0.23890 -5.0187
Dipole moment in unit cell   =     -0.0000      0.0000     -0.8848 D
Electric field for dipole correction =    0.000000   -0.000000    0.003881 Ry/Bohr/e
   scf:    5     -696.3681     -695.7491     -695.7491  0.18113 -4.9325
Dipole moment in unit cell   =     -0.0000      0.0000     -0.6246 D
Electric field for dipole correction =    0.000000   -0.000000    0.002740 Ry/Bohr/e
   scf:    6     -696.3077     -695.5025     -695.5025  0.11754 -4.9368
Dipole moment in unit cell   =     -0.0000      0.0000     -0.3347 D
Electric field for dipole correction =    0.000000   -0.000000    0.001468 Ry/Bohr/e
   scf:    7     -696.2437     -695.7972     -695.7972  0.03704 -4.6783
Dipole moment in unit cell   =     -0.0000      0.0000     -0.3697 D
Electric field for dipole correction =    0.000000   -0.000000    0.001622 Ry/Bohr/e
   scf:    8     -696.2407     -695.9499     -695.9499  0.02546 -4.6561
Dipole moment in unit cell   =     -0.0000      0.0000     -0.4128 D
Electric field for dipole correction =    0.000000   -0.000000    0.001811 Ry/Bohr/e
   scf:    9     -696.2398     -696.0337     -696.0337  0.02448 -4.8592
Dipole moment in unit cell   =     -0.0000      0.0000     -0.4455 D
Electric field for dipole correction =    0.000000   -0.000000    0.001954 Ry/Bohr/e
   scf:   10     -696.2395     -696.1015     -696.1015  0.02114 -4.8613
Dipole moment in unit cell   =     -0.0000      0.0000     -0.4505 D
Electric field for dipole correction =    0.000000   -0.000000    0.001976 Ry/Bohr/e
   scf:   11     -696.2396     -696.1371     -696.1371  0.01522 -4.8658
Dipole moment in unit cell   =     -0.0000      0.0000     -0.4402 D
Electric field for dipole correction =    0.000000   -0.000000    0.001931 Ry/Bohr/e
   scf:   12     -696.2398     -696.1590     -696.1590  0.00774 -4.8689
Dipole moment in unit cell   =     -0.0000      0.0000     -0.4355 D
Electric field for dipole correction =    0.000000   -0.000000    0.001910 Ry/Bohr/e
   scf:   13     -696.2396     -696.1617     -696.1617  0.00722 -4.8669
Dipole moment in unit cell   =     -0.0000      0.0000     -0.4335 D
Electric field for dipole correction =    0.000000   -0.000000    0.001902 Ry/Bohr/e
   scf:   14     -696.2395     -696.1669     -696.1669  0.00568 -4.8635
Dipole moment in unit cell   =     -0.0000      0.0000     -0.4349 D
Electric field for dipole correction =    0.000000   -0.000000    0.001908 Ry/Bohr/e
   scf:   15     -696.2394     -696.1763     -696.1763  0.00429 -4.8623
Dipole moment in unit cell   =     -0.0000      0.0000     -0.4378 D
Electric field for dipole correction =    0.000000   -0.000000    0.001920 Ry/Bohr/e
   scf:   16     -696.2394     -696.1934     -696.1934  0.00389 -4.8621
Dipole moment in unit cell   =     -0.0000      0.0000     -0.4395 D
Electric field for dipole correction =    0.000000   -0.000000    0.001928 Ry/Bohr/e
   scf:   17     -696.2394     -696.2098     -696.2098  0.00318 -4.8625
Dipole moment in unit cell   =     -0.0000      0.0000     -0.4395 D
Electric field for dipole correction =    0.000000   -0.000000    0.001928 Ry/Bohr/e
   scf:   18     -696.2394     -696.2194     -696.2194  0.00221 -4.8629
Dipole moment in unit cell   =     -0.0000      0.0000     -0.4388 D
Electric field for dipole correction =    0.000000   -0.000000    0.001925 Ry/Bohr/e
   scf:   19     -696.2394     -696.2246     -696.2246  0.00127 -4.8632
Dipole moment in unit cell   =     -0.0000      0.0000     -0.4389 D
Electric field for dipole correction =    0.000000   -0.000000    0.001925 Ry/Bohr/e
   scf:   20     -696.2394     -696.2268     -696.2268  0.00116 -4.8629
Dipole moment in unit cell   =     -0.0000      0.0000     -0.4393 D
Electric field for dipole correction =    0.000000   -0.000000    0.001927 Ry/Bohr/e
   scf:   21     -696.2394     -696.2276     -696.2276  0.00103 -4.8625
Dipole moment in unit cell   =     -0.0000      0.0000     -0.4393 D
Electric field for dipole correction =    0.000000   -0.000000    0.001927 Ry/Bohr/e
   scf:   22     -696.2394     -696.2286     -696.2286  0.00074 -4.8622
Dipole moment in unit cell   =     -0.0000      0.0000     -0.4391 D
Electric field for dipole correction =    0.000000   -0.000000    0.001926 Ry/Bohr/e
   scf:   23     -696.2394     -696.2305     -696.2305  0.00060 -4.8622
Dipole moment in unit cell   =     -0.0000      0.0000     -0.4389 D
Electric field for dipole correction =    0.000000   -0.000000    0.001925 Ry/Bohr/e
   scf:   24     -696.2394     -696.2324     -696.2324  0.00053 -4.8622
Dipole moment in unit cell   =     -0.0000      0.0000     -0.4391 D
Electric field for dipole correction =    0.000000   -0.000000    0.001926 Ry/Bohr/e
   scf:   25     -696.2394     -696.2347     -696.2347  0.00040 -4.8624
Dipole moment in unit cell   =     -0.0000      0.0000     -0.4394 D
Electric field for dipole correction =    0.000000   -0.000000    0.001927 Ry/Bohr/e
   scf:   26     -696.2394     -696.2362     -696.2362  0.00030 -4.8624
Dipole moment in unit cell   =     -0.0000      0.0000     -0.4396 D
Electric field for dipole correction =    0.000000   -0.000000    0.001928 Ry/Bohr/e
   scf:   27     -696.2394     -696.2370     -696.2370  0.00024 -4.8623
Dipole moment in unit cell   =     -0.0000      0.0000     -0.4396 D
Electric field for dipole correction =    0.000000   -0.000000    0.001928 Ry/Bohr/e
   scf:   28     -696.2394     -696.2373     -696.2373  0.00017 -4.8622
Dipole moment in unit cell   =     -0.0000      0.0000     -0.4394 D
Electric field for dipole correction =    0.000000   -0.000000    0.001927 Ry/Bohr/e
   scf:   29     -696.2394     -696.2374     -696.2374  0.00014 -4.8621
Dipole moment in unit cell   =     -0.0000      0.0000     -0.4392 D
Electric field for dipole correction =    0.000000   -0.000000    0.001927 Ry/Bohr/e
   scf:   30     -696.2394     -696.2376     -696.2376  0.00011 -4.8622
Dipole moment in unit cell   =     -0.0000      0.0000     -0.4393 D
Electric field for dipole correction =    0.000000   -0.000000    0.001927 Ry/Bohr/e
   scf:   31     -696.2394     -696.2379     -696.2379  0.00009 -4.8622

SCF Convergence by dMax criterion
max |DM_out - DM_in|:     0.00009052
SCF cycle converged after   31 iterations

Using DM_out to compute the final energy and forces

grdsam: Reading %block Grid.CellSampling
grdsam: Grid-cell sampling: 0 / 12
Dipole moment in unit cell   =     -0.0000      0.0000     -0.4396 D
Electric field for dipole correction =    0.000000   -0.000000    0.001928 Ry/Bohr/e
grdsam: Grid-cell sampling: 1 / 12
New grid distribution:   1
           1       1:    9    1:    9    1:    7
           2       1:    9    1:    9    8:   13
           3       1:    9    1:    9   14:   19
           4       1:    9    1:    9   20:   25
           5       1:    9   10:   18    1:    7
           6       1:    9   10:   18    8:   13
           7       1:    9   10:   18   14:   19
           8       1:    9   10:   18   20:   25

InitMesh: MESH =    18 x    36 x    50 =       32400
InitMesh: (bp) =     9 x    18 x    25 =        4050
InitMesh: Mesh cutoff (required, used) =    50.000    52.655 Ry
ExtMesh (bp) on 0 =    45 x    45 x    39 =       78975
New grid distribution:   2
           1       1:    9    9:   18    6:    8
           2       1:    9    1:    8    6:    8
           3       1:    9    1:    8    9:   25
           4       1:    9    9:   18    4:    5
           5       1:    9    9:   18    1:    3
           6       1:    9    1:    8    1:    3
           7       1:    9    9:   18    9:   25
           8       1:    9    1:    8    4:    5
New grid distribution:   3
           1       1:    9   10:   18    1:    5
           2       1:    9    1:    9    6:   10
           3       1:    9    1:    9   11:   20
           4       1:    9    1:    9   21:   25
           5       1:    9    1:    9    1:    5
           6       1:    9   10:   18    6:   10
           7       1:    9   10:   18   11:   20
           8       1:    9   10:   18   21:   25
Setting up quadratic distribution...
ExtMesh (bp) on 0 =    45 x    46 x    35 =       72450
PhiOnMesh: Number of (b)points on node 0 =                  270
PhiOnMesh: nlist on node 0 =                 6486
Dipole moment in unit cell   =     -0.0000      0.0000     -0.4398 D
Electric field for dipole correction =    0.000000   -0.000000    0.001929 Ry/Bohr/e
grdsam: Grid-cell sampling: 2 / 12
New grid distribution:   1
           1       1:    9    1:    9    1:    7
           2       1:    9    1:    9    8:   13
           3       1:    9    1:    9   14:   19
           4       1:    9    1:    9   20:   25
           5       1:    9   10:   18    1:    7
           6       1:    9   10:   18    8:   13
           7       1:    9   10:   18   14:   19
           8       1:    9   10:   18   20:   25

InitMesh: MESH =    18 x    36 x    50 =       32400
InitMesh: (bp) =     9 x    18 x    25 =        4050
InitMesh: Mesh cutoff (required, used) =    50.000    52.655 Ry
ExtMesh (bp) on 0 =    45 x    45 x    39 =       78975
New grid distribution:   2
           1       1:    9    9:   18    6:    8
           2       1:    9    1:    8    6:    8
           3       1:    9    1:    8    9:   25
           4       1:    9    9:   18    4:    5
           5       1:    9    9:   18    1:    3
           6       1:    9    1:    8    1:    3
           7       1:    9    9:   18    9:   25
           8       1:    9    1:    8    4:    5
New grid distribution:   3
           1       1:    9   10:   18    1:    5
           2       1:    9    1:    9    6:   10
           3       1:    9    1:    9   11:   20
           4       1:    9    1:    9   21:   25
           5       1:    9    1:    9    1:    5
           6       1:    9   10:   18    6:   10
           7       1:    9   10:   18   11:   20
           8       1:    9   10:   18   21:   25
Setting up quadratic distribution...
ExtMesh (bp) on 0 =    45 x    46 x    35 =       72450
PhiOnMesh: Number of (b)points on node 0 =                  270
PhiOnMesh: nlist on node 0 =                 6484
Dipole moment in unit cell   =     -0.0000      0.0000     -0.4399 D
Electric field for dipole correction =    0.000000   -0.000000    0.001930 Ry/Bohr/e
grdsam: Grid-cell sampling: 3 / 12
New grid distribution:   1
           1       1:    9    1:    9    1:    7
           2       1:    9    1:    9    8:   13
           3       1:    9    1:    9   14:   19
           4       1:    9    1:    9   20:   25
           5       1:    9   10:   18    1:    7
           6       1:    9   10:   18    8:   13
           7       1:    9   10:   18   14:   19
           8       1:    9   10:   18   20:   25

InitMesh: MESH =    18 x    36 x    50 =       32400
InitMesh: (bp) =     9 x    18 x    25 =        4050
InitMesh: Mesh cutoff (required, used) =    50.000    52.655 Ry
ExtMesh (bp) on 0 =    45 x    45 x    39 =       78975
New grid distribution:   2
           1       1:    9    9:   18    6:    8
           2       1:    9    1:    8    6:    8
           3       1:    9    1:    8    9:   25
           4       1:    9    9:   18    4:    5
           5       1:    9    9:   18    1:    3
           6       1:    9    1:    8    1:    3
           7       1:    9    9:   18    9:   25
           8       1:    9    1:    8    4:    5
New grid distribution:   3
           1       1:    9   10:   18    1:    5
           2       1:    9    1:    9    6:   10
           3       1:    9    1:    9   11:   20
           4       1:    9    1:    9   21:   25
           5       1:    9    1:    9    1:    5
           6       1:    9   10:   18    6:   10
           7       1:    9   10:   18   11:   20
           8       1:    9   10:   18   21:   25
Setting up quadratic distribution...
ExtMesh (bp) on 0 =    45 x    46 x    35 =       72450
PhiOnMesh: Number of (b)points on node 0 =                  270
PhiOnMesh: nlist on node 0 =                 6486
Dipole moment in unit cell   =     -0.0000      0.0000     -0.4398 D
Electric field for dipole correction =    0.000000   -0.000000    0.001929 Ry/Bohr/e
grdsam: Grid-cell sampling: 4 / 12
New grid distribution:   1
           1       1:    9    1:    9    1:    7
           2       1:    9    1:    9    8:   13
           3       1:    9    1:    9   14:   19
           4       1:    9    1:    9   20:   25
           5       1:    9   10:   18    1:    7
           6       1:    9   10:   18    8:   13
           7       1:    9   10:   18   14:   19
           8       1:    9   10:   18   20:   25

InitMesh: MESH =    18 x    36 x    50 =       32400
InitMesh: (bp) =     9 x    18 x    25 =        4050
InitMesh: Mesh cutoff (required, used) =    50.000    52.655 Ry
ExtMesh (bp) on 0 =    45 x    45 x    39 =       78975
New grid distribution:   2
           1       1:    9    9:   18    6:    8
           2       1:    9    1:    8    6:    8
           3       1:    9    1:    8    9:   25
           4       1:    9    9:   18    4:    5
           5       1:    9    9:   18    1:    3
           6       1:    9    1:    8    1:    3
           7       1:    9    9:   18    9:   25
           8       1:    9    1:    8    4:    5
New grid distribution:   3
           1       1:    9   10:   18    1:    5
           2       1:    9    1:    9    6:   10
           3       1:    9    1:    9   11:   20
           4       1:    9    1:    9   21:   25
           5       1:    9    1:    9    1:    5
           6       1:    9   10:   18    6:   10
           7       1:    9   10:   18   11:   20
           8       1:    9   10:   18   21:   25
Setting up quadratic distribution...
ExtMesh (bp) on 0 =    45 x    46 x    35 =       72450
PhiOnMesh: Number of (b)points on node 0 =                  270
PhiOnMesh: nlist on node 0 =                 6434
Dipole moment in unit cell   =     -0.0000      0.0000     -0.4402 D
Electric field for dipole correction =    0.000000   -0.000000    0.001931 Ry/Bohr/e
grdsam: Grid-cell sampling: 5 / 12
New grid distribution:   1
           1       1:    9    1:    9    1:    7
           2       1:    9    1:    9    8:   13
           3       1:    9    1:    9   14:   19
           4       1:    9    1:    9   20:   25
           5       1:    9   10:   18    1:    7
           6       1:    9   10:   18    8:   13
           7       1:    9   10:   18   14:   19
           8       1:    9   10:   18   20:   25

InitMesh: MESH =    18 x    36 x    50 =       32400
InitMesh: (bp) =     9 x    18 x    25 =        4050
InitMesh: Mesh cutoff (required, used) =    50.000    52.655 Ry
ExtMesh (bp) on 0 =    45 x    45 x    39 =       78975
New grid distribution:   2
           1       1:    9    9:   18    6:    8
           2       1:    9    1:    8    6:    8
           3       1:    9    1:    8    9:   25
           4       1:    9    9:   18    4:    5
           5       1:    9    9:   18    1:    3
           6       1:    9    1:    8    1:    3
           7       1:    9    9:   18    9:   25
           8       1:    9    1:    8    4:    5
New grid distribution:   3
           1       1:    9   10:   18    1:    5
           2       1:    9    1:    9    6:   10
           3       1:    9    1:    9   11:   20
           4       1:    9    1:    9   21:   25
           5       1:    9    1:    9    1:    5
           6       1:    9   10:   18    6:   10
           7       1:    9   10:   18   11:   20
           8       1:    9   10:   18   21:   25
Setting up quadratic distribution...
ExtMesh (bp) on 0 =    45 x    46 x    35 =       72450
PhiOnMesh: Number of (b)points on node 0 =                  270
PhiOnMesh: nlist on node 0 =                 6438
Dipole moment in unit cell   =     -0.0000      0.0000     -0.4401 D
Electric field for dipole correction =    0.000000   -0.000000    0.001930 Ry/Bohr/e
grdsam: Grid-cell sampling: 6 / 12
New grid distribution:   1
           1       1:    9    1:    9    1:    7
           2       1:    9    1:    9    8:   13
           3       1:    9    1:    9   14:   19
           4       1:    9    1:    9   20:   25
           5       1:    9   10:   18    1:    7
           6       1:    9   10:   18    8:   13
           7       1:    9   10:   18   14:   19
           8       1:    9   10:   18   20:   25

InitMesh: MESH =    18 x    36 x    50 =       32400
InitMesh: (bp) =     9 x    18 x    25 =        4050
InitMesh: Mesh cutoff (required, used) =    50.000    52.655 Ry
ExtMesh (bp) on 0 =    45 x    45 x    39 =       78975
New grid distribution:   2
           1       1:    9    9:   18    6:    8
           2       1:    9    1:    8    6:    8
           3       1:    9    1:    8    9:   25
           4       1:    9    9:   18    4:    5
           5       1:    9    9:   18    1:    3
           6       1:    9    1:    8    1:    3
           7       1:    9    9:   18    9:   25
           8       1:    9    1:    8    4:    5
New grid distribution:   3
           1       1:    9   10:   18    1:    5
           2       1:    9    1:    9    6:   10
           3       1:    9    1:    9   11:   20
           4       1:    9    1:    9   21:   25
           5       1:    9    1:    9    1:    5
           6       1:    9   10:   18    6:   10
           7       1:    9   10:   18   11:   20
           8       1:    9   10:   18   21:   25
Setting up quadratic distribution...
ExtMesh (bp) on 0 =    45 x    46 x    35 =       72450
PhiOnMesh: Number of (b)points on node 0 =                  270
PhiOnMesh: nlist on node 0 =                 6434
Dipole moment in unit cell   =     -0.0000      0.0000     -0.4402 D
Electric field for dipole correction =    0.000000   -0.000000    0.001931 Ry/Bohr/e
grdsam: Grid-cell sampling: 7 / 12
New grid distribution:   1
           1       1:    9    1:    9    1:    7
           2       1:    9    1:    9    8:   13
           3       1:    9    1:    9   14:   19
           4       1:    9    1:    9   20:   25
           5       1:    9   10:   18    1:    7
           6       1:    9   10:   18    8:   13
           7       1:    9   10:   18   14:   19
           8       1:    9   10:   18   20:   25

InitMesh: MESH =    18 x    36 x    50 =       32400
InitMesh: (bp) =     9 x    18 x    25 =        4050
InitMesh: Mesh cutoff (required, used) =    50.000    52.655 Ry
ExtMesh (bp) on 0 =    45 x    45 x    39 =       78975
New grid distribution:   2
           1       1:    9    9:   18    6:    8
           2       1:    9    1:    8    6:    8
           3       1:    9    1:    8    9:   25
           4       1:    9    9:   18    4:    5
           5       1:    9    9:   18    1:    3
           6       1:    9    1:    8    1:    3
           7       1:    9    9:   18    9:   25
           8       1:    9    1:    8    4:    5
New grid distribution:   3
           1       1:    9   10:   18    1:    5
           2       1:    9    1:    9    6:   10
           3       1:    9    1:    9   11:   20
           4       1:    9    1:    9   21:   25
           5       1:    9    1:    9    1:    5
           6       1:    9   10:   18    6:   10
           7       1:    9   10:   18   11:   20
           8       1:    9   10:   18   21:   25
Setting up quadratic distribution...
ExtMesh (bp) on 0 =    45 x    46 x    35 =       72450
PhiOnMesh: Number of (b)points on node 0 =                  270
PhiOnMesh: nlist on node 0 =                 6455
Dipole moment in unit cell   =     -0.0000      0.0000     -0.4405 D
Electric field for dipole correction =    0.000000   -0.000000    0.001932 Ry/Bohr/e
grdsam: Grid-cell sampling: 8 / 12
New grid distribution:   1
           1       1:    9    1:    9    1:    7
           2       1:    9    1:    9    8:   13
           3       1:    9    1:    9   14:   19
           4       1:    9    1:    9   20:   25
           5       1:    9   10:   18    1:    7
           6       1:    9   10:   18    8:   13
           7       1:    9   10:   18   14:   19
           8       1:    9   10:   18   20:   25

InitMesh: MESH =    18 x    36 x    50 =       32400
InitMesh: (bp) =     9 x    18 x    25 =        4050
InitMesh: Mesh cutoff (required, used) =    50.000    52.655 Ry
ExtMesh (bp) on 0 =    45 x    45 x    39 =       78975
New grid distribution:   2
           1       1:    9    9:   18    6:    8
           2       1:    9    1:    8    6:    8
           3       1:    9    1:    8    9:   25
           4       1:    9    9:   18    4:    5
           5       1:    9    9:   18    1:    3
           6       1:    9    1:    8    1:    3
           7       1:    9    9:   18    9:   25
           8       1:    9    1:    8    4:    5
New grid distribution:   3
           1       1:    9   10:   18    1:    5
           2       1:    9    1:    9    6:   10
           3       1:    9    1:    9   11:   20
           4       1:    9    1:    9   21:   25
           5       1:    9    1:    9    1:    5
           6       1:    9   10:   18    6:   10
           7       1:    9   10:   18   11:   20
           8       1:    9   10:   18   21:   25
Setting up quadratic distribution...
ExtMesh (bp) on 0 =    45 x    46 x    35 =       72450
PhiOnMesh: Number of (b)points on node 0 =                  270
PhiOnMesh: nlist on node 0 =                 6441
Dipole moment in unit cell   =     -0.0000      0.0000     -0.4408 D
Electric field for dipole correction =    0.000000   -0.000000    0.001934 Ry/Bohr/e
grdsam: Grid-cell sampling: 9 / 12
New grid distribution:   1
           1       1:    9    1:    9    1:    7
           2       1:    9    1:    9    8:   13
           3       1:    9    1:    9   14:   19
           4       1:    9    1:    9   20:   25
           5       1:    9   10:   18    1:    7
           6       1:    9   10:   18    8:   13
           7       1:    9   10:   18   14:   19
           8       1:    9   10:   18   20:   25

InitMesh: MESH =    18 x    36 x    50 =       32400
InitMesh: (bp) =     9 x    18 x    25 =        4050
InitMesh: Mesh cutoff (required, used) =    50.000    52.655 Ry
ExtMesh (bp) on 0 =    45 x    45 x    39 =       78975
New grid distribution:   2
           1       1:    9    9:   18    6:    8
           2       1:    9    1:    8    6:    8
           3       1:    9    1:    8    9:   25
           4       1:    9    9:   18    4:    5
           5       1:    9    9:   18    1:    3
           6       1:    9    1:    8    1:    3
           7       1:    9    9:   18    9:   25
           8       1:    9    1:    8    4:    5
New grid distribution:   3
           1       1:    9   10:   18    1:    5
           2       1:    9    1:    9    6:   10
           3       1:    9    1:    9   11:   20
           4       1:    9    1:    9   21:   25
           5       1:    9    1:    9    1:    5
           6       1:    9   10:   18    6:   10
           7       1:    9   10:   18   11:   20
           8       1:    9   10:   18   21:   25
Setting up quadratic distribution...
ExtMesh (bp) on 0 =    45 x    46 x    35 =       72450
PhiOnMesh: Number of (b)points on node 0 =                  270
PhiOnMesh: nlist on node 0 =                 6452
Dipole moment in unit cell   =     -0.0000      0.0000     -0.4405 D
Electric field for dipole correction =    0.000000   -0.000000    0.001932 Ry/Bohr/e
grdsam: Grid-cell sampling: 10 / 12
New grid distribution:   1
           1       1:    9    1:    9    1:    7
           2       1:    9    1:    9    8:   13
           3       1:    9    1:    9   14:   19
           4       1:    9    1:    9   20:   25
           5       1:    9   10:   18    1:    7
           6       1:    9   10:   18    8:   13
           7       1:    9   10:   18   14:   19
           8       1:    9   10:   18   20:   25

InitMesh: MESH =    18 x    36 x    50 =       32400
InitMesh: (bp) =     9 x    18 x    25 =        4050
InitMesh: Mesh cutoff (required, used) =    50.000    52.655 Ry
ExtMesh (bp) on 0 =    45 x    45 x    39 =       78975
New grid distribution:   2
           1       1:    9    9:   18    6:    8
           2       1:    9    1:    8    6:    8
           3       1:    9    1:    8    9:   25
           4       1:    9    9:   18    4:    5
           5       1:    9    9:   18    1:    3
           6       1:    9    1:    8    1:    3
           7       1:    9    9:   18    9:   25
           8       1:    9    1:    8    4:    5
New grid distribution:   3
           1       1:    9   10:   18    1:    5
           2       1:    9    1:    9    6:   10
           3       1:    9    1:    9   11:   20
           4       1:    9    1:    9   21:   25
           5       1:    9    1:    9    1:    5
           6       1:    9   10:   18    6:   10
           7       1:    9   10:   18   11:   20
           8       1:    9   10:   18   21:   25
Setting up quadratic distribution...
ExtMesh (bp) on 0 =    45 x    46 x    35 =       72450
PhiOnMesh: Number of (b)points on node 0 =                  270
PhiOnMesh: nlist on node 0 =                 6455
Dipole moment in unit cell   =     -0.0000      0.0000     -0.4403 D
Electric field for dipole correction =    0.000000   -0.000000    0.001931 Ry/Bohr/e
grdsam: Grid-cell sampling: 11 / 12
New grid distribution:   1
           1       1:    9    1:    9    1:    7
           2       1:    9    1:    9    8:   13
           3       1:    9    1:    9   14:   19
           4       1:    9    1:    9   20:   25
           5       1:    9   10:   18    1:    7
           6       1:    9   10:   18    8:   13
           7       1:    9   10:   18   14:   19
           8       1:    9   10:   18   20:   25

InitMesh: MESH =    18 x    36 x    50 =       32400
InitMesh: (bp) =     9 x    18 x    25 =        4050
InitMesh: Mesh cutoff (required, used) =    50.000    52.655 Ry
ExtMesh (bp) on 0 =    45 x    45 x    39 =       78975
New grid distribution:   2
           1       1:    9    9:   18    6:    8
           2       1:    9    1:    8    6:    8
           3       1:    9    1:    8    9:   25
           4       1:    9    9:   18    4:    5
           5       1:    9    9:   18    1:    3
           6       1:    9    1:    8    1:    3
           7       1:    9    9:   18    9:   25
           8       1:    9    1:    8    4:    5
New grid distribution:   3
           1       1:    9   10:   18    1:    5
           2       1:    9    1:    9    6:   10
           3       1:    9    1:    9   11:   20
           4       1:    9    1:    9   21:   25
           5       1:    9    1:    9    1:    5
           6       1:    9   10:   18    6:   10
           7       1:    9   10:   18   11:   20
           8       1:    9   10:   18   21:   25
Setting up quadratic distribution...
ExtMesh (bp) on 0 =    45 x    46 x    35 =       72450
PhiOnMesh: Number of (b)points on node 0 =                  270
PhiOnMesh: nlist on node 0 =                 6465
Dipole moment in unit cell   =     -0.0000      0.0000     -0.4405 D
Electric field for dipole correction =    0.000000   -0.000000    0.001932 Ry/Bohr/e
grdsam: Grid-cell sampling: 12 / 12
New grid distribution:   1
           1       1:    9    1:    9    1:    7
           2       1:    9    1:    9    8:   13
           3       1:    9    1:    9   14:   19
           4       1:    9    1:    9   20:   25
           5       1:    9   10:   18    1:    7
           6       1:    9   10:   18    8:   13
           7       1:    9   10:   18   14:   19
           8       1:    9   10:   18   20:   25

InitMesh: MESH =    18 x    36 x    50 =       32400
InitMesh: (bp) =     9 x    18 x    25 =        4050
InitMesh: Mesh cutoff (required, used) =    50.000    52.655 Ry
ExtMesh (bp) on 0 =    45 x    45 x    39 =       78975
New grid distribution:   2
           1       1:    9    9:   18    6:    8
           2       1:    9    1:    8    6:    8
           3       1:    9    1:    8    9:   25
           4       1:    9    9:   18    4:    5
           5       1:    9    9:   18    1:    3
           6       1:    9    1:    8    1:    3
           7       1:    9    9:   18    9:   25
           8       1:    9    1:    8    4:    5
New grid distribution:   3
           1       1:    9   10:   18    1:    5
           2       1:    9    1:    9    6:   10
           3       1:    9    1:    9   11:   20
           4       1:    9    1:    9   21:   25
           5       1:    9    1:    9    1:    5
           6       1:    9   10:   18    6:   10
           7       1:    9   10:   18   11:   20
           8       1:    9   10:   18   21:   25
Setting up quadratic distribution...
ExtMesh (bp) on 0 =    45 x    46 x    35 =       72450
PhiOnMesh: Number of (b)points on node 0 =                  270
PhiOnMesh: nlist on node 0 =                 6458
Dipole moment in unit cell   =     -0.0000      0.0000     -0.4403 D
Electric field for dipole correction =    0.000000   -0.000000    0.001931 Ry/Bohr/e

grdsam: Max (sampled force - avg. force):   0.050157  -0.058938  -0.033521 eV/Ang
grdsam: Standard deviation of sampled force:   0.021230   0.015275   0.008340 eV/Ang
grdsam: Max (sampled stress - avg. stress):   7.252124 kbar


siesta: E_KS(eV) =             -696.2245

siesta: E_KS - E_eggbox =      -696.2245

siesta: Atomic forces (eV/Ang):
     1    0.000311   -1.014545   -1.087659
     2   -0.000065    1.002233   -1.793805
     3    0.000463   -0.965018   -0.068887
     4    0.000218    1.445459    0.555037
     5   -0.000111    0.035419    0.117329
     6   -0.000010   -0.565027   -2.657475
     7   -1.623824   -0.053316    1.328281
     8    1.623831   -0.053363    1.328244
     9   -1.647703    0.086639    1.146013
    10    1.647717    0.086729    1.146000
----------------------------------------
   Tot    0.000826    0.005210    0.013079
----------------------------------------
   Max    2.657475
   Res    1.065268    sqrt( Sum f_i^2 / 3N )
----------------------------------------
   Max    1.793805    constrained

Stress-tensor-Voigt (kbar):     -128.42      -28.15      -52.14        0.00        5.54       -0.00
(Free)E + p*V (eV/cell)     -681.7197
Target enthalpy (eV/cell)     -696.2245

mulliken: Atomic and Orbital Populations:

Species: Si                  
Atom  Qatom  Qorb
               3s      3py     3pz     3px     
   1  3.974   1.433   0.922   0.776   0.843
   2  3.977   1.507   0.700   0.978   0.793
   3  4.040   1.400   0.848   0.921   0.872
   4  4.055   1.372   0.869   0.876   0.937
   5  3.847   1.312   0.763   0.860   0.913
   6  3.781   1.285   0.820   0.828   0.848

Species: H                   
Atom  Qatom  Qorb
               1s      
   7  1.085   1.085
   8  1.085   1.085
   9  1.078   1.078
  10  1.078   1.078

mulliken: Qtot =       28.000

siesta: Program's energy decomposition (eV):
siesta: Ebs     =      -300.749117
siesta: Eions   =      1221.235657
siesta: Ena     =       369.290948
siesta: Ekin    =       284.212603
siesta: Enl     =        75.090717
siesta: DEna    =        18.504631
siesta: DUscf   =         1.033233
siesta: DUext   =         0.002275
siesta: Exc     =      -223.123286
siesta: eta*DQ  =         0.000000
siesta: Emadel  =         0.000000
siesta: Emeta   =         0.000000
siesta: Emolmec =         0.000000
siesta: Ekinion =         0.000000
siesta: Eharris =      -696.239421
siesta: Etot    =      -696.224536
siesta: FreeEng =      -696.224536

siesta: Final energy (eV):
siesta:  Band Struct. =    -300.749117
siesta:       Kinetic =     284.212603
siesta:       Hartree =     854.385154
siesta:    Ext. field =       0.002275
siesta:   Exch.-corr. =    -223.123286
siesta:  Ion-electron =   -2003.059064
siesta:       Ion-ion =     391.357782
siesta:       Ekinion =       0.000000
siesta:         Total =    -696.224536

siesta: Atomic forces (eV/Ang):
siesta:      1    0.000311   -1.014545   -1.087659
siesta:      2   -0.000065    1.002233   -1.793805
siesta:      3    0.000463   -0.965018   -0.068887
siesta:      4    0.000218    1.445459    0.555037
siesta:      5   -0.000111    0.035419    0.117329
siesta:      6   -0.000010   -0.565027   -2.657475
siesta:      7   -1.623824   -0.053316    1.328281
siesta:      8    1.623831   -0.053363    1.328244
siesta:      9   -1.647703    0.086639    1.146013
siesta:     10    1.647717    0.086729    1.146000
siesta: ----------------------------------------
siesta:    Tot    0.000826    0.005210    0.013079

siesta: Constrained forces (eV/Ang):
siesta:      1    0.000311   -1.014545   -1.087659
siesta:      2   -0.000065    1.002233   -1.793805
siesta:      3    0.000463   -0.965018   -0.068887
siesta:      4    0.000218    1.445459    0.555037
siesta:      5    0.000000    0.000000    0.000000
siesta:      6    0.000000    0.000000    0.000000
siesta:      7    0.000000    0.000000    0.000000
siesta:      8    0.000000    0.000000    0.000000
siesta:      9    0.000000    0.000000    0.000000
siesta:     10    0.000000    0.000000    0.000000
siesta: ----------------------------------------
siesta:  Tot    0.000927    0.468129   -2.395313

siesta: Stress tensor (static) (eV/Ang**3):
siesta:    -0.080154    0.000002   -0.000001
siesta:     0.000002   -0.017572    0.003464
siesta:    -0.000001    0.003459   -0.032542

siesta: Cell volume =        334.037723 Ang**3

siesta: Pressure (static):
siesta:                Solid            Molecule  Units
siesta:           0.00047293          0.00021798  Ry/Bohr**3
siesta:           0.04342280          0.02001374  eV/Ang**3
siesta:          69.57174887         32.06589200  kBar
(Free)E+ p_basis*V_orbitals  =        -693.905344
(Free)Eharris+ p_basis*V_orbitals  =        -693.920230

siesta: Electric dipole (a.u.)  =   -0.000000    0.000000   -0.173182
siesta: Electric dipole (Debye) =   -0.000000    0.000000   -0.440185
Dipole moment in unit cell   =     -0.0000      0.0000     -0.4403 D
Electric field for dipole correction =    0.000000   -0.000000    0.001931 Ry/Bohr/e

dhscf: Vacuum level (max, mean) =    0.981109    0.506583 eV
>> End of run:   3-JUL-2017   9:18:57
Job completed
