Siesta Version:                                        siesta-trunk-300
Architecture  : nano-intel-mpi
Compiler flags: /opt/intel/impi/3.1/bin64/mpiifort -w  -O3 -mp
PARALLEL version
NetCDF support

* Running on    4 nodes in parallel
>> Start of run:  29-SEP-2009  18:09:14

                           ***********************       
                           *  WELCOME TO SIESTA  *       
                           ***********************       

reinit: Reading from standard input
************************** Dump of input data file ****************************
# Si(100) - asymmetric 2x1 reconstruction
# Correction for slab dipole invoked
# Oscar Paz / Pablo Ordejon
SystemName              Si(100)-2x1 3 layers (H-saturated)
SystemLabel             si2x1h-dipole
NumberOfAtoms           10
NumberOfSpecies 2
%block ChemicalSpeciesLabel
        1       14      Si
        2       1       H
%endblock ChemicalSpeciesLabel
PAO.BasisType           split
PAO.BasisSize            SZ
PAO.EnergyShift 200 meV
PAO.SplitNorm           0.30
LatticeConstant 3.8184 Ang      # a_s = a_0 / sqrt(2) , a_0 = 5.40 Ang
%block LatticeParameters
        1.      2.      3.      90.     90.     90.
%endblock LatticeParameters
AtomicCoordinatesFormat ScaledCartesian
%block AtomicCoordinatesAndAtomicSpecies
   -0.00002372    0.29326368    0.19010387   1  Si        1
    0.00001337    0.85385554    0.02205212   1  Si        2
    0.49997747   -0.00525118    0.33008893   1  Si        3
    0.50001096    0.97940531    0.34402895   1  Si        4
    0.50000000    0.50000000    0.70710000   1  Si        5
    0.50000000    1.50000000    0.70710000   1  Si        6
    0.20200000    0.50000000    0.95470000   2  H         7
    0.79800000    0.50000000    0.95470000   2  H         8
    0.20200000    1.50000000    0.95470000   2  H         9
    0.79800000    1.50000000    0.95470000   2  H        10
%endblock AtomicCoordinatesAndAtomicSpecies
%block GeometryConstraints
        position from 5 to 10
%endblock GeometryConstraints
kgrid_cutoff            5.0 Ang
XC.functional           LDA
XC.authors              PZ
MeshCutoff              50. Ry
DM.MixingWeight 0.1
DM.NumberPulay  3
SolutionMethod  diagon
MD.TypeOfRun            CG
MD.NumCGsteps           0
MD.MaxCGDispl           0.02 Ang
MD.MaxForceTol  0.02 eV/Ang
WriteCoorStep           .true.
WriteForces             .true.
WriteMullikenPop        1
DM.UseSaveDM            .true.
SaveRho                 .true.
SaveDeltaRho            .true.
SaveIonicCharge         .true.
SaveElectrostaticPotential      .true.
SaveTotalPotential      .true.
SlabDipoleCorrection    .true.
************************** End of input data file *****************************

reinit: -----------------------------------------------------------------------
reinit: System Name: Si(100)-2x1 3 layers (H-saturated
reinit: -----------------------------------------------------------------------
reinit: System Label: si2x1h-dipole                                               
reinit: -----------------------------------------------------------------------

initatom: Reading input for the pseudopotentials and atomic orbitals ----------
 Species number:            1  Label: Si Atomic number:          14
 Species number:            2  Label: H Atomic number:           1
Ground state valence configuration:   3s02  3p02
Reading pseudopotential information in formatted form from Si.psf

Valence configuration for pseudopotential generation:
3s( 2.00) rc: 1.89
3p( 2.00) rc: 1.89
3d( 0.00) rc: 1.89
4f( 0.00) rc: 1.89
Ground state valence configuration:   1s01
Reading pseudopotential information in formatted form from H.psf

Valence configuration for pseudopotential generation:
1s( 1.00) rc: 1.25
2p( 0.00) rc: 1.25
3d( 0.00) rc: 1.25
4f( 0.00) rc: 1.25
For Si, standard SIESTA heuristics set lmxkb to 2
 (one more than the basis l, including polarization orbitals).
Use PS.lmax or PS.KBprojectors blocks to override.
For H, standard SIESTA heuristics set lmxkb to 1
 (one more than the basis l, including polarization orbitals).
Use PS.lmax or PS.KBprojectors blocks to override.

<basis_specs>
===============================================================================
Si                   Z=  14    Mass=  28.090        Charge= 0.17977+309
Lmxo=1 Lmxkb=2     BasisType=split      Semic=F
L=0  Nsemic=0  Cnfigmx=3
          n=1  nzeta=1  polorb=0
            splnorm:   0.30000    
               vcte:    0.0000    
               rinn:    0.0000    
                rcs:    0.0000    
            lambdas:    1.0000    
L=1  Nsemic=0  Cnfigmx=3
          n=1  nzeta=1  polorb=0
            splnorm:   0.30000    
               vcte:    0.0000    
               rinn:    0.0000    
                rcs:    0.0000    
            lambdas:    1.0000    
-------------------------------------------------------------------------------
L=0  Nkbl=1  erefs: 0.17977+309
L=1  Nkbl=1  erefs: 0.17977+309
L=2  Nkbl=1  erefs: 0.17977+309
===============================================================================
</basis_specs>

atom: Called for Si                    (Z =  14)

read_vps: Pseudopotential generation method:
read_vps: ATM3      Troullier-Martins                       
Total valence charge:    4.00000

xc_check: Exchange-correlation functional:
xc_check: Ceperley-Alder
V l=0 = -2*Zval/r beyond r=  2.5494
V l=1 = -2*Zval/r beyond r=  2.5494
V l=2 = -2*Zval/r beyond r=  2.5494
All V_l potentials equal beyond r=  1.8652
This should be close to max(r_c) in ps generation
All pots = -2*Zval/r beyond r=  2.5494
Using large-core scheme for Vlocal

atom: Estimated core radius    2.54944

atom: Including non-local core corrections could be a good idea
atom: Maximum radius for 4*pi*r*r*local-pseudopot. charge    2.85303
atom: Maximum radius for r*vlocal+2*Zval:    2.58151
GHOST: No ghost state for L =  0
GHOST: No ghost state for L =  1
GHOST: No ghost state for L =  2

KBgen: Kleinman-Bylander projectors: 
   l= 0   rc=  1.936440   el= -0.796617   Ekb=  4.661340   kbcos=  0.299756
   l= 1   rc=  1.936440   el= -0.307040   Ekb=  1.494238   kbcos=  0.301471
   l= 2   rc=  1.936440   el=  0.002313   Ekb= -2.808672   kbcos= -0.054903

KBgen: Total number of  Kleinman-Bylander projectors:    9
atom: -------------------------------------------------------------------------

atom: SANKEY-TYPE ORBITALS:

SPLIT: Orbitals with angular momentum L= 0

SPLIT: Basis orbitals for state 3s

SPLIT: PAO cut-off radius determined from an
SPLIT: energy shift=  0.014700 Ry

   izeta = 1
                 lambda =    1.000000
                     rc =    5.264094
                 energy =   -0.784048
                kinetic =    0.554443
    potential(screened) =   -1.338491
       potential(ionic) =   -3.803943

SPLIT: Orbitals with angular momentum L= 1

SPLIT: Basis orbitals for state 3p

SPLIT: PAO cut-off radius determined from an
SPLIT: energy shift=  0.014700 Ry

   izeta = 1
                 lambda =    1.000000
                     rc =    6.429618
                 energy =   -0.291747
                kinetic =    0.864936
    potential(screened) =   -1.156682
       potential(ionic) =   -3.408656
atom: Total number of Sankey-type orbitals:  4

atm_pop: Valence configuration (for local Pseudopot. screening):
 3s( 2.00)                                                            
 3p( 2.00)                                                            
Vna: chval, zval:    4.00000   4.00000

Vna:  Cut-off radius for the neutral-atom potential:   6.429618

atom: _________________________________________________________________________

<basis_specs>
===============================================================================
H                    Z=   1    Mass=  1.0100        Charge= 0.17977+309
Lmxo=0 Lmxkb=1     BasisType=split      Semic=F
L=0  Nsemic=0  Cnfigmx=1
          n=1  nzeta=1  polorb=0
            splnorm:   0.30000    
               vcte:    0.0000    
               rinn:    0.0000    
                rcs:    0.0000    
            lambdas:    1.0000    
-------------------------------------------------------------------------------
L=0  Nkbl=1  erefs: 0.17977+309
L=1  Nkbl=1  erefs: 0.17977+309
===============================================================================
</basis_specs>

atom: Called for H                     (Z =   1)

read_vps: Pseudopotential generation method:
read_vps: ATM3      Troullier-Martins                       
Total valence charge:    1.00000

xc_check: Exchange-correlation functional:
xc_check: Ceperley-Alder
V l=0 = -2*Zval/r beyond r=  1.2343
V l=1 = -2*Zval/r beyond r=  1.2189
All V_l potentials equal beyond r=  1.2343
This should be close to max(r_c) in ps generation
All pots = -2*Zval/r beyond r=  1.2343

VLOCAL1: 99.0% of the norm of Vloc inside     28.493 Ry
VLOCAL1: 99.9% of the norm of Vloc inside     64.935 Ry
atom: Maximum radius for 4*pi*r*r*local-pseudopot. charge    1.45251
atom: Maximum radius for r*vlocal+2*Zval:    1.21892
GHOST: No ghost state for L =  0
GHOST: No ghost state for L =  1

KBgen: Kleinman-Bylander projectors: 
   l= 0   rc=  1.364359   el= -0.467325   Ekb= -2.005361   kbcos= -0.336422
   l= 1   rc=  1.434438   el=  0.001430   Ekb= -0.501708   kbcos= -0.021697

KBgen: Total number of  Kleinman-Bylander projectors:    4
atom: -------------------------------------------------------------------------

atom: SANKEY-TYPE ORBITALS:

SPLIT: Orbitals with angular momentum L= 0

SPLIT: Basis orbitals for state 1s

SPLIT: PAO cut-off radius determined from an
SPLIT: energy shift=  0.014700 Ry

   izeta = 1
                 lambda =    1.000000
                     rc =    5.075940
                 energy =   -0.454238
                kinetic =    0.905976
    potential(screened) =   -1.360214
       potential(ionic) =   -1.894198
atom: Total number of Sankey-type orbitals:  1

atm_pop: Valence configuration (for local Pseudopot. screening):
 1s( 1.00)                                                            
Vna: chval, zval:    1.00000   1.00000

Vna:  Cut-off radius for the neutral-atom potential:   5.075940

atom: _________________________________________________________________________

prinput: Basis input ----------------------------------------------------------

PAO.BasisType split     

%block ChemicalSpeciesLabel
    1   14 Si                      # Species index, atomic number, species label
    2    1 H                       # Species index, atomic number, species label
%endblock ChemicalSpeciesLabel

%block PAO.Basis                 # Define Basis set
Si                    2                    # Species label, number of l-shells
 n=3   0   1                         # n, l, Nzeta 
   5.264   
   1.000   
 n=3   1   1                         # n, l, Nzeta 
   6.430   
   1.000   
H                     1                    # Species label, number of l-shells
 n=1   0   1                         # n, l, Nzeta 
   5.076   
   1.000   
%endblock PAO.Basis

prinput: ----------------------------------------------------------------------

Dumping basis to NetCDF file Si.ion.nc
Dumping basis to NetCDF file H.ion.nc
coor:   Atomic-coordinates input format  =     Cartesian coordinates
coor:                                          (in units of alat)

siesta: Atomic coordinates (Bohr) and species
siesta:     -0.00017   2.11611   1.37174  1        1
siesta:      0.00010   6.16119   0.15912  1        2
siesta:      3.60770  -0.03789   2.38183  1        3
siesta:      3.60795   7.06713   2.48242  1        4
siesta:      3.60787   3.60787   5.10224  1        5
siesta:      3.60787  10.82360   5.10224  1        6
siesta:      1.45758   3.60787   6.88886  2        7
siesta:      5.75816   3.60787   6.88886  2        8
siesta:      1.45758  10.82360   6.88886  2        9
siesta:      5.75816  10.82360   6.88886  2       10

siesta: System type = slab      

initatomlists: Number of atoms, orbitals, and projectors:     10    28    70

siesta: ******************** Simulation parameters ****************************
siesta:
siesta: The following are some of the parameters of the simulation.
siesta: A complete list of the parameters used, including default values,
siesta: can be found in file out.fdf
siesta:
redata: Non-Collinear-spin run           =     F
redata: SpinPolarized (Up/Down) run      =     F
redata: Number of spin components        =     1
redata: Long output                      =     F
redata: Number of Atomic Species         =        2
redata: Charge density info will appear in .RHO file
redata: Write Mulliken Pop.              =     Atomic and Orbital charges
redata: Mesh Cutoff                      =    50.0000  Ry
redata: Net charge of the system         =     0.0000 |e|
redata: Max. number of SCF Iter          =       50
redata: Performing Pulay mixing using    =     3 iterations
redata: Mix DM in first SCF step ?       =     F
redata: Write Pulay info on disk?        =     F
redata: New DM Mixing Weight             =     0.1000
redata: New DM Occupancy tolerance       = 0.000000000001
redata: No kicks to SCF
redata: DM Mixing Weight for Kicks       =     0.5000
redata: DM Tolerance for SCF             =     0.000100
redata: Require Energy convergence for SCF =     F
redata: DM Energy tolerance for SCF      =     0.000100 eV
redata: Require Harris convergence for SCF =     F
redata: DM Harris energy tolerance for SCF =     0.000100 eV
redata: Using Saved Data (generic)   =     F
redata: Use continuation files for DM    =     T
redata: Neglect nonoverlap interactions  =     F
redata: Method of Calculation            =     Diagonalization
redata: Divide and Conquer               =     T
redata: Electronic Temperature           =     0.0019  Ry
redata: Fix the spin of the system       =     F
redata: Dynamics option                  =     CG coord. optimization
redata: Variable cell                    =     F
redata: Use continuation files for CG    =     F
redata: Max atomic displ per move        =     0.0378  Bohr
redata: Maximum number of CG moves       =        0
redata: Force tolerance                  =     0.0008  Ry/Bohr
redata: ***********************************************************************
Total number of electrons:    28.000000
Total ionic charge:    28.000000

* ProcessorY, Blocksize:    2   7

 Kpoints in:            3 . Kpoints trimmed:            3

siesta: k-grid: Number of k-points =     3
siesta: k-grid: Cutoff (effective) =     5.728 Ang
siesta: k-grid: Supercell and displacements
siesta: k-grid:    3   0   0      0.000
siesta: k-grid:    0   2   0      0.500
siesta: k-grid:    0   0   1      0.000
Naive supercell factors:     5    3    2

superc: Internal auxiliary supercell:     5 x     3 x     2  =      30
superc: Number of atoms, orbitals, and projectors:    300   840  2100

* Maximum dynamic memory allocated =     2 MB

siesta:                 ==============================
                            Begin CG move =      0
                        ==============================

outcoor: Atomic coordinates (scaled):                       
   -0.00002372    0.29326368    0.19010387   1       1  Si
    0.00001337    0.85385554    0.02205212   1       2  Si
    0.49997747   -0.00525118    0.33008893   1       3  Si
    0.50001096    0.97940531    0.34402895   1       4  Si
    0.50000000    0.50000000    0.70710000   1       5  Si
    0.50000000    1.50000000    0.70710000   1       6  Si
    0.20200000    0.50000000    0.95470000   2       7  H
    0.79800000    0.50000000    0.95470000   2       8  H
    0.20200000    1.50000000    0.95470000   2       9  H
    0.79800000    1.50000000    0.95470000   2      10  H

superc: Internal auxiliary supercell:     5 x     3 x     2  =      30
superc: Number of atoms, orbitals, and projectors:    300   840  2100

outcell: Unit cell vectors (Ang):
        3.818400    0.000000    0.000000
        0.000000    7.636800    0.000000
        0.000000    0.000000   11.455200

outcell: Cell vector modules (Ang)   :    3.818400    7.636800   11.455200
outcell: Cell angles (23,13,12) (deg):     90.0000     90.0000     90.0000
outcell: Cell volume (Ang**3)        :    334.0377
New_DM. Step:     1
Initializing Density Matrix...

InitMesh: MESH =    18 x    36 x    50 =       32400
InitMesh: Mesh cutoff (required, used) =    50.000    52.655 Ry

efield: SlabDipoleCorrection = .true. in input file
efield: A dipole layer will be introduced in the vacuum
efield: region to compensate the system dipole

efield: External electric field =    0.000000    0.000000    0.000000 Ry/Bohr/e

* Maximum dynamic memory allocated =     4 MB

stepf: Fermi-Dirac step function

siesta: Program's energy decomposition (eV):
siesta: Eions   =      1221.235657
siesta: Ena     =       369.290948
siesta: Ekin    =       281.018022
siesta: Enl     =        93.485096
siesta: DEna    =         0.000002
siesta: DUscf   =         0.000000
siesta: DUext   =         0.000000
siesta: Exc     =      -224.568024
siesta: eta*DQ  =         0.000000
siesta: Emadel  =         0.000000
siesta: Emeta   =         0.000000
siesta: Emolmec =         0.000000
siesta: Ekinion =         0.000000
siesta: Eharris =      -697.403487
siesta: Etot    =      -702.009613
siesta: FreeEng =      -702.009613

siesta: iscf   Eharris(eV)      E_KS(eV)   FreeEng(eV)   dDmax  Ef(eV)
siesta:    1     -697.4035     -702.0096     -702.0096  1.1485 -4.1241
timer: Routine,Calls,Time,% = IterSCF        1       1.143  56.84
elaps: Routine,Calls,Wall,% = IterSCF        1       0.285  56.52
siesta:    2     -700.9300     -694.5152     -694.5152  1.3475 -5.8434
siesta:    3     -696.4907     -698.1012     -698.1012  0.3762 -4.9670
siesta:    4     -696.3836     -697.1315     -697.1315  0.2389 -5.0187
siesta:    5     -696.3590     -695.7399     -695.7399  0.1811 -4.9325
siesta:    6     -696.3032     -695.4979     -695.4979  0.1175 -4.9368
siesta:    7     -696.2424     -695.7959     -695.7959  0.0370 -4.6783
siesta:    8     -696.2391     -695.9483     -695.9483  0.0255 -4.6561
siesta:    9     -696.2378     -696.0317     -696.0317  0.0245 -4.8592
siesta:   10     -696.2372     -696.0992     -696.0992  0.0211 -4.8613
siesta:   11     -696.2372     -696.1347     -696.1347  0.0152 -4.8658
siesta:   12     -696.2375     -696.1567     -696.1567  0.0077 -4.8689
siesta:   13     -696.2374     -696.1595     -696.1595  0.0072 -4.8669
siesta:   14     -696.2373     -696.1647     -696.1647  0.0057 -4.8635
siesta:   15     -696.2372     -696.1741     -696.1741  0.0043 -4.8623
siesta:   16     -696.2372     -696.1912     -696.1912  0.0039 -4.8621
siesta:   17     -696.2372     -696.2075     -696.2075  0.0032 -4.8625
siesta:   18     -696.2372     -696.2172     -696.2172  0.0022 -4.8629
siesta:   19     -696.2372     -696.2224     -696.2224  0.0013 -4.8632
siesta:   20     -696.2372     -696.2246     -696.2246  0.0012 -4.8629
siesta:   21     -696.2372     -696.2253     -696.2253  0.0010 -4.8625
siesta:   22     -696.2372     -696.2264     -696.2264  0.0007 -4.8622
siesta:   23     -696.2372     -696.2283     -696.2283  0.0006 -4.8622
siesta:   24     -696.2372     -696.2302     -696.2302  0.0005 -4.8622
siesta:   25     -696.2372     -696.2325     -696.2325  0.0004 -4.8624
siesta:   26     -696.2372     -696.2340     -696.2340  0.0003 -4.8624
siesta:   27     -696.2372     -696.2347     -696.2347  0.0002 -4.8623
siesta:   28     -696.2372     -696.2350     -696.2350  0.0002 -4.8622
siesta:   29     -696.2372     -696.2351     -696.2351  0.0001 -4.8621
siesta:   30     -696.2372     -696.2354     -696.2354  0.0001 -4.8622
siesta:   31     -696.2372     -696.2357     -696.2357  0.0001 -4.8622

siesta: E_KS(eV) =             -696.2361

siesta: E_KS - E_eggbox =      -696.2361

siesta: Atomic forces (eV/Ang):
     1   -0.000346   -1.024688   -1.076127
     2   -0.000022    1.002741   -1.785159
     3    0.004366   -0.942196   -0.102494
     4    0.000227    1.446381    0.551969
     5   -0.000113    0.038280    0.099324
     6   -0.000011   -0.564098   -2.661593
     7   -1.642137   -0.053658    1.321352
     8    1.642143   -0.053705    1.321316
     9   -1.662246    0.086803    1.141211
    10    1.662260    0.086894    1.141199
----------------------------------------
   Tot    0.004121    0.022754   -0.049002
----------------------------------------
   Max    2.661593
   Res    1.066860    sqrt( Sum f_i^2 / 3N )
----------------------------------------
   Max    1.785159    constrained

Stress-tensor-Voigt (kbar):     -121.17      -27.38      -51.58        0.02        5.13       -0.02
(Free)E + p*V (eV/cell)     -682.3274
Target enthalpy (eV/cell)     -696.2361
 
mulliken: Atomic and Orbital Populations:

Species: Si                  
Atom  Qatom  Qorb
               3s      3py     3pz     3px     
   1  3.974   1.433   0.922   0.776   0.843
   2  3.977   1.507   0.700   0.978   0.793
   3  4.040   1.400   0.848   0.921   0.872
   4  4.054   1.372   0.869   0.876   0.937
   5  3.847   1.312   0.763   0.860   0.913
   6  3.781   1.285   0.820   0.828   0.848

Species: H                   
Atom  Qatom  Qorb
               1s      
   7  1.085   1.085
   8  1.085   1.085
   9  1.078   1.078
  10  1.078   1.078

mulliken: Qtot =       28.000

* Maximum dynamic memory allocated =     4 MB

siesta: Program's energy decomposition (eV):
siesta: Eions   =      1221.235657
siesta: Ena     =       369.290948
siesta: Ekin    =       284.213601
siesta: Enl     =        75.089931
siesta: DEna    =        18.493820
siesta: DUscf   =         1.032847
siesta: DUext   =         0.004533
siesta: Exc     =      -223.126148
siesta: eta*DQ  =         0.000000
siesta: Emadel  =         0.000000
siesta: Emeta   =         0.000000
siesta: Emolmec =         0.000000
siesta: Ekinion =         0.000000
siesta: Eharris =      -696.237162
siesta: Etot    =      -696.236126
siesta: FreeEng =      -696.236126

siesta: Final energy (eV):
siesta:       Kinetic =     284.213601
siesta:       Hartree =     854.402611
siesta:    Ext. field =       0.004533
siesta:   Exch.-corr. =    -223.126148
siesta:  Ion-electron =   -2003.089243
siesta:       Ion-ion =     391.358521
siesta:       Ekinion =       0.000000
siesta:         Total =    -696.236126

siesta: Atomic forces (eV/Ang):
siesta:      1   -0.000346   -1.024688   -1.076127
siesta:      2   -0.000022    1.002741   -1.785159
siesta:      3    0.004366   -0.942196   -0.102494
siesta:      4    0.000227    1.446381    0.551969
siesta:      5   -0.000113    0.038280    0.099324
siesta:      6   -0.000011   -0.564098   -2.661593
siesta:      7   -1.642137   -0.053658    1.321352
siesta:      8    1.642143   -0.053705    1.321316
siesta:      9   -1.662246    0.086803    1.141211
siesta:     10    1.662260    0.086894    1.141199
siesta: ----------------------------------------
siesta:    Tot    0.004121    0.022754   -0.049002

siesta: Constrained forces (eV/Ang):
siesta:      1   -0.000346   -1.024688   -1.076127
siesta:      2   -0.000022    1.002741   -1.785159
siesta:      3    0.004366   -0.942196   -0.102494
siesta:      4    0.000227    1.446381    0.551969
siesta:      5    0.000000    0.000000    0.000000
siesta:      6    0.000000    0.000000    0.000000
siesta:      7    0.000000    0.000000    0.000000
siesta:      8    0.000000    0.000000    0.000000
siesta:      9    0.000000    0.000000    0.000000
siesta:     10    0.000000    0.000000    0.000000
siesta: ----------------------------------------
siesta:  Tot    0.004225    0.482238   -2.411811

siesta: Stress tensor (static) (eV/Ang**3):
siesta:    -0.075630    0.000014   -0.000010
siesta:     0.000014   -0.017088    0.003203
siesta:    -0.000010    0.003204   -0.032196

siesta: Cell volume =        334.037723 Ang**3

siesta: Pressure (static):
siesta:                Solid            Molecule  Units
siesta:           0.00045349          0.00019865  Ry/Bohr**3
siesta:           0.04163813          0.01823908  eV/Ang**3
siesta:          66.71236409         29.22254742  kBar
(Free)E+ p_basis*V_orbitals  =        -693.916934
(Free)Eharris+ p_basis*V_orbitals  =        -693.918406

siesta: Electric dipole (a.u.)  =    0.000000    0.000000   -0.172862
siesta: Electric dipole (Debye) =    0.000000    0.000000   -0.439371

* Maximum dynamic memory allocated : Node    0 =     4 MB
* Maximum dynamic memory allocated : Node    1 =     3 MB
* Maximum dynamic memory allocated : Node    2 =     4 MB
* Maximum dynamic memory allocated : Node    3 =     3 MB

* Maximum memory occured during ranger                        

timer: CPU execution times:
timer:  Routine       Calls   Time/call    Tot.time        %
timer:  siesta            1       9.571       9.571    99.99
timer:  Setup             1       0.762       0.762     7.96
timer:  bands             1       0.000       0.000     0.00
timer:  writewave         1       0.004       0.004     0.04
timer:  KSV_init          1       0.000       0.000     0.00
timer:  IterMD            1       8.546       8.546    89.28
timer:  hsparse           1       0.006       0.006     0.06
timer:  overlap           1       0.072       0.072     0.75
timer:  IterSCF          31       0.253       7.839    81.90
timer:  kinefsm           2       0.028       0.056     0.58
timer:  nlefsm            2       0.265       0.531     5.55
timer:  DHSCF            33       0.168       5.560    58.09
timer:  DHSCF1            1       0.092       0.092     0.96
timer:  DHSCF2            1       0.292       0.292     3.05
timer:  REORD           342       0.000       0.032     0.33
timer:  POISON           34       0.011       0.379     3.96
timer:  DHSCF3           33       0.151       4.969    51.92
timer:  rhoofd           33       0.034       1.124    11.74
timer:  cellXC           33       0.014       0.450     4.70
timer:  vmat             32       0.053       1.708    17.84
timer:  MolMec            2       0.000       0.000     0.00
timer:  diagon           31       0.066       2.033    21.24
timer:  c-eigval         93       0.010       0.967    10.10
timer:  c-buildHS        93       0.000       0.015     0.16
timer:  cdiag           186       0.010       1.942    20.29
timer:  cdiag1          186       0.001       0.119     1.24
timer:  cdiag2          186       0.001       0.222     2.32
timer:  cdiag3          186       0.008       1.496    15.63
timer:  cdiag4          186       0.000       0.047     0.49
timer:  c-eigvec         93       0.011       1.001    10.46
timer:  c-buildD         93       0.001       0.061     0.64
timer:  DHSCF4            1       0.202       0.202     2.11
timer:  dfscf             1       0.150       0.150     1.57
timer:  overfsm           1       0.003       0.003     0.03
timer:  optical           1       0.014       0.014     0.15
  

elaps: ELAPSED times:
elaps:  Routine       Calls   Time/call    Tot.time        %
elaps:  siesta            1       2.397       2.397    99.99
elaps:  Setup             1       0.192       0.192     8.01
elaps:  bands             1       0.000       0.000     0.01
elaps:  writewave         1       0.001       0.001     0.03
elaps:  KSV_init          1       0.000       0.000     0.01
elaps:  IterMD            1       2.139       2.139    89.23
elaps:  hsparse           1       0.002       0.002     0.06
elaps:  overlap           1       0.018       0.018     0.74
elaps:  IterSCF          31       0.063       1.962    81.83
elaps:  kinefsm           2       0.007       0.014     0.60
elaps:  nlefsm            2       0.065       0.129     5.39
elaps:  DHSCF            33       0.043       1.413    58.95
elaps:  DHSCF1            1       0.024       0.024     0.99
elaps:  DHSCF2            1       0.073       0.073     3.03
elaps:  REORD           342       0.000       0.008     0.33
elaps:  POISON           34       0.003       0.094     3.94
elaps:  DHSCF3           33       0.038       1.241    51.75
elaps:  rhoofd           33       0.016       0.537    22.41
elaps:  cellXC           33       0.003       0.112     4.66
elaps:  vmat             32       0.013       0.424    17.67
elaps:  MolMec            2       0.000       0.000     0.00
elaps:  diagon           31       0.017       0.513    21.38
elaps:  c-eigval         93       0.003       0.245    10.20
elaps:  c-buildHS        93       0.000       0.005     0.20
elaps:  cdiag           186       0.003       0.483    20.16
elaps:  cdiag1          186       0.000       0.027     1.11
elaps:  cdiag2          186       0.000       0.054     2.24
elaps:  cdiag3          186       0.002       0.379    15.81
elaps:  cdiag4          186       0.000       0.013     0.52
elaps:  c-eigvec         93       0.003       0.250    10.41
elaps:  c-buildD         93       0.000       0.014     0.58
elaps:  DHSCF4            1       0.074       0.074     3.07
elaps:  dfscf             1       0.055       0.055     2.28
elaps:  overfsm           1       0.001       0.001     0.03
elaps:  optical           1       0.000       0.000     0.01
  
>> End of run:  29-SEP-2009  18:09:17
