Siesta Version: siesta-2.0-release
Architecture  : intel9-mkl8
Compiler flags: ifort -u -xP -O3 -mp1
SERIAL version

* Running in serial mode
>> Start of run:  24-FEB-2006  12:54:00

                           ***********************       
                           *  WELCOME TO SIESTA  *       
                           ***********************       

reinit: Reading from standard input
************************** Dump of input data file ****************************
# Si(100) - asymmetric 2x1 reconstruction
# Oscar Paz
SystemName              Si(100)-2x1 3 layers (H-saturated)
SystemLabel             si2x1h
NumberOfAtoms           10
NumberOfSpecies 2
%block ChemicalSpeciesLabel
        1       14      Si
        2       1       H
%endblock ChemicalSpeciesLabel
PAO.BasisType           split
PAO.BasisSize           DZP
PAO.EnergyShift 200 meV
PAO.SplitNorm           0.30
LatticeConstant 3.8184 Ang      # a_s = a_0 / sqrt(2) , a_0 = 5.40 Ang
%block LatticeParameters
        1.      2.      3.      90.     90.     90.
%endblock LatticeParameters
AtomicCoordinatesFormat ScaledCartesian
%block AtomicCoordinatesAndAtomicSpecies
   -0.00002372    0.29326368    0.19010387   1  Si        1
    0.00001337    0.85385554    0.02205212   1  Si        2
    0.49997747   -0.00525118    0.33008893   1  Si        3
    0.50001096    0.97940531    0.34402895   1  Si        4
    0.50000000    0.50000000    0.70710000   1  Si        5
    0.50000000    1.50000000    0.70710000   1  Si        6
    0.20200000    0.50000000    0.95470000   2  H         7
    0.79800000    0.50000000    0.95470000   2  H         8
    0.20200000    1.50000000    0.95470000   2  H         9
    0.79800000    1.50000000    0.95470000   2  H        10
%endblock AtomicCoordinatesAndAtomicSpecies
%block GeometryConstraints
        position from 5 to 10
%endblock GeometryConstraints
kgrid_cutoff            5.0 Ang
XC.functional           LDA
XC.authors              PZ
MeshCutoff              10. Ry
DM.MixingWeight 0.1
DM.NumberPulay  3
SolutionMethod  diagon
MD.TypeOfRun            CG
MD.NumCGsteps           50
MD.MaxCGDispl           0.02 Ang
MD.MaxForceTol  0.02 eV/Ang
WriteCoorStep           .true.
WriteForces             .true.
WriteMullikenPop        1
WriteCoorXmol           .true.
WriteMDXmol             .true.
WriteMDhistory          .true.
DM.UseSaveDM            .true.
MD.UseSaveXV            .true.
MD.UseSaveCG            .true.
SaveRho                 .true.
SaveDeltaRho            .true.
SaveElectrostaticPotential      .true.
SaveTotalPotential      .true.
************************** End of input data file *****************************

reinit: -----------------------------------------------------------------------
reinit: System Name: Si(100)-2x1 3 layers (H-saturated                          
reinit: -----------------------------------------------------------------------
reinit: System Label: si2x1h                                                      
reinit: -----------------------------------------------------------------------

initatom: Reading input for the pseudopotentials and atomic orbitals ----------
 Species number:            1  Label: Si Atomic number:          14
 Species number:            2  Label: H Atomic number:           1
Ground state valence configuration:   3s02  3p02
Reading pseudopotential information in formatted form from Si.psf
Ground state valence configuration:   1s01
Reading pseudopotential information in formatted form from H.psf
For Si, standard SIESTA heuristics set lmxkb to 3
 (one more than the basis l, including polarization orbitals).
Use PS.lmax or PS.KBprojectors blocks to override.
For H, standard SIESTA heuristics set lmxkb to 2
 (one more than the basis l, including polarization orbitals).
Use PS.lmax or PS.KBprojectors blocks to override.

<basis_specs>
===============================================================================
Si                   Z=  14    Mass=  28.090        Charge=  0.0000    
Lmxo=1 Lmxkb=3     BasisType=split      Semic=F
L=0  Nsemic=0  Cnfigmx=3
          n=1  nzeta=2  polorb=0
               vcte:    0.0000    
               rinn:    0.0000    
                rcs:    0.0000      0.0000    
            lambdas:    1.0000      1.0000    
L=1  Nsemic=0  Cnfigmx=3
          n=1  nzeta=2  polorb=1
               vcte:    0.0000    
               rinn:    0.0000    
                rcs:    0.0000      0.0000    
            lambdas:    1.0000      1.0000    
-------------------------------------------------------------------------------
L=0  Nkbl=1  erefs: 0.17977+309
L=1  Nkbl=1  erefs: 0.17977+309
L=2  Nkbl=1  erefs: 0.17977+309
L=3  Nkbl=1  erefs: 0.17977+309
===============================================================================
</basis_specs>

atom: Called for Si  (Z =  14)

read_vps: Pseudopotential generation method:
read_vps: ATM3      Troullier-Martins                       

read_vps: Valence configuration (pseudopotential and basis set generation):
3s( 2.00) rc: 1.89
3p( 2.00) rc: 1.89
3d( 0.00) rc: 1.89
4f( 0.00) rc: 1.89
Total valence charge:    4.00000

xc_check: Exchange-correlation functional:
xc_check: Ceperley-Alder
V l=0 = -2*Zval/r beyond r=  2.5494
V l=1 = -2*Zval/r beyond r=  2.5494
V l=2 = -2*Zval/r beyond r=  2.5494
V l=3 = -2*Zval/r beyond r=  2.5494
All V_l potentials equal beyond r=  1.8652
This should be close to max(r_c) in ps generation
All pots = -2*Zval/r beyond r=  2.5494
Using large-core scheme for Vlocal

atom: Estimated core radius    2.54944

atom: Including non-local core corrections could be a good idea
atom: Maximum radius for 4*pi*r*r*local-pseudopot. charge    2.85303
atom: Maximum radius for r*vlocal+2*Zval:    2.58151
GHOST: No ghost state for L =  0
GHOST: No ghost state for L =  1
GHOST: No ghost state for L =  2
GHOST: No ghost state for L =  3

KBgen: Kleinman-Bylander projectors: 
   l= 0   rc=  1.936440   el= -0.796617   Ekb=  4.661340   kbcos=  0.299756
   l= 1   rc=  1.936440   el= -0.307040   Ekb=  1.494238   kbcos=  0.301471
   l= 2   rc=  1.936440   el=  0.002313   Ekb= -2.808672   kbcos= -0.054903
   l= 3   rc=  1.936440   el=  0.003402   Ekb= -0.959059   kbcos= -0.005513

KBgen: Total number of  Kleinman-Bylander projectors:   16
atom: -------------------------------------------------------------------------

atom: SANKEY-TYPE ORBITALS:
atom: Selected multiple-zeta basis: split     

SPLIT: Orbitals with angular momentum L= 0

SPLIT: Basis orbitals for state 3s

SPLIT: PAO cut-off radius determined from an
SPLIT: energy shift=  0.014700 Ry

   izeta = 1
                 lambda =    1.000000
                     rc =    5.264094
                 energy =   -0.784048
                kinetic =    0.554443
    potential(screened) =   -1.338491
       potential(ionic) =   -3.803943

   izeta = 2
                 rmatch =    3.899691
              splitnorm =    0.300000
                 energy =   -0.557235
                kinetic =    1.100002
    potential(screened) =   -1.657237
       potential(ionic) =   -4.272936

SPLIT: Orbitals with angular momentum L= 1

SPLIT: Basis orbitals for state 3p

SPLIT: PAO cut-off radius determined from an
SPLIT: energy shift=  0.014700 Ry

   izeta = 1
                 lambda =    1.000000
                     rc =    6.429618
                 energy =   -0.291747
                kinetic =    0.864936
    potential(screened) =   -1.156682
       potential(ionic) =   -3.408656

   izeta = 2
                 rmatch =    4.309843
              splitnorm =    0.300000
                 energy =   -0.094843
                kinetic =    1.512256
    potential(screened) =   -1.607099
       potential(ionic) =   -4.136792

POLgen: Perturbative polarization orbital with L=  2

POLgen: Polarization orbital for state 3p

   izeta = 1
                     rc =    6.429618
                 energy =    0.416453
                kinetic =    1.265989
    potential(screened) =   -0.849535
       potential(ionic) =   -2.900468
atom: Total number of Sankey-type orbitals: 13

atm_pop: Valence configuration(local Pseudopot. screening):
 3s( 2.00)                                                            
 3p( 2.00)                                                            
Vna: chval, zval:    4.00000   4.00000

Vna:  Cut-off radius for the neutral-atom potential:   6.429618

atom: _________________________________________________________________________

<basis_specs>
===============================================================================
H                    Z=   1    Mass=  1.0100        Charge=  0.0000    
Lmxo=0 Lmxkb=2     BasisType=split      Semic=F
L=0  Nsemic=0  Cnfigmx=1
          n=1  nzeta=2  polorb=1
               vcte:    0.0000    
               rinn:    0.0000    
                rcs:    0.0000      0.0000    
            lambdas:    1.0000      1.0000    
-------------------------------------------------------------------------------
L=0  Nkbl=1  erefs: 0.17977+309
L=1  Nkbl=1  erefs: 0.17977+309
L=2  Nkbl=1  erefs: 0.17977+309
===============================================================================
</basis_specs>

atom: Called for H   (Z =   1)

read_vps: Pseudopotential generation method:
read_vps: ATM3      Troullier-Martins                       

read_vps: Valence configuration (pseudopotential and basis set generation):
1s( 1.00) rc: 1.25
2p( 0.00) rc: 1.25
3d( 0.00) rc: 1.25
Total valence charge:    1.00000

xc_check: Exchange-correlation functional:
xc_check: Ceperley-Alder
V l=0 = -2*Zval/r beyond r=  1.2343
V l=1 = -2*Zval/r beyond r=  1.2189
V l=2 = -2*Zval/r beyond r=  1.2189
All V_l potentials equal beyond r=  1.2343
This should be close to max(r_c) in ps generation
All pots = -2*Zval/r beyond r=  1.2343

VLOCAL1: 99.0% of the norm of Vloc inside     28.493 Ry
VLOCAL1: 99.9% of the norm of Vloc inside     64.935 Ry
atom: Maximum radius for 4*pi*r*r*local-pseudopot. charge    1.45251
atom: Maximum radius for r*vlocal+2*Zval:    1.21892
GHOST: No ghost state for L =  0
GHOST: No ghost state for L =  1
GHOST: No ghost state for L =  2

KBgen: Kleinman-Bylander projectors: 
   l= 0   rc=  1.364359   el= -0.467325   Ekb= -2.005361   kbcos= -0.336422
   l= 1   rc=  1.434438   el=  0.001430   Ekb= -0.501708   kbcos= -0.021697
   l= 2   rc=  1.470814   el=  0.002365   Ekb= -0.190555   kbcos= -0.002281

KBgen: Total number of  Kleinman-Bylander projectors:    9
atom: -------------------------------------------------------------------------

atom: SANKEY-TYPE ORBITALS:
atom: Selected multiple-zeta basis: split     

SPLIT: Orbitals with angular momentum L= 0

SPLIT: Basis orbitals for state 1s

SPLIT: PAO cut-off radius determined from an
SPLIT: energy shift=  0.014700 Ry

   izeta = 1
                 lambda =    1.000000
                     rc =    5.075940
                 energy =   -0.454238
                kinetic =    0.905976
    potential(screened) =   -1.360214
       potential(ionic) =   -1.894198

   izeta = 2
                 rmatch =    3.195439
              splitnorm =    0.300000
                 energy =   -0.202085
                kinetic =    1.889155
    potential(screened) =   -2.091241
       potential(ionic) =   -2.676150

POLgen: Perturbative polarization orbital with L=  1

POLgen: Polarization orbital for state 1s

   izeta = 1
                     rc =    5.075940
                 energy =    0.658058
                kinetic =    1.324347
    potential(screened) =   -0.666290
       potential(ionic) =   -1.141575
atom: Total number of Sankey-type orbitals:  5

atm_pop: Valence configuration(local Pseudopot. screening):
 1s( 1.00)                                                            
Vna: chval, zval:    1.00000   1.00000

Vna:  Cut-off radius for the neutral-atom potential:   5.075940

atom: _________________________________________________________________________

prinput: Basis input ----------------------------------------------------------

PAO.BasisType split     

%block ChemicalSpeciesLabel
    1   14 Si                      # Species index, atomic number, species label
    2    1 H                       # Species index, atomic number, species label
%endblock ChemicalSpeciesLabel

%block PAO.Basis                 # Define Basis set
Si          2                    # Species label, number of l-shells
 n=3   0   2                         # n, l, Nzeta 
   5.264      3.900   
   1.000      1.000   
 n=3   1   2 P   1                   # n, l, Nzeta, Polarization, NzetaPol
   6.430      4.310   
   1.000      1.000   
H           1                    # Species label, number of l-shells
 n=1   0   2 P   1                   # n, l, Nzeta, Polarization, NzetaPol
   5.076      3.195   
   1.000      1.000   
%endblock PAO.Basis

prinput: ----------------------------------------------------------------------


siesta: ******************** Simulation parameters ****************************
siesta:
siesta: The following are some of the parameters of the simulation.
siesta: A complete list of the parameters used, including default values,
siesta: can be found in file out.fdf
siesta:
coor:   Atomic-coordinates input format  =     Cartesian coordinates
coor:                                          (in units of alat)
redata: Number of spin components        =     1
redata: Long output                      =     F
redata: Number of Atomic Species         =     2
redata: Charge density info will appear in .RHO file
redata: Write Mulliken Pop.              =     Atomic and Orbital charges
redata: Mesh Cutoff                      =    10.0000  Ry
redata: Net charge of the system         =     0.0000 |e|
redata: Max. number of SCF Iter          =    50
redata: Performing Pulay mixing using    =     3 iterations
redata: Mix DM in first SCF step ?       =     F
redata: Write Pulay info on disk?        =     F
redata: New DM Mixing Weight             =     0.1000
redata: New DM Occupancy tolerance       = 0.000000000001
redata: No kicks to SCF
redata: DM Mixing Weight for Kicks       =     0.5000
redata: DM Tolerance for SCF             =     0.000100
redata: Require Energy convergence for SCF =     F
redata: DM Energy tolerance for SCF      =     0.000100 eV
redata: Using Saved Data (generic)   =     F
redata: Use continuation files for DM    =     T
redata: Neglect nonoverlap interactions  =     F
redata: Method of Calculation            =     Diagonalization
redata: Divide and Conquer               =     T
redata: Electronic Temperature           =     0.0019  Ry
redata: Fix the spin of the system       =     F
redata: Dynamics option                  =     CG coord. optimization
redata: Variable cell                    =     F
redata: Use continuation files for CG    =     T
redata: Max atomic displ per move        =     0.0378  Bohr
redata: Maximum number of CG moves       =    50
redata: Force tolerance                  =     0.0008  Ry/Bohr
redata: ***********************************************************************

siesta: WARNING: XV file not found

siesta: Atomic coordinates (Bohr) and species
siesta:     -0.00017   2.11611   1.37174  1        1
siesta:      0.00010   6.16119   0.15912  1        2
siesta:      3.60770  -0.03789   2.38183  1        3
siesta:      3.60795   7.06713   2.48242  1        4
siesta:      3.60787   3.60787   5.10224  1        5
siesta:      3.60787  10.82360   5.10224  1        6
siesta:      1.45758   3.60787   6.88886  2        7
siesta:      5.75816   3.60787   6.88886  2        8
siesta:      1.45758  10.82360   6.88886  2        9
siesta:      5.75816  10.82360   6.88886  2       10

initatomlists: Number of atoms, orbitals, and projectors:     10    98   132

siesta: System type = slab      

siesta: k-grid: Number of k-points =     3
siesta: k-grid: Cutoff             =     5.728 Ang
siesta: k-grid: Supercell and displacements
siesta: k-grid:    3   0   0      0.000
siesta: k-grid:    0   2   0      0.500
siesta: k-grid:    0   0   1      0.000

superc: Internal auxiliary supercell:     5 x     3 x     2  =      30
superc: Number of atoms, orbitals, and projectors:    300  2940  3960

* Maximum dynamic memory allocated =     1 MB

siesta:                 ==============================
                            Begin CG move =      0
                        ==============================

outcoor: Atomic coordinates (scaled):                       
   -0.00002372    0.29326368    0.19010387   1  Si         1
    0.00001337    0.85385554    0.02205212   1  Si         2
    0.49997747   -0.00525118    0.33008893   1  Si         3
    0.50001096    0.97940531    0.34402895   1  Si         4
    0.50000000    0.50000000    0.70710000   1  Si         5
    0.50000000    1.50000000    0.70710000   1  Si         6
    0.20200000    0.50000000    0.95470000   2  H          7
    0.79800000    0.50000000    0.95470000   2  H          8
    0.20200000    1.50000000    0.95470000   2  H          9
    0.79800000    1.50000000    0.95470000   2  H         10

superc: Internal auxiliary supercell:     5 x     3 x     2  =      30
superc: Number of atoms, orbitals, and projectors:    300  2940  3960

outcell: Unit cell vectors (Ang):
        3.818400    0.000000    0.000000
        0.000000    7.636800    0.000000
        0.000000    0.000000   11.455200

outcell: Cell vector modules (Ang)   :    3.818400    7.636800   11.455200
outcell: Cell angles (23,13,12) (deg):     90.0000     90.0000     90.0000
outcell: Cell volume (Ang**3)        :    334.0377

InitMesh: MESH =     8 x    16 x    24 =        3072
InitMesh: Mesh cutoff (required, used) =    10.000    12.132 Ry

* Maximum dynamic memory allocated =    10 MB

stepf: Fermi-Dirac step function

siesta: Program's energy decomposition (eV):
siesta: Eions   =      1221.235657
siesta: Ena     =       369.290948
siesta: Ekin    =       281.018022
siesta: Enl     =        93.471874
siesta: DEna    =         0.000002
siesta: DUscf   =         0.000000
siesta: DUext   =         0.000000
siesta: Exc     =      -224.373701
siesta: eta*DQ  =         0.000000
siesta: Emadel  =         0.000000
siesta: Ekinion =         0.000000
siesta: Eharris =      -705.211430
siesta: Etot    =      -701.828512
siesta: FreeEng =      -701.828512

siesta: iscf   Eharris(eV)      E_KS(eV)   FreeEng(eV)   dDmax  Ef(eV)
siesta:    1     -705.2114     -701.8285     -701.8285  1.7716 -4.5399
timer: Routine,Calls,Time,% = IterSCF        1       3.422  69.22
elaps: Routine,Calls,Wall,% = IterSCF        1       3.435  67.03
siesta:    2     -707.4392     -702.4148     -702.4148  0.3029 -4.3365
siesta:    3     -704.2640     -702.7570     -702.7810  0.1816 -4.4161
siesta:    4     -704.0268     -702.8802     -702.8802  0.0769 -4.3167
siesta:    5     -703.8666     -703.0416     -703.0416  0.0741 -4.2272
siesta:    6     -703.8033     -703.3353     -703.3353  0.0266 -4.1698
siesta:    7     -703.8000     -703.4385     -703.4385  0.0168 -4.1836
siesta:    8     -703.7906     -703.5742     -703.5742  0.0216 -4.2215
siesta:    9     -703.7894     -703.6078     -703.6078  0.0195 -4.2297
siesta:   10     -703.7900     -703.6728     -703.6728  0.0103 -4.2418
siesta:   11     -703.7898     -703.6963     -703.6963  0.0068 -4.2400
siesta:   12     -703.7893     -703.7111     -703.7111  0.0060 -4.2350
siesta:   13     -703.7892     -703.7222     -703.7222  0.0037 -4.2301
siesta:   14     -703.7892     -703.7331     -703.7331  0.0029 -4.2302
siesta:   15     -703.7890     -703.7493     -703.7493  0.0029 -4.2352
siesta:   16     -703.7890     -703.7563     -703.7563  0.0027 -4.2379
siesta:   17     -703.7890     -703.7687     -703.7687  0.0016 -4.2414
siesta:   18     -703.7890     -703.7733     -703.7733  0.0010 -4.2409
siesta:   19     -703.7890     -703.7776     -703.7776  0.0007 -4.2389
siesta:   20     -703.7890     -703.7792     -703.7792  0.0006 -4.2377
siesta:   21     -703.7890     -703.7806     -703.7806  0.0005 -4.2376
siesta:   22     -703.7890     -703.7820     -703.7820  0.0004 -4.2387
siesta:   23     -703.7890     -703.7832     -703.7832  0.0004 -4.2393
siesta:   24     -703.7890     -703.7852     -703.7852  0.0003 -4.2398
siesta:   25     -703.7890     -703.7861     -703.7861  0.0002 -4.2396
siesta:   26     -703.7890     -703.7871     -703.7871  0.0001 -4.2391
siesta:   27     -703.7890     -703.7874     -703.7874  0.0001 -4.2390

siesta: E_KS(eV) =             -703.7878

siesta: E_KS - E_eggbox =      -703.7878

siesta: Atomic forces (eV/Ang):
     1   -0.000520    0.010014   -0.006403
     2    0.000228   -0.034531    0.008043
     3   -0.000466   -0.014456    0.009673
     4    0.000248    0.001768    0.003671
     5   -0.000050    0.065718    0.366133
     6   -0.000018   -0.367163   -0.944831
     7    2.220415   -0.102283    0.972696
     8   -2.220397   -0.102310    0.972648
     9    2.309626    0.075569    0.675415
    10   -2.309612    0.075649    0.675389
----------------------------------------
   Tot   -0.000547   -0.392026    2.732434
----------------------------------------
   Max    2.309626
   Res    0.904315    sqrt( Sum f_i^2 / 3N )
----------------------------------------
   Max    0.034531    constrained

Stress-tensor-Voigt (kbar):      -63.39       -2.74       17.77        0.00        2.87        0.00
Target enthalpy (eV/cell)     -703.7878
 
mulliken: Atomic and Orbital Populations:

Species: Si                  
Atom  Qatom  Qorb
               3s      3s      3py     3pz     3px     3py     3pz     3px     
               3Pdxy   3Pdyz   3Pdz2   3Pdxz   3Pdx2-y2
   1  3.924   0.821   0.374   0.552   0.568   0.520   0.262   0.099   0.221
              0.166   0.079   0.049   0.105   0.109
   2  4.252   0.902   0.330   0.797   0.981   0.731   0.058   0.028   0.120
              0.057   0.044   0.035   0.072   0.095
   3  3.978   0.756   0.362   0.586   0.751   0.559   0.186   0.147   0.226
              0.106   0.090   0.049   0.050   0.110
   4  3.861   0.750   0.362   0.543   0.616   0.492   0.201   0.203   0.260
              0.067   0.092   0.058   0.110   0.107
   5  3.857   0.625   0.411   0.622   0.543   0.567   0.120   0.230   0.227
              0.044   0.076   0.038   0.228   0.125
   6  3.864   0.633   0.388   0.700   0.639   0.690   0.112   0.180   0.181
              0.036   0.080   0.029   0.109   0.088

Species: H                   
Atom  Qatom  Qorb
               1s      1s      1Ppy    1Ppz    1Ppx    
   7  1.077   0.545   0.415   0.012   0.016   0.090
   8  1.077   0.545   0.415   0.012   0.016   0.090
   9  1.055   0.494   0.444   0.013   0.015   0.089
  10  1.055   0.494   0.444   0.013   0.015   0.089

mulliken: Qtot =       28.000

cgvc: WARNING: CG file not found

* Maximum dynamic memory allocated =    11 MB

siesta:                 ==============================
                            Begin CG move =      1
                        ==============================

outcoor: Atomic coordinates (scaled):                       
   -0.00008941    0.29452906    0.18929477   1  Si         1
    0.00004224    0.84949208    0.02306852   1  Si         2
    0.49991852   -0.00707791    0.33131130   1  Si         3
    0.50004232    0.97962866    0.34449280   1  Si         4
    0.50000000    0.50000000    0.70710000   1  Si         5
    0.50000000    1.50000000    0.70710000   1  Si         6
    0.20200000    0.50000000    0.95470000   2  H          7
    0.79800000    0.50000000    0.95470000   2  H          8
    0.20200000    1.50000000    0.95470000   2  H          9
    0.79800000    1.50000000    0.95470000   2  H         10

superc: Internal auxiliary supercell:     5 x     3 x     2  =      30
superc: Number of atoms, orbitals, and projectors:    300  2940  3960

outcell: Unit cell vectors (Ang):
        3.818400    0.000000    0.000000
        0.000000    7.636800    0.000000
        0.000000    0.000000   11.455200

outcell: Cell vector modules (Ang)   :    3.818400    7.636800   11.455200
outcell: Cell angles (23,13,12) (deg):     90.0000     90.0000     90.0000
outcell: Cell volume (Ang**3)        :    334.0377

siesta: iscf   Eharris(eV)      E_KS(eV)   FreeEng(eV)   dDmax  Ef(eV)
siesta:    1     -703.7859     -703.8130     -703.8130  0.0160 -4.2151
siesta:    2     -703.8129     -703.7782     -703.7782  0.0729 -4.2556
siesta:    3     -703.7845     -703.8042     -703.8042  0.0047 -4.2237
siesta:    4     -703.7845     -703.7892     -703.7892  0.0044 -4.2304
siesta:    5     -703.7844     -703.7849     -703.7849  0.0010 -4.2265
siesta:    6     -703.7844     -703.7843     -703.7843  0.0008 -4.2257
siesta:    7     -703.7844     -703.7837     -703.7837  0.0003 -4.2246
siesta:    8     -703.7843     -703.7841     -703.7841  0.0002 -4.2249
siesta:    9     -703.7844     -703.7844     -703.7844  0.0001 -4.2252
siesta:   10     -703.7844     -703.7844     -703.7844  0.0001 -4.2252

siesta: E_KS(eV) =             -703.7844

siesta: Atomic forces (eV/Ang):
     1   -0.001664   -0.335826    0.131252
     2    0.001152    0.321310   -0.094421
     3   -0.001955    0.200127   -0.079229
     4    0.000438   -0.054122   -0.050657
     5   -0.000281    0.038869    0.378849
     6   -0.000078   -0.394099   -0.911134
     7    2.222635   -0.099871    0.974695
     8   -2.222544   -0.099968    0.974518
     9    2.309960    0.072111    0.674573
    10   -2.309912    0.072403    0.674502
----------------------------------------
   Tot   -0.002248   -0.279064    2.672948
----------------------------------------
   Max    2.309960
   Res    0.909506    sqrt( Sum f_i^2 / 3N )
----------------------------------------
   Max    0.335826    constrained

Stress-tensor-Voigt (kbar):      -62.57       -4.81       16.82        0.00        4.64        0.01
Target enthalpy (eV/cell)     -703.7844
 
mulliken: Atomic and Orbital Populations:

Species: Si                  
Atom  Qatom  Qorb
               3s      3s      3py     3pz     3px     3py     3pz     3px     
               3Pdxy   3Pdyz   3Pdz2   3Pdxz   3Pdx2-y2
   1  3.921   0.814   0.375   0.547   0.568   0.520   0.266   0.101   0.220
              0.167   0.081   0.049   0.105   0.108
   2  4.252   0.896   0.330   0.799   0.980   0.730   0.062   0.030   0.120
              0.058   0.045   0.035   0.072   0.095
   3  3.981   0.760   0.360   0.583   0.753   0.567   0.188   0.146   0.221
              0.105   0.090   0.049   0.049   0.108
   4  3.864   0.753   0.361   0.545   0.618   0.493   0.201   0.203   0.258
              0.067   0.092   0.058   0.109   0.106
   5  3.857   0.625   0.411   0.623   0.543   0.568   0.120   0.230   0.226
              0.044   0.076   0.038   0.228   0.126
   6  3.862   0.630   0.389   0.699   0.635   0.688   0.113   0.182   0.182
              0.036   0.080   0.030   0.109   0.088

Species: H                   
Atom  Qatom  Qorb
               1s      1s      1Ppy    1Ppz    1Ppx    
   7  1.077   0.545   0.415   0.012   0.016   0.090
   8  1.077   0.545   0.415   0.012   0.016   0.090
   9  1.054   0.494   0.444   0.012   0.015   0.089
  10  1.054   0.494   0.444   0.012   0.015   0.089

mulliken: Qtot =       28.000

* Maximum dynamic memory allocated =    11 MB

siesta:                 ==============================
                            Begin CG move =      2
                        ==============================

outcoor: Atomic coordinates (scaled):                       
   -0.00002892    0.29336380    0.19003985   1  Si         1
    0.00001565    0.85351030    0.02213254   1  Si         2
    0.49997281   -0.00539571    0.33018564   1  Si         3
    0.50001344    0.97942298    0.34406565   1  Si         4
    0.50000000    0.50000000    0.70710000   1  Si         5
    0.50000000    1.50000000    0.70710000   1  Si         6
    0.20200000    0.50000000    0.95470000   2  H          7
    0.79800000    0.50000000    0.95470000   2  H          8
    0.20200000    1.50000000    0.95470000   2  H          9
    0.79800000    1.50000000    0.95470000   2  H         10

superc: Internal auxiliary supercell:     5 x     3 x     2  =      30
superc: Number of atoms, orbitals, and projectors:    300  2940  3960

outcell: Unit cell vectors (Ang):
        3.818400    0.000000    0.000000
        0.000000    7.636800    0.000000
        0.000000    0.000000   11.455200

outcell: Cell vector modules (Ang)   :    3.818400    7.636800   11.455200
outcell: Cell angles (23,13,12) (deg):     90.0000     90.0000     90.0000
outcell: Cell volume (Ang**3)        :    334.0377

siesta: iscf   Eharris(eV)      E_KS(eV)   FreeEng(eV)   dDmax  Ef(eV)
siesta:    1     -703.7904     -703.7609     -703.7609  0.0150 -4.2396
siesta:    2     -703.8157     -703.7836     -703.7836  0.0803 -4.2134
siesta:    3     -703.7892     -703.7681     -703.7681  0.0044 -4.2392
siesta:    4     -703.7892     -703.7837     -703.7837  0.0025 -4.2342
siesta:    5     -703.7891     -703.7873     -703.7873  0.0009 -4.2379
siesta:    6     -703.7890     -703.7879     -703.7879  0.0006 -4.2385
siesta:    7     -703.7891     -703.7882     -703.7882  0.0002 -4.2397
siesta:    8     -703.7890     -703.7882     -703.7882  0.0002 -4.2395
siesta:    9     -703.7890     -703.7885     -703.7885  0.0001 -4.2390

siesta: E_KS(eV) =             -703.7886

siesta: Atomic forces (eV/Ang):
     1   -0.000632   -0.016726    0.003527
     2    0.000317   -0.020022    0.006328
     3   -0.000669   -0.005093    0.005345
     4    0.000267   -0.000980   -0.000649
     5   -0.000066    0.063381    0.368354
     6   -0.000027   -0.368695   -0.943001
     7    2.220527   -0.102094    0.972636
     8   -2.220499   -0.102135    0.972580
     9    2.309332    0.075134    0.675555
    10   -2.309314    0.075239    0.675523
----------------------------------------
   Tot   -0.000765   -0.401992    2.736199
----------------------------------------
   Max    2.309332
   Res    0.904245    sqrt( Sum f_i^2 / 3N )
----------------------------------------
   Max    0.020022    constrained

Stress-tensor-Voigt (kbar):      -63.32       -2.91       17.78        0.00        2.93        0.00
Target enthalpy (eV/cell)     -703.7886
 
mulliken: Atomic and Orbital Populations:

Species: Si                  
Atom  Qatom  Qorb
               3s      3s      3py     3pz     3px     3py     3pz     3px     
               3Pdxy   3Pdyz   3Pdz2   3Pdxz   3Pdx2-y2
   1  3.924   0.821   0.374   0.551   0.568   0.520   0.262   0.099   0.221
              0.166   0.079   0.049   0.105   0.109
   2  4.251   0.902   0.330   0.797   0.981   0.731   0.058   0.028   0.120
              0.057   0.044   0.035   0.072   0.095
   3  3.979   0.757   0.362   0.586   0.751   0.560   0.186   0.147   0.225
              0.106   0.090   0.049   0.050   0.110
   4  3.861   0.751   0.362   0.543   0.617   0.492   0.201   0.203   0.260
              0.067   0.092   0.058   0.109   0.107
   5  3.857   0.625   0.411   0.623   0.543   0.567   0.120   0.230   0.227
              0.044   0.076   0.038   0.228   0.125
   6  3.864   0.632   0.388   0.700   0.638   0.690   0.112   0.180   0.181
              0.036   0.080   0.029   0.109   0.088

Species: H                   
Atom  Qatom  Qorb
               1s      1s      1Ppy    1Ppz    1Ppx    
   7  1.077   0.545   0.415   0.012   0.016   0.090
   8  1.077   0.545   0.415   0.012   0.016   0.090
   9  1.055   0.494   0.444   0.013   0.015   0.089
  10  1.055   0.494   0.444   0.013   0.015   0.089

mulliken: Qtot =       28.000

cgvc: Finished line minimization    1.  Mean atomic displacement =    0.0009

* Maximum dynamic memory allocated =    11 MB

siesta:                 ==============================
                            Begin CG move =      3
                        ==============================

outcoor: Atomic coordinates (scaled):                       
   -0.00003819    0.29314067    0.19008288   1  Si         1
    0.00002027    0.85319961    0.02222805   1  Si         2
    0.49996307   -0.00548006    0.33026901   1  Si         3
    0.50001738    0.97941101    0.34406007   1  Si         4
    0.50000000    0.50000000    0.70710000   1  Si         5
    0.50000000    1.50000000    0.70710000   1  Si         6
    0.20200000    0.50000000    0.95470000   2  H          7
    0.79800000    0.50000000    0.95470000   2  H          8
    0.20200000    1.50000000    0.95470000   2  H          9
    0.79800000    1.50000000    0.95470000   2  H         10

superc: Internal auxiliary supercell:     5 x     3 x     2  =      30
superc: Number of atoms, orbitals, and projectors:    300  2940  3960

outcell: Unit cell vectors (Ang):
        3.818400    0.000000    0.000000
        0.000000    7.636800    0.000000
        0.000000    0.000000   11.455200

outcell: Cell vector modules (Ang)   :    3.818400    7.636800   11.455200
outcell: Cell angles (23,13,12) (deg):     90.0000     90.0000     90.0000
outcell: Cell volume (Ang**3)        :    334.0377

siesta: iscf   Eharris(eV)      E_KS(eV)   FreeEng(eV)   dDmax  Ef(eV)
siesta:    1     -703.7891     -703.7901     -703.7901  0.0006 -4.2391
siesta:    2     -703.7891     -703.7891     -703.7891  0.0006 -4.2394
siesta:    3     -703.7891     -703.7895     -703.7895  0.0002 -4.2391
siesta:    4     -703.7891     -703.7891     -703.7891  0.0001 -4.2388

siesta: E_KS(eV) =             -703.7891

siesta: Atomic forces (eV/Ang):
     1   -0.000857   -0.015707    0.006062
     2    0.000374   -0.014458    0.007812
     3   -0.000805   -0.006062    0.002106
     4    0.000336   -0.005240   -0.002036
     5   -0.000122    0.063018    0.367822
     6   -0.000042   -0.371308   -0.940985
     7    2.220675   -0.102104    0.972763
     8   -2.220634   -0.102151    0.972682
     9    2.309557    0.075045    0.675397
    10   -2.309533    0.075173    0.675356
----------------------------------------
   Tot   -0.001052   -0.403792    2.736978
----------------------------------------
   Max    2.309557
   Res    0.904261    sqrt( Sum f_i^2 / 3N )
----------------------------------------
   Max    0.015707    constrained

Stress-tensor-Voigt (kbar):      -63.34       -2.95       17.79        0.00        2.98        0.00
Target enthalpy (eV/cell)     -703.7891
 
mulliken: Atomic and Orbital Populations:

Species: Si                  
Atom  Qatom  Qorb
               3s      3s      3py     3pz     3px     3py     3pz     3px     
               3Pdxy   3Pdyz   3Pdz2   3Pdxz   3Pdx2-y2
   1  3.924   0.821   0.374   0.551   0.568   0.520   0.262   0.099   0.221
              0.166   0.079   0.049   0.105   0.109
   2  4.252   0.902   0.330   0.798   0.981   0.731   0.058   0.028   0.120
              0.057   0.044   0.035   0.072   0.095
   3  3.978   0.756   0.362   0.585   0.751   0.560   0.187   0.147   0.225
              0.106   0.090   0.049   0.050   0.110
   4  3.862   0.751   0.361   0.543   0.617   0.492   0.201   0.203   0.260
              0.067   0.092   0.058   0.109   0.107
   5  3.857   0.625   0.411   0.622   0.543   0.568   0.120   0.230   0.227
              0.044   0.076   0.038   0.228   0.125
   6  3.864   0.632   0.388   0.700   0.638   0.689   0.112   0.180   0.181
              0.036   0.080   0.029   0.109   0.088

Species: H                   
Atom  Qatom  Qorb
               1s      1s      1Ppy    1Ppz    1Ppx    
   7  1.077   0.545   0.415   0.012   0.016   0.090
   8  1.077   0.545   0.415   0.012   0.016   0.090
   9  1.055   0.494   0.444   0.013   0.015   0.089
  10  1.055   0.494   0.444   0.013   0.015   0.089

mulliken: Qtot =       28.000

* Maximum dynamic memory allocated =    11 MB

outcoor: Relaxed atomic coordinates (scaled):               
   -0.00003819    0.29314067    0.19008288   1  Si         1
    0.00002027    0.85319961    0.02222805   1  Si         2
    0.49996307   -0.00548006    0.33026901   1  Si         3
    0.50001738    0.97941101    0.34406007   1  Si         4
    0.50000000    0.50000000    0.70710000   1  Si         5
    0.50000000    1.50000000    0.70710000   1  Si         6
    0.20200000    0.50000000    0.95470000   2  H          7
    0.79800000    0.50000000    0.95470000   2  H          8
    0.20200000    1.50000000    0.95470000   2  H          9
    0.79800000    1.50000000    0.95470000   2  H         10

coxmol: Writing XMOL coordinates into file si2x1h.xyz                                                      

siesta: Program's energy decomposition (eV):
siesta: Eions   =      1221.235657
siesta: Ena     =       369.282115
siesta: Ekin    =       305.191316
siesta: Enl     =        70.739536
siesta: DEna    =         0.695129
siesta: DUscf   =         2.235857
siesta: DUext   =         0.000000
siesta: Exc     =      -230.697371
siesta: eta*DQ  =         0.000000
siesta: Emadel  =         0.000000
siesta: Ekinion =         0.000000
siesta: Eharris =      -703.789057
siesta: Etot    =      -703.789076
siesta: FreeEng =      -703.789076

siesta: Final energy (eV):
siesta:       Kinetic =     305.191316
siesta:       Hartree =     896.161659
siesta:    Ext. field =       0.000000
siesta:   Exch.-corr. =    -230.697371
siesta:  Ion-electron =   -2065.039954
siesta:       Ion-ion =     390.595275
siesta:       Ekinion =       0.000000
siesta:         Total =    -703.789076

siesta: Atomic forces (eV/Ang):
siesta:      1   -0.000857   -0.015707    0.006062
siesta:      2    0.000374   -0.014458    0.007812
siesta:      3   -0.000805   -0.006062    0.002106
siesta:      4    0.000336   -0.005240   -0.002036
siesta:      5   -0.000122    0.063018    0.367822
siesta:      6   -0.000042   -0.371308   -0.940985
siesta:      7    2.220675   -0.102104    0.972763
siesta:      8   -2.220634   -0.102151    0.972682
siesta:      9    2.309557    0.075045    0.675397
siesta:     10   -2.309533    0.075173    0.675356
siesta: ----------------------------------------
siesta:    Tot   -0.001052   -0.403792    2.736978

siesta: Stress tensor (static) (eV/Ang**3):
siesta:    -0.039532    0.000001    0.000001
siesta:     0.000001   -0.001842    0.001858
siesta:     0.000001    0.001858    0.011101

siesta: Cell volume =        334.037723 Ang**3

siesta: Pressure (static):
siesta:                Solid            Molecule  Units
siesta:           0.00010991          0.00018163  Ry/Bohr**3
siesta:           0.01009124          0.01667658  eV/Ang**3
siesta:          16.16812360         26.71911522  kBar

siesta: Electric dipole (a.u.)  =    0.000000    0.000000   -0.020931
siesta: Electric dipole (Debye) =    0.000000    0.000000   -0.053203

* Maximum dynamic memory allocated : Node    0 =    11 MB

* Maximum memory occured during ranger                        

timer: CPU execution times:
timer:  Routine       Calls   Time/call    Tot.time        %
timer:  siesta            1      28.634      28.634   100.00
timer:  Setup             1       0.478       0.478     1.67
timer:  bands             1       0.001       0.001     0.00
timer:  writewave         1       0.000       0.000     0.00
timer:  KSV_init          1       0.001       0.001     0.00
timer:  IterMD            4       7.018      28.072    98.04
timer:  hsparse           5       0.180       0.902     3.15
timer:  overfsm           8       0.141       1.131     3.95
timer:  IterSCF          54       0.479      25.873    90.36
timer:  kinefsm           8       0.136       1.090     3.81
timer:  nlefsm            8       1.105       8.840    30.87
timer:  DHSCF            55       0.137       7.520    26.26
timer:  DHSCF1            1       0.005       0.005     0.02
timer:  DHSCF2            4       0.059       0.235     0.82
timer:  REORD           456       0.000       0.013     0.05
timer:  POISON           59       0.001       0.034     0.12
timer:  DHSCF3           55       0.124       6.824    23.83
timer:  rhoofd           55       0.067       3.671    12.82
timer:  cellXC           55       0.001       0.078     0.27
timer:  vmat             54       0.056       3.012    10.52
timer:  diagon           50       0.134       6.691    23.37
timer:  cdiag           300       0.012       3.651    12.75
timer:  cdiag1          300       0.001       0.230     0.80
timer:  cdiag2          300       0.003       0.824     2.88
timer:  cdiag3          300       0.008       2.490     8.69
timer:  cdiag4          300       0.000       0.057     0.20
timer:  DHSCF4            4       0.112       0.449     1.57
timer:  dfscf             4       0.107       0.428     1.49
timer:  optical           1       0.000       0.000     0.00
  

elaps: ELAPSED times:
elaps:  Routine       Calls   Time/call    Tot.time        %
elaps:  siesta            1      30.772      30.772   100.00
elaps:  Setup             1       0.643       0.643     2.09
elaps:  bands             1       0.000       0.000     0.00
elaps:  writewave         1       0.001       0.001     0.00
elaps:  KSV_init          1       0.000       0.000     0.00
elaps:  IterMD            4       7.509      30.038    97.61
elaps:  hsparse           5       0.180       0.902     2.93
elaps:  overfsm           8       0.141       1.129     3.67
elaps:  IterSCF          54       0.515      27.805    90.36
elaps:  kinefsm           8       0.137       1.094     3.55
elaps:  nlefsm            8       1.105       8.838    28.72
elaps:  DHSCF            55       0.137       7.528    24.46
elaps:  DHSCF1            1       0.006       0.006     0.02
elaps:  DHSCF2            4       0.059       0.235     0.76
elaps:  REORD           456       0.000       0.011     0.04
elaps:  POISON           59       0.001       0.035     0.12
elaps:  DHSCF3           55       0.124       6.827    22.19
elaps:  rhoofd           55       0.067       3.662    11.90
elaps:  cellXC           55       0.002       0.083     0.27
elaps:  vmat             54       0.056       3.013     9.79
elaps:  diagon           50       0.134       6.693    21.75
elaps:  cdiag           300       0.012       3.660    11.89
elaps:  cdiag1          300       0.001       0.258     0.84
elaps:  cdiag2          300       0.003       0.818     2.66
elaps:  cdiag3          300       0.008       2.492     8.10
elaps:  cdiag4          300       0.000       0.055     0.18
elaps:  DHSCF4            4       0.112       0.450     1.46
elaps:  dfscf             4       0.107       0.428     1.39
elaps:  optical           1       0.000       0.000     0.00
  
>> End of run:  24-FEB-2006  12:54:31
