Siesta Version: siesta@uam.es--2006/siesta-devel--reference--2.1--patch-28
Architecture  : i686-pc-linux-gnu--Intel
Compiler flags: ifort -O2 -mp
SERIAL version

* Running in serial mode
>> Start of run:  17-DEC-2006  19:38:43

                           ***********************       
                           *  WELCOME TO SIESTA  *       
                           ***********************       

reinit: Reading from standard input
************************** Dump of input data file ****************************
# Si(100) - asymmetric 2x1 reconstruction
# Oscar Paz
SystemName              Si(100)-2x1 3 layers (H-saturated)
SystemLabel             si2x1h
NumberOfAtoms           10
NumberOfSpecies 2
%block ChemicalSpeciesLabel
        1       14      Si
        2       1       H
%endblock ChemicalSpeciesLabel
PAO.BasisType           split
PAO.BasisSize           DZP
PAO.EnergyShift 200 meV
PAO.SplitNorm           0.30
LatticeConstant 3.8184 Ang      # a_s = a_0 / sqrt(2) , a_0 = 5.40 Ang
%block LatticeParameters
        1.      2.      3.      90.     90.     90.
%endblock LatticeParameters
AtomicCoordinatesFormat ScaledCartesian
%block AtomicCoordinatesAndAtomicSpecies
   -0.00002372    0.29326368    0.19010387   1  Si        1
    0.00001337    0.85385554    0.02205212   1  Si        2
    0.49997747   -0.00525118    0.33008893   1  Si        3
    0.50001096    0.97940531    0.34402895   1  Si        4
    0.50000000    0.50000000    0.70710000   1  Si        5
    0.50000000    1.50000000    0.70710000   1  Si        6
    0.20200000    0.50000000    0.95470000   2  H         7
    0.79800000    0.50000000    0.95470000   2  H         8
    0.20200000    1.50000000    0.95470000   2  H         9
    0.79800000    1.50000000    0.95470000   2  H        10
%endblock AtomicCoordinatesAndAtomicSpecies
%block GeometryConstraints
        position from 5 to 10
%endblock GeometryConstraints
kgrid_cutoff            5.0 Ang
XC.functional           LDA
XC.authors              PZ
MeshCutoff              10. Ry
DM.MixingWeight 0.1
DM.NumberPulay  3
SolutionMethod  diagon
MD.TypeOfRun            CG
MD.NumCGsteps           50
MD.MaxCGDispl           0.02 Ang
MD.MaxForceTol  0.02 eV/Ang
WriteCoorStep           .true.
WriteForces             .true.
WriteMullikenPop        1
WriteCoorXmol           .true.
WriteMDXmol             .true.
WriteMDhistory          .true.
DM.UseSaveDM            .true.
MD.UseSaveXV            .true.
MD.UseSaveCG            .true.
SaveRho                 .true.
SaveDeltaRho            .true.
SaveElectrostaticPotential      .true.
SaveTotalPotential      .true.
************************** End of input data file *****************************

reinit: -----------------------------------------------------------------------
reinit: System Name: Si(100)-2x1 3 layers (H-saturated                          
reinit: -----------------------------------------------------------------------
reinit: System Label: si2x1h                                                      
reinit: -----------------------------------------------------------------------

initatom: Reading input for the pseudopotentials and atomic orbitals ----------
 Species number:            1  Label: Si Atomic number:          14
 Species number:            2  Label: H Atomic number:           1
Ground state valence configuration:   3s02  3p02
Reading pseudopotential information in formatted form from Si.psf

Valence configuration for pseudopotential generation:
3s( 2.00) rc: 1.89
3p( 2.00) rc: 1.89
3d( 0.00) rc: 1.89
4f( 0.00) rc: 1.89
Dumping pseudopotential information in formatted form in Si.psdump
Ground state valence configuration:   1s01
Reading pseudopotential information in formatted form from H.psf

Valence configuration for pseudopotential generation:
1s( 1.00) rc: 1.25
2p( 0.00) rc: 1.25
3d( 0.00) rc: 1.25
4f( 0.00) rc: 1.25
Dumping pseudopotential information in formatted form in H.psdump
For Si, standard SIESTA heuristics set lmxkb to 3
 (one more than the basis l, including polarization orbitals).
Use PS.lmax or PS.KBprojectors blocks to override.
For H, standard SIESTA heuristics set lmxkb to 2
 (one more than the basis l, including polarization orbitals).
Use PS.lmax or PS.KBprojectors blocks to override.

<basis_specs>
===============================================================================
Si                   Z=  14    Mass=  28.090        Charge= 0.17977+309
Lmxo=1 Lmxkb=3     BasisType=split      Semic=F
L=0  Nsemic=0  Cnfigmx=3
          n=1  nzeta=2  polorb=0
            splnorm:   0.30000    
               vcte:    0.0000    
               rinn:    0.0000    
                rcs:    0.0000      0.0000    
            lambdas:    1.0000      1.0000    
L=1  Nsemic=0  Cnfigmx=3
          n=1  nzeta=2  polorb=1
            splnorm:   0.30000    
               vcte:    0.0000    
               rinn:    0.0000    
                rcs:    0.0000      0.0000    
            lambdas:    1.0000      1.0000    
-------------------------------------------------------------------------------
L=0  Nkbl=1  erefs: 0.17977+309
L=1  Nkbl=1  erefs: 0.17977+309
L=2  Nkbl=1  erefs: 0.17977+309
L=3  Nkbl=1  erefs: 0.17977+309
===============================================================================
</basis_specs>

atom: Called for Si                    (Z =  14)

read_vps: Pseudopotential generation method:
read_vps: ATM3      Troullier-Martins                       
Total valence charge:    4.00000

xc_check: Exchange-correlation functional:
xc_check: Ceperley-Alder
V l=0 = -2*Zval/r beyond r=  2.5494
V l=1 = -2*Zval/r beyond r=  2.5494
V l=2 = -2*Zval/r beyond r=  2.5494
V l=3 = -2*Zval/r beyond r=  2.5494
All V_l potentials equal beyond r=  1.8652
This should be close to max(r_c) in ps generation
All pots = -2*Zval/r beyond r=  2.5494
Using large-core scheme for Vlocal

atom: Estimated core radius    2.54944

atom: Including non-local core corrections could be a good idea
atom: Maximum radius for 4*pi*r*r*local-pseudopot. charge    2.85303
atom: Maximum radius for r*vlocal+2*Zval:    2.58151
GHOST: No ghost state for L =  0
GHOST: No ghost state for L =  1
GHOST: No ghost state for L =  2
GHOST: No ghost state for L =  3

KBgen: Kleinman-Bylander projectors: 
   l= 0   rc=  1.936440   el= -0.796617   Ekb=  4.661340   kbcos=  0.299756
   l= 1   rc=  1.936440   el= -0.307040   Ekb=  1.494238   kbcos=  0.301471
   l= 2   rc=  1.936440   el=  0.002313   Ekb= -2.808672   kbcos= -0.054903
   l= 3   rc=  1.936440   el=  0.003402   Ekb= -0.959059   kbcos= -0.005513

KBgen: Total number of  Kleinman-Bylander projectors:   16
atom: -------------------------------------------------------------------------

atom: SANKEY-TYPE ORBITALS:
atom: Selected multiple-zeta basis: split     

SPLIT: Orbitals with angular momentum L= 0

SPLIT: Basis orbitals for state 3s

SPLIT: PAO cut-off radius determined from an
SPLIT: energy shift=  0.014700 Ry

   izeta = 1
                 lambda =    1.000000
                     rc =    5.264094
                 energy =   -0.784048
                kinetic =    0.554443
    potential(screened) =   -1.338491
       potential(ionic) =   -3.803943

   izeta = 2
                 rmatch =    3.899691
              splitnorm =    0.300000
                 energy =   -0.557333
                kinetic =    1.099884
    potential(screened) =   -1.657217
       potential(ionic) =   -4.272900

SPLIT: Orbitals with angular momentum L= 1

SPLIT: Basis orbitals for state 3p

SPLIT: PAO cut-off radius determined from an
SPLIT: energy shift=  0.014700 Ry

   izeta = 1
                 lambda =    1.000000
                     rc =    6.429618
                 energy =   -0.291747
                kinetic =    0.864936
    potential(screened) =   -1.156682
       potential(ionic) =   -3.408656

   izeta = 2
                 rmatch =    4.309843
              splitnorm =    0.300000
                 energy =   -0.094863
                kinetic =    1.512251
    potential(screened) =   -1.607114
       potential(ionic) =   -4.136814

POLgen: Perturbative polarization orbital with L=  2

POLgen: Polarization orbital for state 3p

   izeta = 1
                     rc =    6.429618
                 energy =    0.416453
                kinetic =    1.265989
    potential(screened) =   -0.849535
       potential(ionic) =   -2.900468
atom: Total number of Sankey-type orbitals: 13

atm_pop: Valence configuration (for local Pseudopot. screening):
 3s( 2.00)                                                            
 3p( 2.00)                                                            
Vna: chval, zval:    4.00000   4.00000

Vna:  Cut-off radius for the neutral-atom potential:   6.429618

atom: _________________________________________________________________________

<basis_specs>
===============================================================================
H                    Z=   1    Mass=  1.0100        Charge= 0.17977+309
Lmxo=0 Lmxkb=2     BasisType=split      Semic=F
L=0  Nsemic=0  Cnfigmx=1
          n=1  nzeta=2  polorb=1
            splnorm:   0.30000    
               vcte:    0.0000    
               rinn:    0.0000    
                rcs:    0.0000      0.0000    
            lambdas:    1.0000      1.0000    
-------------------------------------------------------------------------------
L=0  Nkbl=1  erefs: 0.17977+309
L=1  Nkbl=1  erefs: 0.17977+309
L=2  Nkbl=1  erefs: 0.17977+309
===============================================================================
</basis_specs>

atom: Called for H                     (Z =   1)

read_vps: Pseudopotential generation method:
read_vps: ATM3      Troullier-Martins                       
Total valence charge:    1.00000

xc_check: Exchange-correlation functional:
xc_check: Ceperley-Alder
V l=0 = -2*Zval/r beyond r=  1.2343
V l=1 = -2*Zval/r beyond r=  1.2189
V l=2 = -2*Zval/r beyond r=  1.2189
All V_l potentials equal beyond r=  1.2343
This should be close to max(r_c) in ps generation
All pots = -2*Zval/r beyond r=  1.2343

VLOCAL1: 99.0% of the norm of Vloc inside     28.493 Ry
VLOCAL1: 99.9% of the norm of Vloc inside     64.935 Ry
atom: Maximum radius for 4*pi*r*r*local-pseudopot. charge    1.45251
atom: Maximum radius for r*vlocal+2*Zval:    1.21892
GHOST: No ghost state for L =  0
GHOST: No ghost state for L =  1
GHOST: No ghost state for L =  2

KBgen: Kleinman-Bylander projectors: 
   l= 0   rc=  1.364359   el= -0.467325   Ekb= -2.005361   kbcos= -0.336422
   l= 1   rc=  1.434438   el=  0.001430   Ekb= -0.501708   kbcos= -0.021697
   l= 2   rc=  1.470814   el=  0.002365   Ekb= -0.190555   kbcos= -0.002281

KBgen: Total number of  Kleinman-Bylander projectors:    9
atom: -------------------------------------------------------------------------

atom: SANKEY-TYPE ORBITALS:
atom: Selected multiple-zeta basis: split     

SPLIT: Orbitals with angular momentum L= 0

SPLIT: Basis orbitals for state 1s

SPLIT: PAO cut-off radius determined from an
SPLIT: energy shift=  0.014700 Ry

   izeta = 1
                 lambda =    1.000000
                     rc =    5.075940
                 energy =   -0.454238
                kinetic =    0.905976
    potential(screened) =   -1.360214
       potential(ionic) =   -1.894198

   izeta = 2
                 rmatch =    3.195439
              splitnorm =    0.300000
                 energy =   -0.202816
                kinetic =    1.888421
    potential(screened) =   -2.091238
       potential(ionic) =   -2.676134

POLgen: Perturbative polarization orbital with L=  1

POLgen: Polarization orbital for state 1s

   izeta = 1
                     rc =    5.075940
                 energy =    0.658058
                kinetic =    1.324347
    potential(screened) =   -0.666290
       potential(ionic) =   -1.141575
atom: Total number of Sankey-type orbitals:  5

atm_pop: Valence configuration (for local Pseudopot. screening):
 1s( 1.00)                                                            
Vna: chval, zval:    1.00000   1.00000

Vna:  Cut-off radius for the neutral-atom potential:   5.075940

atom: _________________________________________________________________________

prinput: Basis input ----------------------------------------------------------

PAO.BasisType split     

%block ChemicalSpeciesLabel
    1   14 Si                      # Species index, atomic number, species label
    2    1 H                       # Species index, atomic number, species label
%endblock ChemicalSpeciesLabel

%block PAO.Basis                 # Define Basis set
Si                    2                    # Species label, number of l-shells
 n=3   0   2                         # n, l, Nzeta 
   5.264      3.900   
   1.000      1.000   
 n=3   1   2 P   1                   # n, l, Nzeta, Polarization, NzetaPol
   6.430      4.310   
   1.000      1.000   
H                     1                    # Species label, number of l-shells
 n=1   0   2 P   1                   # n, l, Nzeta, Polarization, NzetaPol
   5.076      3.195   
   1.000      1.000   
%endblock PAO.Basis

prinput: ----------------------------------------------------------------------


siesta: ******************** Simulation parameters ****************************
siesta:
siesta: The following are some of the parameters of the simulation.
siesta: A complete list of the parameters used, including default values,
siesta: can be found in file out.fdf
siesta:
coor:   Atomic-coordinates input format  =     Cartesian coordinates
coor:                                          (in units of alat)
redata: Number of spin components        =     1
redata: Long output                      =     F
redata: Number of Atomic Species         =     2
redata: Charge density info will appear in .RHO file
redata: Write Mulliken Pop.              =     Atomic and Orbital charges
redata: Mesh Cutoff                      =    10.0000  Ry
redata: Net charge of the system         =     0.0000 |e|
redata: Max. number of SCF Iter          =    50
redata: Performing Pulay mixing using    =     3 iterations
redata: Mix DM in first SCF step ?       =     F
redata: Write Pulay info on disk?        =     F
redata: New DM Mixing Weight             =     0.1000
redata: New DM Occupancy tolerance       = 0.000000000001
redata: No kicks to SCF
redata: DM Mixing Weight for Kicks       =     0.5000
redata: DM Tolerance for SCF             =     0.000100
redata: Require Energy convergence for SCF =     F
redata: DM Energy tolerance for SCF      =     0.000100 eV
redata: Using Saved Data (generic)   =     F
redata: Use continuation files for DM    =     T
redata: Neglect nonoverlap interactions  =     F
redata: Method of Calculation            =     Diagonalization
redata: Divide and Conquer               =     T
redata: Electronic Temperature           =     0.0019  Ry
redata: Fix the spin of the system       =     F
redata: Dynamics option                  =     CG coord. optimization
redata: Variable cell                    =     F
redata: Use continuation files for CG    =     T
redata: Max atomic displ per move        =     0.0378  Bohr
redata: Maximum number of CG moves       =    50
redata: Force tolerance                  =     0.0008  Ry/Bohr
redata: ***********************************************************************

siesta: WARNING: XV file not found

siesta: Atomic coordinates (Bohr) and species
siesta:     -0.00017   2.11611   1.37174  1        1
siesta:      0.00010   6.16119   0.15912  1        2
siesta:      3.60770  -0.03789   2.38183  1        3
siesta:      3.60795   7.06713   2.48242  1        4
siesta:      3.60787   3.60787   5.10224  1        5
siesta:      3.60787  10.82360   5.10224  1        6
siesta:      1.45758   3.60787   6.88886  2        7
siesta:      5.75816   3.60787   6.88886  2        8
siesta:      1.45758  10.82360   6.88886  2        9
siesta:      5.75816  10.82360   6.88886  2       10

initatomlists: Number of atoms, orbitals, and projectors:     10    98   132
Total number of electrons:    28.000000
Total ionic charge:    28.000000

siesta: System type = slab      

siesta: k-grid: Number of k-points =     3
siesta: k-grid: Cutoff (effective) =     5.728 Ang
siesta: k-grid: Supercell and displacements
siesta: k-grid:    3   0   0      0.000
siesta: k-grid:    0   2   0      0.500
siesta: k-grid:    0   0   1      0.000
Naive supercell factors:     5    3    2

superc: Internal auxiliary supercell:     5 x     3 x     2  =      30
superc: Number of atoms, orbitals, and projectors:    300  2940  3960

* Maximum dynamic memory allocated =     1 MB

siesta:                 ==============================
                            Begin CG move =      0
                        ==============================

outcoor: Atomic coordinates (scaled):                       
   -0.00002372    0.29326368    0.19010387   1       1  Si
    0.00001337    0.85385554    0.02205212   1       2  Si
    0.49997747   -0.00525118    0.33008893   1       3  Si
    0.50001096    0.97940531    0.34402895   1       4  Si
    0.50000000    0.50000000    0.70710000   1       5  Si
    0.50000000    1.50000000    0.70710000   1       6  Si
    0.20200000    0.50000000    0.95470000   2       7  H
    0.79800000    0.50000000    0.95470000   2       8  H
    0.20200000    1.50000000    0.95470000   2       9  H
    0.79800000    1.50000000    0.95470000   2      10  H

superc: Internal auxiliary supercell:     5 x     3 x     2  =      30
superc: Number of atoms, orbitals, and projectors:    300  2940  3960

outcell: Unit cell vectors (Ang):
        3.818400    0.000000    0.000000
        0.000000    7.636800    0.000000
        0.000000    0.000000   11.455200

outcell: Cell vector modules (Ang)   :    3.818400    7.636800   11.455200
outcell: Cell angles (23,13,12) (deg):     90.0000     90.0000     90.0000
outcell: Cell volume (Ang**3)        :    334.0377

InitMesh: MESH =     8 x    16 x    24 =        3072
InitMesh: Mesh cutoff (required, used) =    10.000    12.132 Ry

* Maximum dynamic memory allocated =    10 MB

stepf: Fermi-Dirac step function

siesta: Program's energy decomposition (eV):
siesta: Eions   =      1221.235657
siesta: Ena     =       369.290948
siesta: Ekin    =       281.018022
siesta: Enl     =        93.471874
siesta: DEna    =         0.000002
siesta: DUscf   =         0.000000
siesta: DUext   =         0.000000
siesta: Exc     =      -224.373701
siesta: eta*DQ  =         0.000000
siesta: Emadel  =         0.000000
siesta: Emeta   =         0.000000
siesta: Emolmec =         0.000000
siesta: Ekinion =         0.000000
siesta: Eharris =      -705.216119
siesta: Etot    =      -701.828512
siesta: FreeEng =      -701.828512

siesta: iscf   Eharris(eV)      E_KS(eV)   FreeEng(eV)   dDmax  Ef(eV)
siesta:    1     -705.2161     -701.8285     -701.8285  1.7726 -4.5501
timer: Routine,Calls,Time,% = IterSCF        1       4.258  68.07
elaps: Routine,Calls,Wall,% = IterSCF        1       4.304  67.55
siesta:    2     -707.4474     -702.4162     -702.4162  0.3029 -4.3365
siesta:    3     -704.2661     -702.7592     -702.7831  0.1827 -4.4162
siesta:    4     -704.0305     -702.8822     -702.8822  0.0777 -4.3165
siesta:    5     -703.8701     -703.0437     -703.0437  0.0747 -4.2280
siesta:    6     -703.8066     -703.3380     -703.3380  0.0269 -4.1783
siesta:    7     -703.8033     -703.4408     -703.4408  0.0168 -4.1818
siesta:    8     -703.7938     -703.5792     -703.5792  0.0216 -4.2202
siesta:    9     -703.7926     -703.6125     -703.6125  0.0194 -4.2283
siesta:   10     -703.7932     -703.6784     -703.6784  0.0102 -4.2406
siesta:   11     -703.7930     -703.7014     -703.7014  0.0067 -4.2386
siesta:   12     -703.7924     -703.7158     -703.7158  0.0059 -4.2336
siesta:   13     -703.7923     -703.7269     -703.7269  0.0036 -4.2287
siesta:   14     -703.7923     -703.7373     -703.7373  0.0028 -4.2287
siesta:   15     -703.7922     -703.7536     -703.7536  0.0029 -4.2338
siesta:   16     -703.7922     -703.7604     -703.7604  0.0027 -4.2364
siesta:   17     -703.7921     -703.7725     -703.7725  0.0016 -4.2398
siesta:   18     -703.7921     -703.7771     -703.7771  0.0010 -4.2393
siesta:   19     -703.7921     -703.7812     -703.7812  0.0007 -4.2373
siesta:   20     -703.7921     -703.7826     -703.7826  0.0005 -4.2362
siesta:   21     -703.7921     -703.7840     -703.7840  0.0004 -4.2361
siesta:   22     -703.7921     -703.7854     -703.7854  0.0004 -4.2371
siesta:   23     -703.7921     -703.7865     -703.7865  0.0004 -4.2377
siesta:   24     -703.7921     -703.7884     -703.7884  0.0003 -4.2382
siesta:   25     -703.7921     -703.7893     -703.7893  0.0002 -4.2380
siesta:   26     -703.7921     -703.7902     -703.7902  0.0001 -4.2375
siesta:   27     -703.7921     -703.7906     -703.7906  0.0001 -4.2374

siesta: E_KS(eV) =             -703.7909

siesta: E_KS - E_eggbox =      -703.7909

siesta: Atomic forces (eV/Ang):
     1   -0.000503    0.009704   -0.006554
     2    0.000224   -0.034462    0.008041
     3   -0.000534   -0.014343    0.009302
     4    0.000235    0.002105    0.003974
     5   -0.000056    0.065605    0.369959
     6   -0.000033   -0.367260   -0.941249
     7    2.226521   -0.102743    0.974518
     8   -2.226503   -0.102777    0.974473
     9    2.315450    0.075727    0.677341
    10   -2.315431    0.075805    0.677317
----------------------------------------
   Tot   -0.000630   -0.392639    2.747123
----------------------------------------
   Max    2.315450
   Res    0.906465    sqrt( Sum f_i^2 / 3N )
----------------------------------------
   Max    0.034462    constrained

Stress-tensor-Voigt (kbar):      -63.37       -2.74       17.76        0.00        2.87        0.00
Target enthalpy (eV/cell)     -703.7909
 
mulliken: Atomic and Orbital Populations:

Species: Si                  
Atom  Qatom  Qorb
               3s      3s      3py     3pz     3px     3py     3pz     3px     
               3Pdxy   3Pdyz   3Pdz2   3Pdxz   3Pdx2-y2
   1  3.924   0.821   0.374   0.552   0.568   0.519   0.262   0.099   0.221
              0.166   0.079   0.049   0.105   0.109
   2  4.252   0.902   0.330   0.797   0.981   0.731   0.058   0.028   0.120
              0.057   0.044   0.035   0.072   0.095
   3  3.978   0.756   0.362   0.585   0.751   0.559   0.187   0.147   0.226
              0.106   0.090   0.049   0.050   0.110
   4  3.860   0.750   0.362   0.542   0.616   0.492   0.201   0.204   0.260
              0.067   0.092   0.058   0.110   0.107
   5  3.861   0.624   0.412   0.623   0.546   0.571   0.120   0.229   0.225
              0.044   0.076   0.038   0.228   0.125
   6  3.868   0.632   0.389   0.700   0.642   0.693   0.112   0.179   0.179
              0.036   0.080   0.029   0.109   0.088

Species: H                   
Atom  Qatom  Qorb
               1s      1s      1Ppy    1Ppz    1Ppx    
   7  1.076   0.540   0.418   0.012   0.016   0.090
   8  1.076   0.540   0.418   0.012   0.016   0.090
   9  1.053   0.489   0.447   0.013   0.015   0.089
  10  1.053   0.489   0.447   0.013   0.015   0.089

mulliken: Qtot =       28.000

cgvc: WARNING: CG file not found

* Maximum dynamic memory allocated =    11 MB

siesta:                 ==============================
                            Begin CG move =      1
                        ==============================

outcoor: Atomic coordinates (scaled):                       
   -0.00008758    0.29449554    0.18927190   1       1  Si
    0.00004175    0.84948092    0.02307279   1       2  Si
    0.49990969   -0.00707192    0.33126979   1       3  Si
    0.50004080    0.97967253    0.34453344   1       4  Si
    0.50000000    0.50000000    0.70710000   1       5  Si
    0.50000000    1.50000000    0.70710000   1       6  Si
    0.20200000    0.50000000    0.95470000   2       7  H
    0.79800000    0.50000000    0.95470000   2       8  H
    0.20200000    1.50000000    0.95470000   2       9  H
    0.79800000    1.50000000    0.95470000   2      10  H

superc: Internal auxiliary supercell:     5 x     3 x     2  =      30
superc: Number of atoms, orbitals, and projectors:    300  2940  3960

outcell: Unit cell vectors (Ang):
        3.818400    0.000000    0.000000
        0.000000    7.636800    0.000000
        0.000000    0.000000   11.455200

outcell: Cell vector modules (Ang)   :    3.818400    7.636800   11.455200
outcell: Cell angles (23,13,12) (deg):     90.0000     90.0000     90.0000
outcell: Cell volume (Ang**3)        :    334.0377

siesta: iscf   Eharris(eV)      E_KS(eV)   FreeEng(eV)   dDmax  Ef(eV)
siesta:    1     -703.7890     -703.8154     -703.8154  0.0159 -4.2236
siesta:    2     -703.8153     -703.7815     -703.7815  0.0721 -4.2638
siesta:    3     -703.7877     -703.8067     -703.8067  0.0047 -4.2321
siesta:    4     -703.7876     -703.7920     -703.7920  0.0043 -4.2284
siesta:    5     -703.7876     -703.7880     -703.7880  0.0010 -4.2347
siesta:    6     -703.7876     -703.7875     -703.7875  0.0008 -4.2339
siesta:    7     -703.7875     -703.7869     -703.7869  0.0003 -4.2227
siesta:    8     -703.7875     -703.7873     -703.7873  0.0002 -4.2231
siesta:    9     -703.7875     -703.7876     -703.7876  0.0001 -4.2233
siesta:   10     -703.7875     -703.7875     -703.7875  0.0001 -4.2233

siesta: E_KS(eV) =             -703.7875

siesta: Atomic forces (eV/Ang):
     1   -0.002228   -0.333351    0.131718
     2    0.001107    0.321719   -0.093035
     3   -0.001615    0.198857   -0.077673
     4    0.000424   -0.055834   -0.053064
     5   -0.000323    0.038885    0.381913
     6   -0.000120   -0.392740   -0.907426
     7    2.228740   -0.100477    0.976565
     8   -2.228628   -0.100586    0.976357
     9    2.315797    0.072292    0.676488
    10   -2.315738    0.072614    0.676384
----------------------------------------
   Tot   -0.002583   -0.278621    2.688228
----------------------------------------
   Max    2.315797
   Res    0.911585    sqrt( Sum f_i^2 / 3N )
----------------------------------------
   Max    0.333351    constrained

Stress-tensor-Voigt (kbar):      -62.55       -4.80       16.83        0.00        4.64        0.00
Target enthalpy (eV/cell)     -703.7875
 
mulliken: Atomic and Orbital Populations:

Species: Si                  
Atom  Qatom  Qorb
               3s      3s      3py     3pz     3px     3py     3pz     3px     
               3Pdxy   3Pdyz   3Pdz2   3Pdxz   3Pdx2-y2
   1  3.920   0.814   0.376   0.547   0.567   0.520   0.266   0.101   0.220
              0.167   0.081   0.049   0.105   0.109
   2  4.252   0.895   0.330   0.799   0.980   0.731   0.062   0.030   0.120
              0.058   0.045   0.035   0.072   0.095
   3  3.981   0.760   0.361   0.583   0.753   0.567   0.188   0.146   0.221
              0.105   0.090   0.049   0.049   0.108
   4  3.863   0.753   0.361   0.544   0.617   0.493   0.201   0.203   0.258
              0.067   0.092   0.058   0.109   0.106
   5  3.860   0.625   0.411   0.623   0.546   0.571   0.120   0.228   0.224
              0.044   0.076   0.038   0.228   0.126
   6  3.866   0.629   0.389   0.699   0.639   0.692   0.113   0.180   0.180
              0.036   0.080   0.030   0.109   0.088

Species: H                   
Atom  Qatom  Qorb
               1s      1s      1Ppy    1Ppz    1Ppx    
   7  1.076   0.541   0.418   0.012   0.016   0.090
   8  1.076   0.541   0.418   0.012   0.016   0.090
   9  1.053   0.489   0.447   0.012   0.015   0.089
  10  1.053   0.489   0.447   0.012   0.015   0.089

mulliken: Qtot =       28.000

* Maximum dynamic memory allocated =    11 MB

siesta:                 ==============================
                            Begin CG move =      2
                        ==============================

outcoor: Atomic coordinates (scaled):                       
   -0.00002877    0.29336106    0.19003810   1       1  Si
    0.00001561    0.85350971    0.02213281   1       2  Si
    0.49997211   -0.00539512    0.33018228   1       3  Si
    0.50001332    0.97942643    0.34406883   1       4  Si
    0.50000000    0.50000000    0.70710000   1       5  Si
    0.50000000    1.50000000    0.70710000   1       6  Si
    0.20200000    0.50000000    0.95470000   2       7  H
    0.79800000    0.50000000    0.95470000   2       8  H
    0.20200000    1.50000000    0.95470000   2       9  H
    0.79800000    1.50000000    0.95470000   2      10  H

superc: Internal auxiliary supercell:     5 x     3 x     2  =      30
superc: Number of atoms, orbitals, and projectors:    300  2940  3960

outcell: Unit cell vectors (Ang):
        3.818400    0.000000    0.000000
        0.000000    7.636800    0.000000
        0.000000    0.000000   11.455200

outcell: Cell vector modules (Ang)   :    3.818400    7.636800   11.455200
outcell: Cell angles (23,13,12) (deg):     90.0000     90.0000     90.0000
outcell: Cell volume (Ang**3)        :    334.0377

siesta: iscf   Eharris(eV)      E_KS(eV)   FreeEng(eV)   dDmax  Ef(eV)
siesta:    1     -703.7935     -703.7648     -703.7648  0.0148 -4.2429
siesta:    2     -703.8181     -703.7869     -703.7869  0.0793 -4.2142
siesta:    3     -703.7923     -703.7718     -703.7718  0.0044 -4.2376
siesta:    4     -703.7923     -703.7870     -703.7870  0.0025 -4.2326
siesta:    5     -703.7923     -703.7905     -703.7905  0.0009 -4.2363
siesta:    6     -703.7922     -703.7910     -703.7910  0.0006 -4.2369
siesta:    7     -703.7922     -703.7913     -703.7913  0.0002 -4.2381
siesta:    8     -703.7922     -703.7914     -703.7914  0.0002 -4.2379
siesta:    9     -703.7922     -703.7916     -703.7916  0.0001 -4.2374

siesta: E_KS(eV) =             -703.7917

siesta: Atomic forces (eV/Ang):
     1   -0.000670   -0.016871    0.003411
     2    0.000318   -0.020200    0.006427
     3   -0.000639   -0.005115    0.005231
     4    0.000270   -0.000738   -0.000553
     5   -0.000058    0.063260    0.372097
     6   -0.000023   -0.368672   -0.939404
     7    2.226644   -0.102575    0.974455
     8   -2.226617   -0.102617    0.974397
     9    2.315143    0.075300    0.677466
    10   -2.315124    0.075407    0.677435
----------------------------------------
   Tot   -0.000756   -0.402822    2.750963
----------------------------------------
   Max    2.315143
   Res    0.906392    sqrt( Sum f_i^2 / 3N )
----------------------------------------
   Max    0.020200    constrained

Stress-tensor-Voigt (kbar):      -63.30       -2.91       17.77        0.00        2.93        0.00
Target enthalpy (eV/cell)     -703.7917
 
mulliken: Atomic and Orbital Populations:

Species: Si                  
Atom  Qatom  Qorb
               3s      3s      3py     3pz     3px     3py     3pz     3px     
               3Pdxy   3Pdyz   3Pdz2   3Pdxz   3Pdx2-y2
   1  3.923   0.820   0.374   0.552   0.568   0.520   0.262   0.099   0.221
              0.166   0.079   0.049   0.105   0.109
   2  4.252   0.901   0.330   0.798   0.981   0.731   0.058   0.028   0.120
              0.057   0.044   0.035   0.072   0.095
   3  3.978   0.756   0.362   0.585   0.751   0.560   0.187   0.147   0.225
              0.106   0.090   0.049   0.050   0.110
   4  3.860   0.750   0.362   0.542   0.616   0.492   0.201   0.204   0.260
              0.067   0.092   0.058   0.109   0.107
   5  3.861   0.624   0.412   0.623   0.546   0.571   0.120   0.229   0.225
              0.044   0.076   0.038   0.228   0.125
   6  3.868   0.632   0.389   0.700   0.642   0.693   0.112   0.179   0.179
              0.036   0.080   0.029   0.109   0.088

Species: H                   
Atom  Qatom  Qorb
               1s      1s      1Ppy    1Ppz    1Ppx    
   7  1.076   0.540   0.418   0.012   0.016   0.090
   8  1.076   0.540   0.418   0.012   0.016   0.090
   9  1.053   0.489   0.447   0.013   0.015   0.089
  10  1.053   0.489   0.447   0.013   0.015   0.089

mulliken: Qtot =       28.000

cgvc: Finished line minimization    1.  Mean atomic displacement =    0.0009

* Maximum dynamic memory allocated =    11 MB

siesta:                 ==============================
                            Begin CG move =      3
                        ==============================

outcoor: Atomic coordinates (scaled):                       
   -0.00003848    0.29313836    0.19007867   1       1  Si
    0.00002020    0.85319830    0.02222905   1       2  Si
    0.49996281   -0.00547942    0.33026329   1       3  Si
    0.50001726    0.97941832    0.34406508   1       4  Si
    0.50000000    0.50000000    0.70710000   1       5  Si
    0.50000000    1.50000000    0.70710000   1       6  Si
    0.20200000    0.50000000    0.95470000   2       7  H
    0.79800000    0.50000000    0.95470000   2       8  H
    0.20200000    1.50000000    0.95470000   2       9  H
    0.79800000    1.50000000    0.95470000   2      10  H

superc: Internal auxiliary supercell:     5 x     3 x     2  =      30
superc: Number of atoms, orbitals, and projectors:    300  2940  3960

outcell: Unit cell vectors (Ang):
        3.818400    0.000000    0.000000
        0.000000    7.636800    0.000000
        0.000000    0.000000   11.455200

outcell: Cell vector modules (Ang)   :    3.818400    7.636800   11.455200
outcell: Cell angles (23,13,12) (deg):     90.0000     90.0000     90.0000
outcell: Cell volume (Ang**3)        :    334.0377

siesta: iscf   Eharris(eV)      E_KS(eV)   FreeEng(eV)   dDmax  Ef(eV)
siesta:    1     -703.7922     -703.7932     -703.7932  0.0006 -4.2375
siesta:    2     -703.7922     -703.7922     -703.7922  0.0006 -4.2377
siesta:    3     -703.7922     -703.7926     -703.7926  0.0002 -4.2374
siesta:    4     -703.7922     -703.7922     -703.7922  0.0001 -4.2372

siesta: E_KS(eV) =             -703.7922

siesta: Atomic forces (eV/Ang):
     1   -0.000860   -0.015887    0.006042
     2    0.000371   -0.014503    0.007946
     3   -0.000799   -0.006052    0.002087
     4    0.000330   -0.005169   -0.002078
     5   -0.000115    0.062954    0.371489
     6   -0.000057   -0.371194   -0.937365
     7    2.226786   -0.102586    0.974591
     8   -2.226741   -0.102641    0.974507
     9    2.315374    0.075207    0.677290
    10   -2.315349    0.075340    0.677253
----------------------------------------
   Tot   -0.001060   -0.404534    2.751762
----------------------------------------
   Max    2.315374
   Res    0.906404    sqrt( Sum f_i^2 / 3N )
----------------------------------------
   Max    0.015887    constrained

Stress-tensor-Voigt (kbar):      -63.32       -2.95       17.78        0.00        2.97        0.00
Target enthalpy (eV/cell)     -703.7922
 
mulliken: Atomic and Orbital Populations:

Species: Si                  
Atom  Qatom  Qorb
               3s      3s      3py     3pz     3px     3py     3pz     3px     
               3Pdxy   3Pdyz   3Pdz2   3Pdxz   3Pdx2-y2
   1  3.923   0.820   0.374   0.551   0.568   0.519   0.262   0.099   0.221
              0.166   0.079   0.049   0.105   0.109
   2  4.252   0.901   0.330   0.798   0.981   0.731   0.058   0.028   0.120
              0.057   0.044   0.035   0.072   0.095
   3  3.978   0.756   0.363   0.585   0.751   0.560   0.187   0.147   0.225
              0.106   0.090   0.049   0.050   0.110
   4  3.861   0.750   0.362   0.542   0.616   0.492   0.201   0.203   0.260
              0.067   0.092   0.058   0.109   0.107
   5  3.861   0.624   0.412   0.623   0.546   0.571   0.120   0.229   0.225
              0.044   0.076   0.038   0.228   0.125
   6  3.868   0.632   0.389   0.700   0.642   0.693   0.112   0.179   0.179
              0.036   0.080   0.029   0.109   0.088

Species: H                   
Atom  Qatom  Qorb
               1s      1s      1Ppy    1Ppz    1Ppx    
   7  1.076   0.540   0.418   0.012   0.016   0.090
   8  1.076   0.540   0.418   0.012   0.016   0.090
   9  1.053   0.489   0.447   0.013   0.015   0.089
  10  1.053   0.489   0.447   0.013   0.015   0.089

mulliken: Qtot =       28.000

* Maximum dynamic memory allocated =    11 MB

outcoor: Relaxed atomic coordinates (scaled):               
   -0.00003848    0.29313836    0.19007867   1       1  Si
    0.00002020    0.85319830    0.02222905   1       2  Si
    0.49996281   -0.00547942    0.33026329   1       3  Si
    0.50001726    0.97941832    0.34406508   1       4  Si
    0.50000000    0.50000000    0.70710000   1       5  Si
    0.50000000    1.50000000    0.70710000   1       6  Si
    0.20200000    0.50000000    0.95470000   2       7  H
    0.79800000    0.50000000    0.95470000   2       8  H
    0.20200000    1.50000000    0.95470000   2       9  H
    0.79800000    1.50000000    0.95470000   2      10  H

coxmol: Writing XMOL coordinates into file si2x1h.xyz                                                      

siesta: Program's energy decomposition (eV):
siesta: Eions   =      1221.235657
siesta: Ena     =       369.282274
siesta: Ekin    =       305.204213
siesta: Enl     =        70.738413
siesta: DEna    =         0.682651
siesta: DUscf   =         2.237390
siesta: DUext   =         0.000000
siesta: Exc     =      -230.701489
siesta: eta*DQ  =         0.000000
siesta: Emadel  =         0.000000
siesta: Emeta   =         0.000000
siesta: Emolmec =         0.000000
siesta: Ekinion =         0.000000
siesta: Eharris =      -703.792193
siesta: Etot    =      -703.792205
siesta: FreeEng =      -703.792205

siesta: Final energy (eV):
siesta:       Kinetic =     305.204213
siesta:       Hartree =     896.174803
siesta:    Ext. field =       0.000000
siesta:   Exch.-corr. =    -230.701489
siesta:  Ion-electron =   -2065.062238
siesta:       Ion-ion =     390.592506
siesta:       Ekinion =       0.000000
siesta:         Total =    -703.792205

siesta: Atomic forces (eV/Ang):
siesta:      1   -0.000860   -0.015887    0.006042
siesta:      2    0.000371   -0.014503    0.007946
siesta:      3   -0.000799   -0.006052    0.002087
siesta:      4    0.000330   -0.005169   -0.002078
siesta:      5   -0.000115    0.062954    0.371489
siesta:      6   -0.000057   -0.371194   -0.937365
siesta:      7    2.226786   -0.102586    0.974591
siesta:      8   -2.226741   -0.102641    0.974507
siesta:      9    2.315374    0.075207    0.677290
siesta:     10   -2.315349    0.075340    0.677253
siesta: ----------------------------------------
siesta:    Tot   -0.001060   -0.404534    2.751762

siesta: Stress tensor (static) (eV/Ang**3):
siesta:    -0.039521    0.000001    0.000001
siesta:     0.000001   -0.001841    0.001857
siesta:     0.000001    0.001857    0.011098

siesta: Cell volume =        334.037723 Ang**3

siesta: Pressure (static):
siesta:                Solid            Molecule  Units
siesta:           0.00010987          0.00018173  Ry/Bohr**3
siesta:           0.01008834          0.01668584  eV/Ang**3
siesta:          16.16347573         26.73394433  kBar

siesta: Electric dipole (a.u.)  =    0.000000    0.000000   -0.020447
siesta: Electric dipole (Debye) =    0.000000    0.000000   -0.051971

* Maximum dynamic memory allocated : Node    0 =    11 MB

* Maximum memory occured during ranger                        

timer: CPU execution times:
timer:  Routine       Calls   Time/call    Tot.time        %
timer:  siesta            1      34.279      34.279   100.00
timer:  Setup             1       0.558       0.558     1.63
timer:  bands             1       0.001       0.001     0.00
timer:  writewave         1       0.001       0.001     0.00
timer:  KSV_init          1       0.000       0.000     0.00
timer:  IterMD            4       8.410      33.640    98.14
timer:  hsparse           5       0.279       1.397     4.07
timer:  overfsm           8       0.183       1.467     4.28
timer:  IterSCF          54       0.564      30.468    88.88
timer:  kinefsm           8       0.178       1.421     4.14
timer:  nlefsm            8       1.384      11.069    32.29
timer:  DHSCF            55       0.155       8.516    24.84
timer:  DHSCF1            1       0.015       0.015     0.04
timer:  DHSCF2            4       0.091       0.365     1.06
timer:  REORD           456       0.000       0.006     0.02
timer:  POISON           59       0.001       0.060     0.18
timer:  DHSCF3           55       0.138       7.573    22.09
timer:  rhoofd           55       0.062       3.415     9.96
timer:  cellXC           55       0.002       0.097     0.28
timer:  vmat             54       0.073       3.960    11.55
timer:  diagon           50       0.149       7.445    21.72
timer:  cdiag           300       0.012       3.721    10.86
timer:  cdiag1          300       0.001       0.252     0.74
timer:  cdiag2          300       0.003       0.827     2.41
timer:  cdiag3          300       0.008       2.547     7.43
timer:  cdiag4          300       0.000       0.061     0.18
timer:  MolMec            8       0.000       0.001     0.00
timer:  DHSCF4            4       0.140       0.560     1.63
timer:  dfscf             4       0.131       0.526     1.53
timer:  optical           1       0.000       0.000     0.00
  

elaps: ELAPSED times:
elaps:  Routine       Calls   Time/call    Tot.time        %
elaps:  siesta            1      36.527      36.527   100.00
elaps:  Setup             1       0.626       0.626     1.71
elaps:  bands             1       0.000       0.000     0.00
elaps:  writewave         1       0.001       0.001     0.00
elaps:  KSV_init          1       0.000       0.000     0.00
elaps:  IterMD            4       8.952      35.810    98.04
elaps:  hsparse           5       0.279       1.397     3.82
elaps:  overfsm           8       0.183       1.466     4.01
elaps:  IterSCF          54       0.604      32.610    89.28
elaps:  kinefsm           8       0.178       1.420     3.89
elaps:  nlefsm            8       1.384      11.068    30.30
elaps:  DHSCF            55       0.155       8.527    23.34
elaps:  DHSCF1            1       0.015       0.015     0.04
elaps:  DHSCF2            4       0.091       0.365     1.00
elaps:  REORD           456       0.000       0.009     0.02
elaps:  POISON           59       0.001       0.059     0.16
elaps:  DHSCF3           55       0.138       7.575    20.74
elaps:  rhoofd           55       0.062       3.411     9.34
elaps:  cellXC           55       0.002       0.101     0.28
elaps:  vmat             54       0.073       3.961    10.85
elaps:  diagon           50       0.149       7.451    20.40
elaps:  cdiag           300       0.012       3.718    10.18
elaps:  cdiag1          300       0.001       0.251     0.69
elaps:  cdiag2          300       0.003       0.812     2.22
elaps:  cdiag3          300       0.009       2.565     7.02
elaps:  cdiag4          300       0.000       0.053     0.14
elaps:  MolMec            8       0.000       0.000     0.00
elaps:  DHSCF4            4       0.139       0.558     1.53
elaps:  dfscf             4       0.131       0.526     1.44
elaps:  optical           1       0.000       0.000     0.00
  
>> End of run:  17-DEC-2006  19:39:20
