Siesta Version  : siesta-4.0--578
Architecture    : x86_64-linux-n-62-25-35
Compiler version: GNU Fortran (GCC) 7.3.0
Compiler flags  : mpif90 -m64 -fPIC -O3 -march=native -ftree-vectorize -fexpensive-optimizationns -funroll-loops -fprefetch-loop-arrays -fno-second-underscore
PP flags        : -I/zdata/groups/common/nicpa/2018-feb/generic/build-tools/1.0/include -I/zdatta/groups/common/nicpa/2018-feb/generic/gcc/7.3.0/include -I/zdata/groups/common/nicpa/2018-feb/generic/gcc/7.3.0/include -I/zdata/groups/common/nicpa/2018-feb/XeonE5-2660v3/zlib/1.2.11/gnu-7.3.0/include -I/zdata/groups/common/nicpa/2018-feb/generic/numactl/2.0.11/include -I/zdata/groups/common/nicpa/2018-feb/XeonE5-2660v3/libxml2/2.9.7/gnu-7.3.0/include -I/zdata/groups/common/nicpa/2018-feb/XeonE5-2660v3/hwloc/1.11.9/gnu-7.3.0/include -I/zdata/groups/common/nicpa/2018-feb/XeonE5-2660v3/openmpi/3.0.0/gnu-7.3.0/include -I/zdata/groups/common/nicpa/2018-feb/XeonE5-2660v3/szip/2.1.1/gnu-7.3.0/include -I/zdata/groups/common/nicpa/2018-feb/XeonE5-2660v3/hdf5-serial/1.8.18/gnu-7.3.0/include -I/zdata/groups/common/nicpa/2018-feb/XeonE5-2660v3/netcdf-serial/4.6.0/gnu-7.3.0/include -I/zdata/groups/common/nicpa/2018-feb/XeonE5-2660v3/scalapack/204/gnu-7.3.0/include -I/zdata/groups/common/nicpa/2018-feb/XeonE5-2660v3/openblas/0.2.20/gnu-7.3.0/include -I/zdata/groups/common/nicpa/2018-feb/XeonE5-2660v3/elpa/2017.05.003/gnu-7.3.0/include -DSIESTA__ELPA -DMPI -D1 -DFC_HAVE_ABORT -DCDF -DSIESTA__MRRR 
PARALLEL version
NetCDF support

* Running on    8 nodes in parallel
>> Start of run:  10-JUN-2018  22:02:42

                           ***********************       
                           *  WELCOME TO SIESTA  *       
                           ***********************       

reinit: Reading from standard input
************************** Dump of input data file ****************************
# Si(100) - asymmetric 2x1 reconstruction by quenched MD
# Oscar Paz
SystemName              Si(100)-2x1 3 layers (H-saturated) Quenched Verlet
SystemLabel             si2x1h-quench
NumberOfAtoms           10
NumberOfSpecies 2
%block ChemicalSpeciesLabel
        1       14      Si
        2       1       H
%endblock ChemicalSpeciesLabel
PAO.BasisType           split
PAO.BasisSize           DZP
PAO.EnergyShift 200 meV
PAO.SplitNorm           0.30
LatticeConstant 3.8184 Ang      # a_s = a_0 / sqrt(2) , a_0 = 5.40 Ang
%block LatticeParameters
        1.      2.      3.      90.     90.     90.
%endblock LatticeParameters
AtomicCoordinatesFormat ScaledCartesian
%block AtomicCoordinatesAndAtomicSpecies
   -0.00002372    0.29326368    0.19010387   1  Si        1
    0.00001337    0.85385554    0.02205212   1  Si        2
    0.49997747   -0.00525118    0.33008893   1  Si        3
    0.50001096    0.97940531    0.34402895   1  Si        4
    0.50000000    0.50000000    0.70710000   1  Si        5
    0.50000000    1.50000000    0.70710000   1  Si        6
    0.20200000    0.50000000    0.95470000   2  H         7
    0.79800000    0.50000000    0.95470000   2  H         8
    0.20200000    1.50000000    0.95470000   2  H         9
    0.79800000    1.50000000    0.95470000   2  H        10
%endblock AtomicCoordinatesAndAtomicSpecies
%block GeometryConstraints
        position from 5 to 10
%endblock GeometryConstraints
kgrid_cutoff            5.0 Ang
XC.functional           LDA
XC.authors              PZ
MeshCutoff              100. Ry
DM.MixingWeight 0.1
DM.NumberPulay  3
SolutionMethod  diagon
MD.TypeOfRun            Verlet
MD.Quench               T
MD.Initial.Time.Step      1
MD.Final.Time.Step        50
MD.Length.Time.Step       1.0 fs
MD.InitialTemperature    100 K
MD.MaxForceTol  0.06 eV/Ang
WriteCoorStep           .true.
WriteForces             .true.
WriteCoorXmol           .true.
WriteMDXmol             .true.
WriteMDhistory          .true.
************************** End of input data file *****************************

reinit: -----------------------------------------------------------------------
reinit: System Name: Si(100)-2x1 3 layers (H-saturated) Quenched Verlet
reinit: -----------------------------------------------------------------------
reinit: System Label: si2x1h-quench                                               
reinit: -----------------------------------------------------------------------

initatom: Reading input for the pseudopotentials and atomic orbitals ----------
 Species number:            1  Label: Si Atomic number:          14
 Species number:            2  Label: H Atomic number:           1
Ground state valence configuration:   3s02  3p02
Reading pseudopotential information in formatted form from Si.psf

Valence configuration for pseudopotential generation:
3s( 2.00) rc: 1.89
3p( 2.00) rc: 1.89
3d( 0.00) rc: 1.89
4f( 0.00) rc: 1.89
Ground state valence configuration:   1s01
Reading pseudopotential information in formatted form from H.psf

Valence configuration for pseudopotential generation:
1s( 1.00) rc: 1.25
2p( 0.00) rc: 1.25
3d( 0.00) rc: 1.25
4f( 0.00) rc: 1.25
For Si, standard SIESTA heuristics set lmxkb to 3
 (one more than the basis l, including polarization orbitals).
Use PS.lmax or PS.KBprojectors blocks to override.
For H, standard SIESTA heuristics set lmxkb to 2
 (one more than the basis l, including polarization orbitals).
Use PS.lmax or PS.KBprojectors blocks to override.

<basis_specs>
===============================================================================
Si                   Z=  14    Mass=  28.090        Charge= 0.17977+309
Lmxo=1 Lmxkb= 3    BasisType=split      Semic=F
L=0  Nsemic=0  Cnfigmx=3
          n=1  nzeta=2  polorb=0
            splnorm:   0.30000    
               vcte:    0.0000    
               rinn:    0.0000    
               qcoe:    0.0000    
               qyuk:    0.0000    
               qwid:   0.10000E-01
                rcs:    0.0000      0.0000    
            lambdas:    1.0000      1.0000    
L=1  Nsemic=0  Cnfigmx=3
          n=1  nzeta=2  polorb=1
            splnorm:   0.30000    
               vcte:    0.0000    
               rinn:    0.0000    
               qcoe:    0.0000    
               qyuk:    0.0000    
               qwid:   0.10000E-01
                rcs:    0.0000      0.0000    
            lambdas:    1.0000      1.0000    
-------------------------------------------------------------------------------
L=0  Nkbl=1  erefs: 0.17977+309
L=1  Nkbl=1  erefs: 0.17977+309
L=2  Nkbl=1  erefs: 0.17977+309
L=3  Nkbl=1  erefs: 0.17977+309
===============================================================================
</basis_specs>

atom: Called for Si                    (Z =  14)

read_vps: Pseudopotential generation method:
read_vps: ATM3      Troullier-Martins                       
Total valence charge:    4.00000

xc_check: Exchange-correlation functional:
xc_check: Ceperley-Alder
V l=0 = -2*Zval/r beyond r=  2.5494
V l=1 = -2*Zval/r beyond r=  2.5494
V l=2 = -2*Zval/r beyond r=  2.5494
V l=3 = -2*Zval/r beyond r=  2.5494
All V_l potentials equal beyond r=  1.8652
This should be close to max(r_c) in ps generation
All pots = -2*Zval/r beyond r=  2.5494
Using large-core scheme for Vlocal

atom: Estimated core radius    2.54944

atom: Including non-local core corrections could be a good idea
atom: Maximum radius for 4*pi*r*r*local-pseudopot. charge    2.85303
atom: Maximum radius for r*vlocal+2*Zval:    2.58151
GHOST: No ghost state for L =  0
GHOST: No ghost state for L =  1
GHOST: No ghost state for L =  2
GHOST: No ghost state for L =  3

KBgen: Kleinman-Bylander projectors: 
   l= 0   rc=  1.936440   el= -0.796617   Ekb=  4.661340   kbcos=  0.299756
   l= 1   rc=  1.936440   el= -0.307040   Ekb=  1.494238   kbcos=  0.301471
   l= 2   rc=  1.936440   el=  0.002313   Ekb= -2.808672   kbcos= -0.054903
   l= 3   rc=  1.936440   el=  0.003402   Ekb= -0.959059   kbcos= -0.005513

KBgen: Total number of  Kleinman-Bylander projectors:   16
atom: -------------------------------------------------------------------------

atom: SANKEY-TYPE ORBITALS:
atom: Selected multiple-zeta basis: split     

SPLIT: Orbitals with angular momentum L= 0

SPLIT: Basis orbitals for state 3s

SPLIT: PAO cut-off radius determined from an
SPLIT: energy shift=  0.014700 Ry

   izeta = 1
                 lambda =    1.000000
                     rc =    5.264094
                 energy =   -0.784048
                kinetic =    0.554443
    potential(screened) =   -1.338491
       potential(ionic) =   -3.803943

   izeta = 2
                 rmatch =    3.899691
              splitnorm =    0.300000
                 energy =   -0.557333
                kinetic =    1.099884
    potential(screened) =   -1.657217
       potential(ionic) =   -4.272900

SPLIT: Orbitals with angular momentum L= 1

SPLIT: Basis orbitals for state 3p

SPLIT: PAO cut-off radius determined from an
SPLIT: energy shift=  0.014700 Ry

   izeta = 1
                 lambda =    1.000000
                     rc =    6.429618
                 energy =   -0.291747
                kinetic =    0.864936
    potential(screened) =   -1.156682
       potential(ionic) =   -3.408656

   izeta = 2
                 rmatch =    4.309843
              splitnorm =    0.300000
                 energy =   -0.094863
                kinetic =    1.512251
    potential(screened) =   -1.607114
       potential(ionic) =   -4.136814

POLgen: Perturbative polarization orbital with L=  2

POLgen: Polarization orbital for state 3p

   izeta = 1
                     rc =    6.429618
                 energy =    0.416453
                kinetic =    1.265989
    potential(screened) =   -0.849535
       potential(ionic) =   -2.900468
atom: Total number of Sankey-type orbitals: 13

atm_pop: Valence configuration (for local Pseudopot. screening):
 3s( 2.00)                                                            
 3p( 2.00)                                                            
Vna: chval, zval:    4.00000   4.00000

Vna:  Cut-off radius for the neutral-atom potential:   6.429618

atom: _________________________________________________________________________

<basis_specs>
===============================================================================
H                    Z=   1    Mass=  1.0100        Charge= 0.17977+309
Lmxo=0 Lmxkb= 2    BasisType=split      Semic=F
L=0  Nsemic=0  Cnfigmx=1
          n=1  nzeta=2  polorb=1
            splnorm:   0.30000    
               vcte:    0.0000    
               rinn:    0.0000    
               qcoe:    0.0000    
               qyuk:    0.0000    
               qwid:   0.10000E-01
                rcs:    0.0000      0.0000    
            lambdas:    1.0000      1.0000    
-------------------------------------------------------------------------------
L=0  Nkbl=1  erefs: 0.17977+309
L=1  Nkbl=1  erefs: 0.17977+309
L=2  Nkbl=1  erefs: 0.17977+309
===============================================================================
</basis_specs>

atom: Called for H                     (Z =   1)

read_vps: Pseudopotential generation method:
read_vps: ATM3      Troullier-Martins                       
Total valence charge:    1.00000

xc_check: Exchange-correlation functional:
xc_check: Ceperley-Alder
V l=0 = -2*Zval/r beyond r=  1.2343
V l=1 = -2*Zval/r beyond r=  1.2189
V l=2 = -2*Zval/r beyond r=  1.2189
All V_l potentials equal beyond r=  1.2343
This should be close to max(r_c) in ps generation
All pots = -2*Zval/r beyond r=  1.2343

VLOCAL1: 99.0% of the norm of Vloc inside     28.493 Ry
VLOCAL1: 99.9% of the norm of Vloc inside     64.935 Ry
atom: Maximum radius for 4*pi*r*r*local-pseudopot. charge    1.45251
atom: Maximum radius for r*vlocal+2*Zval:    1.21892
GHOST: No ghost state for L =  0
GHOST: No ghost state for L =  1
GHOST: No ghost state for L =  2

KBgen: Kleinman-Bylander projectors: 
   l= 0   rc=  1.364359   el= -0.467325   Ekb= -2.005361   kbcos= -0.336422
   l= 1   rc=  1.434438   el=  0.001430   Ekb= -0.501708   kbcos= -0.021697
   l= 2   rc=  1.470814   el=  0.002365   Ekb= -0.190555   kbcos= -0.002281

KBgen: Total number of  Kleinman-Bylander projectors:    9
atom: -------------------------------------------------------------------------

atom: SANKEY-TYPE ORBITALS:
atom: Selected multiple-zeta basis: split     

SPLIT: Orbitals with angular momentum L= 0

SPLIT: Basis orbitals for state 1s

SPLIT: PAO cut-off radius determined from an
SPLIT: energy shift=  0.014700 Ry

   izeta = 1
                 lambda =    1.000000
                     rc =    5.075940
                 energy =   -0.454238
                kinetic =    0.905976
    potential(screened) =   -1.360214
       potential(ionic) =   -1.894198

   izeta = 2
                 rmatch =    3.195439
              splitnorm =    0.300000
                 energy =   -0.202816
                kinetic =    1.888421
    potential(screened) =   -2.091238
       potential(ionic) =   -2.676134

POLgen: Perturbative polarization orbital with L=  1

POLgen: Polarization orbital for state 1s

   izeta = 1
                     rc =    5.075940
                 energy =    0.658058
                kinetic =    1.324347
    potential(screened) =   -0.666290
       potential(ionic) =   -1.141575
atom: Total number of Sankey-type orbitals:  5

atm_pop: Valence configuration (for local Pseudopot. screening):
 1s( 1.00)                                                            
Vna: chval, zval:    1.00000   1.00000

Vna:  Cut-off radius for the neutral-atom potential:   5.075940

atom: _________________________________________________________________________

prinput: Basis input ----------------------------------------------------------

PAO.BasisType split     

%block ChemicalSpeciesLabel
    1   14 Si                      # Species index, atomic number, species label
    2    1 H                       # Species index, atomic number, species label
%endblock ChemicalSpeciesLabel

%block PAO.Basis                 # Define Basis set
Si                    2                    # Species label, number of l-shells
 n=3   0   2                         # n, l, Nzeta 
   5.264      3.900   
   1.000      1.000   
 n=3   1   2 P   1                   # n, l, Nzeta, Polarization, NzetaPol
   6.430      4.310   
   1.000      1.000   
H                     1                    # Species label, number of l-shells
 n=1   0   2 P   1                   # n, l, Nzeta, Polarization, NzetaPol
   5.076      3.195   
   1.000      1.000   
%endblock PAO.Basis

prinput: ----------------------------------------------------------------------

Dumping basis to NetCDF file Si.ion.nc
Dumping basis to NetCDF file H.ion.nc
coor:   Atomic-coordinates input format  =     Cartesian coordinates
coor:                                          (in units of alat)

siesta: Atomic coordinates (Bohr) and species
siesta:     -0.00017   2.11611   1.37174  1        1
siesta:      0.00010   6.16119   0.15912  1        2
siesta:      3.60770  -0.03789   2.38183  1        3
siesta:      3.60795   7.06713   2.48242  1        4
siesta:      3.60787   3.60787   5.10224  1        5
siesta:      3.60787  10.82360   5.10224  1        6
siesta:      1.45758   3.60787   6.88886  2        7
siesta:      5.75816   3.60787   6.88886  2        8
siesta:      1.45758  10.82360   6.88886  2        9
siesta:      5.75816  10.82360   6.88886  2       10

siesta: System type = slab      

initatomlists: Number of atoms, orbitals, and projectors:     10    98   132

coxmol: Writing XMOL coordinates into file si2x1h-quench.xyz                                               

siesta: ******************** Simulation parameters ****************************
siesta:
siesta: The following are some of the parameters of the simulation.
siesta: A complete list of the parameters used, including default values,
siesta: can be found in file out.fdf
siesta:
redata: Non-Collinear-spin run           =     F
redata: SpinPolarized (Up/Down) run      =     F
redata: Number of spin components        =     1
redata: Long output                      =     F
redata: Number of Atomic Species         =        2
redata: Charge density info will appear in .RHO file
redata: Write Mulliken Pop.              =     NO
redata: Matel table size (NRTAB)         =     1024
redata: Mesh Cutoff                      =   100.0000 Ry
redata: Net charge of the system         =     0.0000 |e|
redata: Min. number of SCF Iter          =        0
redata: Max. number of SCF Iter          =       50
redata: Mix DM or H after convergence    =     F
redata: Recompute H after scf cycle      =     F
redata: Performing Pulay mixing using    =     3 iterations
redata: Mix DM in first SCF step ?       =     F
redata: Write Pulay info on disk?        =     F
redata: Discard 1st Pulay DM after  kick =     F
redata: New DM Mixing Weight             =     0.1000
redata: New DM Occupancy tolerance       = 0.000000000001
redata: No kicks to SCF
redata: DM Mixing Weight for Kicks       =     0.5000
redata: DM Tolerance for SCF             =     0.000100
redata: Require (free) Energy convergence in SCF =     F
redata: DM (free)Energy tolerance for SCF =     0.000010 eV
redata: Require Harris convergence for SCF =     F
redata: DM Harris energy tolerance for SCF =     0.000010 eV
redata: Using Saved Data (generic)   =     F
redata: Use continuation files for DM    =     F
redata: Neglect nonoverlap interactions  =     F
redata: Method of Calculation            =     Diagonalization
redata: Divide and Conquer               =     T
redata: Electronic Temperature           =     0.0019  Ry
redata: Fix the spin of the system       =     F
redata: Dynamics option                  =     Verlet MD run
redata: Initial MD time step             =        1
redata:   Final MD time step             =       50
redata: Length of MD time step           =     1.0000  fs
redata: Initial Temperature of MD run    =   100.0000  K
redata: Perform a MD quench              =     T
redata: ***********************************************************************
Total number of electrons:    28.000000
Total ionic charge:    28.000000

* ProcessorY, Blocksize:    2  13


* Orbital distribution balance (max,min):    13     7

 Kpoints in:            3 . Kpoints trimmed:            3

siesta: k-grid: Number of k-points =     3
siesta: k-grid: Cutoff (effective) =     5.728 Ang
siesta: k-grid: Supercell and displacements
siesta: k-grid:    3   0   0      0.000
siesta: k-grid:    0   2   0      0.500
siesta: k-grid:    0   0   1      0.000
Naive supercell factors:     5    3    2

superc: Internal auxiliary supercell:     5 x     3 x     2  =      30
superc: Number of atoms, orbitals, and projectors:    300   2940   3960

                     ====================================
                        Begin MD quenched step =      1
                     ====================================

outcoor: Atomic coordinates (scaled):                       
   -0.00002372    0.29326368    0.19010387   1       1  Si
    0.00001337    0.85385554    0.02205212   1       2  Si
    0.49997747   -0.00525118    0.33008893   1       3  Si
    0.50001096    0.97940531    0.34402895   1       4  Si
    0.50000000    0.50000000    0.70710000   1       5  Si
    0.50000000    1.50000000    0.70710000   1       6  Si
    0.20200000    0.50000000    0.95470000   2       7  H
    0.79800000    0.50000000    0.95470000   2       8  H
    0.20200000    1.50000000    0.95470000   2       9  H
    0.79800000    1.50000000    0.95470000   2      10  H

superc: Internal auxiliary supercell:     5 x     3 x     2  =      30
superc: Number of atoms, orbitals, and projectors:    300   2940   3960

outcell: Unit cell vectors (Ang):
        3.818400    0.000000    0.000000
        0.000000    7.636800    0.000000
        0.000000    0.000000   11.455200

outcell: Cell vector modules (Ang)   :    3.818400    7.636800   11.455200
outcell: Cell angles (23,13,12) (deg):     90.0000     90.0000     90.0000
outcell: Cell volume (Ang**3)        :    334.0377
New_DM. Step:     1
Initializing Density Matrix...
New grid distribution:   1
           1       1:   12    1:   12    1:    9
           2       1:   12    1:   12   10:   18
           3       1:   12    1:   12   19:   27
           4       1:   12    1:   12   28:   36
           5       1:   12   13:   24    1:    9
           6       1:   12   13:   24   10:   18
           7       1:   12   13:   24   19:   27
           8       1:   12   13:   24   28:   36

InitMesh: MESH =    24 x    48 x    72 =       82944
InitMesh: (bp) =    12 x    24 x    36 =       10368
InitMesh: Mesh cutoff (required, used) =   100.000   109.185 Ry
ExtMesh (bp) on 0 =    56 x    56 x    53 =      166208
New grid distribution:   2
           1       1:   12   11:   24    8:   11
           2       1:   12   11:   24    5:    7
           3       1:   12    1:   10   12:   36
           4       1:   12    1:   10    8:   11
           5       1:   12   11:   24    1:    4
           6       1:   12    1:   10    1:    4
           7       1:   12   11:   24   12:   36
           8       1:   12    1:   10    5:    7
New grid distribution:   3
           1       1:   12   13:   24    1:    7
           2       1:   12    1:   12    8:   14
           3       1:   12    1:   12   15:   29
           4       1:   12    1:   12   30:   36
           5       1:   12    1:   12    1:    7
           6       1:   12   13:   24    8:   14
           7       1:   12   13:   24   15:   29
           8       1:   12   13:   24   30:   36
Setting up quadratic distribution...
ExtMesh (bp) on 0 =    56 x    58 x    48 =      155904
PhiOnMesh: Number of (b)points on node 0 =                  672
PhiOnMesh: nlist on node 0 =                47284

stepf: Fermi-Dirac step function

siesta: Program's energy decomposition (eV):
siesta: Ebs     =      -285.514208
siesta: Eions   =      1221.235657
siesta: Ena     =       369.291243
siesta: Ekin    =       281.018022
siesta: Enl     =        93.471978
siesta: DEna    =         0.000002
siesta: DUscf   =         0.000000
siesta: DUext   =         0.000000
siesta: Exc     =      -224.568507
siesta: eta*DQ  =         0.000000
siesta: Emadel  =         0.000000
siesta: Emeta   =         0.000000
siesta: Emolmec =         0.000000
siesta: Ekinion =         0.000000
siesta: Eharris =      -705.179960
siesta: Etot    =      -702.022919
siesta: FreeEng =      -702.022919

   scf: iscf   Eharris(eV)      E_KS(eV)   FreeEng(eV)    dDmax  Ef(eV)
   scf:    1     -705.1800     -702.0229     -702.0229  1.75631 -4.5430
timer: Routine,Calls,Time,% =    IterSCF     1       0.128   5.85
   scf:    2     -707.2747     -702.4034     -702.4273  0.28538 -4.2712
   scf:    3     -704.2098     -702.7549     -702.7549  0.17224 -4.3708
   scf:    4     -703.9762     -702.8644     -702.8644  0.07001 -4.2706
   scf:    5     -703.8249     -703.0143     -703.0143  0.04488 -4.1936
   scf:    6     -703.7642     -703.2895     -703.2895  0.02133 -4.1599
   scf:    7     -703.7597     -703.3842     -703.3842  0.01823 -4.1626
   scf:    8     -703.7517     -703.5532     -703.5532  0.02034 -4.2040
   scf:    9     -703.7509     -703.5866     -703.5866  0.01750 -4.2108
   scf:   10     -703.7516     -703.6507     -703.6507  0.00851 -4.2210
   scf:   11     -703.7512     -703.6706     -703.6706  0.00382 -4.2187
   scf:   12     -703.7508     -703.6818     -703.6818  0.00324 -4.2156
   scf:   13     -703.7505     -703.6981     -703.6981  0.00270 -4.2113
   scf:   14     -703.7505     -703.7073     -703.7073  0.00225 -4.2116
   scf:   15     -703.7504     -703.7236     -703.7236  0.00217 -4.2105
   scf:   16     -703.7504     -703.7281     -703.7281  0.00197 -4.2123
   scf:   17     -703.7504     -703.7361     -703.7361  0.00117 -4.2148
   scf:   18     -703.7504     -703.7389     -703.7389  0.00076 -4.2195
   scf:   19     -703.7504     -703.7412     -703.7412  0.00045 -4.2182
   scf:   20     -703.7504     -703.7428     -703.7428  0.00041 -4.2171
   scf:   21     -703.7504     -703.7440     -703.7440  0.00033 -4.2172
   scf:   22     -703.7504     -703.7459     -703.7459  0.00033 -4.2129
   scf:   23     -703.7504     -703.7468     -703.7468  0.00029 -4.2132
   scf:   24     -703.7504     -703.7483     -703.7483  0.00015 -4.2135
   scf:   25     -703.7504     -703.7487     -703.7487  0.00013 -4.2186
   scf:   26     -703.7504     -703.7492     -703.7492  0.00007 -4.2182

SCF Convergence by dMax criterion
max |DM_out - DM_in|:     0.00007370
SCF cycle converged after   26 iterations

Using DM_out to compute the final energy and forces

siesta: E_KS(eV) =             -703.7504

siesta: E_KS - E_eggbox =      -703.7504

siesta: Atomic forces (eV/Ang):
     1   -0.000151   -0.438002   -0.014720
     2   -0.000139    0.354244   -0.388926
     3    0.000059    0.019528    0.323844
     4   -0.000108    0.405780    0.356979
     5   -0.000050    0.137772    0.421475
     6   -0.000023   -0.427766   -0.979747
     7   -0.300020   -0.124002    0.197800
     8    0.300039   -0.124035    0.197771
     9   -0.220216    0.084887   -0.043492
    10    0.220226    0.084979   -0.043506
----------------------------------------
   Tot   -0.000385   -0.026614    0.027477
----------------------------------------
   Max    0.979747
   Res    0.294953    sqrt( Sum f_i^2 / 3N )
----------------------------------------
   Max    0.438002    constrained

Stress-tensor-Voigt (kbar):      -59.81       16.03       -1.80        0.12        3.57        0.02
(Free)E + p*V (eV/cell)     -700.5830
Target enthalpy (eV/cell)     -703.7504

siesta: Stress tensor (static) (eV/Ang**3):
        -0.037283   -0.000002    0.000000
        -0.000002    0.010132    0.002252
         0.000000    0.002252   -0.001065

siesta: Pressure (static):         15.06938316  kBar

siesta: Stress tensor (total) (eV/Ang**3):
        -0.037328    0.000072    0.000014
         0.000072    0.010003    0.002226
         0.000014    0.002226   -0.001122

siesta: Pressure (total):         15.19248190  kBar

siesta: Temp_ion =      65.296 K

                     ====================================
                        Begin MD quenched step =      2
                     ====================================

outcoor: Atomic coordinates (scaled):                       
   -0.00002373    0.29234378    0.19010321   1       1  Si
   -0.00008579    0.85401727    0.02187352   1       2  Si
    0.50023103   -0.00525031    0.33010339   1       3  Si
    0.49994863    0.97971314    0.34445053   1       4  Si
    0.50000000    0.50000000    0.70710000   1       5  Si
    0.50000000    1.50000000    0.70710000   1       6  Si
    0.20200000    0.50000000    0.95470000   2       7  H
    0.79800000    0.50000000    0.95470000   2       8  H
    0.20200000    1.50000000    0.95470000   2       9  H
    0.79800000    1.50000000    0.95470000   2      10  H

superc: Internal auxiliary supercell:     5 x     3 x     2  =      30
superc: Number of atoms, orbitals, and projectors:    300   2940   3960

outcell: Unit cell vectors (Ang):
        3.818400    0.000000    0.000000
        0.000000    7.636800    0.000000
        0.000000    0.000000   11.455200

outcell: Cell vector modules (Ang)   :    3.818400    7.636800   11.455200
outcell: Cell angles (23,13,12) (deg):     90.0000     90.0000     90.0000
outcell: Cell volume (Ang**3)        :    334.0377
New_DM. Step:     2
Re-using DM from previous geometry...
Re-using DM without extrapolation for lack of history
New grid distribution:   1
           1       1:   12    1:   12    1:    9
           2       1:   12    1:   12   10:   18
           3       1:   12    1:   12   19:   27
           4       1:   12    1:   12   28:   36
           5       1:   12   13:   24    1:    9
           6       1:   12   13:   24   10:   18
           7       1:   12   13:   24   19:   27
           8       1:   12   13:   24   28:   36

InitMesh: MESH =    24 x    48 x    72 =       82944
InitMesh: (bp) =    12 x    24 x    36 =       10368
InitMesh: Mesh cutoff (required, used) =   100.000   109.185 Ry
ExtMesh (bp) on 0 =    56 x    56 x    53 =      166208
New grid distribution:   2
           1       1:   12   11:   24    8:   11
           2       1:   12   11:   24    5:    7
           3       1:   12    1:   10   12:   36
           4       1:   12    1:   10    8:   11
           5       1:   12   11:   24    1:    4
           6       1:   12    1:   10    1:    4
           7       1:   12   11:   24   12:   36
           8       1:   12    1:   10    5:    7
New grid distribution:   3
           1       1:   12   13:   24    1:    7
           2       1:   12    1:   12    8:   14
           3       1:   12    1:   12   15:   29
           4       1:   12    1:   12   30:   36
           5       1:   12    1:   12    1:    7
           6       1:   12   13:   24    8:   14
           7       1:   12   13:   24   15:   29
           8       1:   12   13:   24   30:   36
Setting up quadratic distribution...
ExtMesh (bp) on 0 =    56 x    58 x    48 =      155904
PhiOnMesh: Number of (b)points on node 0 =                  672
PhiOnMesh: nlist on node 0 =                47277

   scf: iscf   Eharris(eV)      E_KS(eV)   FreeEng(eV)    dDmax  Ef(eV)
   scf:    1     -703.7536     -703.7444     -703.7444  0.00570 -4.2166
   scf:    2     -703.7590     -703.7521     -703.7521  0.03218 -4.1939
   scf:    3     -703.7533     -703.7464     -703.7464  0.00142 -4.2176
   scf:    4     -703.7533     -703.7497     -703.7497  0.00069 -4.2153
   scf:    5     -703.7533     -703.7518     -703.7518  0.00039 -4.2146
   scf:    6     -703.7533     -703.7528     -703.7528  0.00031 -4.2154
   scf:    7     -703.7533     -703.7530     -703.7530  0.00009 -4.2163

SCF Convergence by dMax criterion
max |DM_out - DM_in|:     0.00009401
SCF cycle converged after    7 iterations

Using DM_out to compute the final energy and forces

siesta: E_KS(eV) =             -703.7533

siesta: Atomic forces (eV/Ang):
     1    0.012965   -0.370496   -0.033741
     2    0.001352    0.320106   -0.366435
     3   -0.014591   -0.004141    0.335698
     4   -0.000320    0.391293    0.335745
     5    0.000292    0.140564    0.420147
     6    0.000863   -0.421087   -0.971861
     7   -0.300334   -0.126755    0.197760
     8    0.300041   -0.125906    0.197942
     9   -0.219633    0.086255   -0.044121
    10    0.219436    0.085085   -0.043708
----------------------------------------
   Tot    0.000072   -0.025081    0.027426
----------------------------------------
   Max    0.971861
   Res    0.287376    sqrt( Sum f_i^2 / 3N )
----------------------------------------
   Max    0.391293    constrained

Stress-tensor-Voigt (kbar):      -59.90       16.28       -1.73       -0.07        3.55        0.04
(Free)E + p*V (eV/cell)     -700.6020
Target enthalpy (eV/cell)     -703.7533

siesta: Stress tensor (static) (eV/Ang**3):
        -0.037375   -0.000046    0.000023
        -0.000046    0.010276    0.002228
         0.000023    0.002226   -0.001053

siesta: Pressure (static):         15.03482926  kBar

siesta: Stress tensor (total) (eV/Ang**3):
        -0.037385   -0.000042    0.000024
        -0.000042    0.010160    0.002216
         0.000025    0.002215   -0.001077

siesta: Pressure (total):         15.11520768  kBar

siesta: Temp_ion =      68.753 K

                     ====================================
                        Begin MD quenched step =      3
                     ====================================

outcoor: Atomic coordinates (scaled):                       
   -0.00002258    0.29139079    0.19009954   1       1  Si
   -0.00008573    0.85420759    0.02166219   1       2  Si
    0.50023037   -0.00525049    0.33014783   1       3  Si
    0.49988627    0.98005592    0.34490209   1       4  Si
    0.50000000    0.50000000    0.70710000   1       5  Si
    0.50000000    1.50000000    0.70710000   1       6  Si
    0.20200000    0.50000000    0.95470000   2       7  H
    0.79800000    0.50000000    0.95470000   2       8  H
    0.20200000    1.50000000    0.95470000   2       9  H
    0.79800000    1.50000000    0.95470000   2      10  H

superc: Internal auxiliary supercell:     5 x     3 x     2  =      30
superc: Number of atoms, orbitals, and projectors:    300   2940   3960

outcell: Unit cell vectors (Ang):
        3.818400    0.000000    0.000000
        0.000000    7.636800    0.000000
        0.000000    0.000000   11.455200

outcell: Cell vector modules (Ang)   :    3.818400    7.636800   11.455200
outcell: Cell angles (23,13,12) (deg):     90.0000     90.0000     90.0000
outcell: Cell volume (Ang**3)        :    334.0377
New_DM. Step:     3
Re-using DM from previous geometry...
Extrapolating Density Matrix...
Density Matrix sparsity pattern changed.
New grid distribution:   1
           1       1:   12    1:   12    1:    9
           2       1:   12    1:   12   10:   18
           3       1:   12    1:   12   19:   27
           4       1:   12    1:   12   28:   36
           5       1:   12   13:   24    1:    9
           6       1:   12   13:   24   10:   18
           7       1:   12   13:   24   19:   27
           8       1:   12   13:   24   28:   36

InitMesh: MESH =    24 x    48 x    72 =       82944
InitMesh: (bp) =    12 x    24 x    36 =       10368
InitMesh: Mesh cutoff (required, used) =   100.000   109.185 Ry
ExtMesh (bp) on 0 =    56 x    56 x    53 =      166208
New grid distribution:   2
           1       1:   12   11:   24    8:   11
           2       1:   12   11:   24    5:    7
           3       1:   12    1:   10   12:   36
           4       1:   12    1:   10    8:   11
           5       1:   12   11:   24    1:    4
           6       1:   12    1:   10    1:    4
           7       1:   12   11:   24   12:   36
           8       1:   12    1:   10    5:    7
New grid distribution:   3
           1       1:   12   13:   24    1:    7
           2       1:   12    1:   12    8:   14
           3       1:   12    1:   12   15:   29
           4       1:   12    1:   12   30:   36
           5       1:   12    1:   12    1:    7
           6       1:   12   13:   24    8:   14
           7       1:   12   13:   24   15:   29
           8       1:   12   13:   24   30:   36
Setting up quadratic distribution...
ExtMesh (bp) on 0 =    56 x    58 x    48 =      155904
PhiOnMesh: Number of (b)points on node 0 =                  672
PhiOnMesh: nlist on node 0 =                47285

   scf: iscf   Eharris(eV)      E_KS(eV)   FreeEng(eV)    dDmax  Ef(eV)
   scf:    1     -703.7561     -703.7556     -703.7556  0.00036 -4.2139
   scf:    2     -703.7562     -703.7561     -703.7561  0.00235 -4.2141
   scf:    3     -703.7561     -703.7558     -703.7558  0.00020 -4.2141
   scf:    4     -703.7561     -703.7560     -703.7560  0.00008 -4.2143

SCF Convergence by dMax criterion
max |DM_out - DM_in|:     0.00007561
SCF cycle converged after    4 iterations

Using DM_out to compute the final energy and forces

siesta: E_KS(eV) =             -703.7561

siesta: Atomic forces (eV/Ang):
     1    0.012685   -0.295864   -0.052057
     2   -0.001164    0.283606   -0.341377
     3   -0.014211   -0.028394    0.345800
     4    0.002977    0.371186    0.309579
     5    0.000357    0.144855    0.418513
     6    0.000546   -0.414804   -0.963070
     7   -0.300799   -0.129020    0.198387
     8    0.300453   -0.128068    0.198490
     9   -0.219417    0.086936   -0.043653
    10    0.219270    0.085533   -0.043414
----------------------------------------
   Tot    0.000696   -0.024033    0.027200
----------------------------------------
   Max    0.963070
   Res    0.279567    sqrt( Sum f_i^2 / 3N )
----------------------------------------
   Max    0.371186    constrained

Stress-tensor-Voigt (kbar):      -59.95       16.53       -1.72       -0.08        3.51        0.03
(Free)E + p*V (eV/cell)     -700.6194
Target enthalpy (eV/cell)     -703.7561

siesta: Stress tensor (static) (eV/Ang**3):
        -0.037416   -0.000052    0.000014
        -0.000052    0.010445    0.002205
         0.000014    0.002204   -0.001041

siesta: Pressure (static):         14.96065751  kBar

siesta: Stress tensor (total) (eV/Ang**3):
        -0.037417   -0.000049    0.000017
        -0.000049    0.010316    0.002191
         0.000017    0.002190   -0.001071

siesta: Pressure (total):         15.04529220  kBar

siesta: Temp_ion =      75.828 K

                     ====================================
                        Begin MD quenched step =      4
                     ====================================

outcoor: Atomic coordinates (scaled):                       
   -0.00002029    0.29041138    0.19009122   1       1  Si
   -0.00008579    0.85442323    0.02142038   1       2  Si
    0.50022845   -0.00525321    0.33022316   1       3  Si
    0.49988641    0.98043184    0.34538129   1       4  Si
    0.50000000    0.50000000    0.70710000   1       5  Si
    0.50000000    1.50000000    0.70710000   1       6  Si
    0.20200000    0.50000000    0.95470000   2       7  H
    0.79800000    0.50000000    0.95470000   2       8  H
    0.20200000    1.50000000    0.95470000   2       9  H
    0.79800000    1.50000000    0.95470000   2      10  H

superc: Internal auxiliary supercell:     5 x     3 x     2  =      30
superc: Number of atoms, orbitals, and projectors:    300   2940   3960

outcell: Unit cell vectors (Ang):
        3.818400    0.000000    0.000000
        0.000000    7.636800    0.000000
        0.000000    0.000000   11.455200

outcell: Cell vector modules (Ang)   :    3.818400    7.636800   11.455200
outcell: Cell angles (23,13,12) (deg):     90.0000     90.0000     90.0000
outcell: Cell volume (Ang**3)        :    334.0377
New_DM. Step:     4
Re-using DM from previous geometry...
Extrapolating Density Matrix...
Density Matrix sparsity pattern changed.
New grid distribution:   1
           1       1:   12    1:   12    1:    9
           2       1:   12    1:   12   10:   18
           3       1:   12    1:   12   19:   27
           4       1:   12    1:   12   28:   36
           5       1:   12   13:   24    1:    9
           6       1:   12   13:   24   10:   18
           7       1:   12   13:   24   19:   27
           8       1:   12   13:   24   28:   36

InitMesh: MESH =    24 x    48 x    72 =       82944
InitMesh: (bp) =    12 x    24 x    36 =       10368
InitMesh: Mesh cutoff (required, used) =   100.000   109.185 Ry
ExtMesh (bp) on 0 =    56 x    56 x    53 =      166208
New grid distribution:   2
           1       1:   12   11:   24    8:   11
           2       1:   12   11:   24    5:    7
           3       1:   12    1:   10   12:   36
           4       1:   12    1:   10    8:   11
           5       1:   12   11:   24    1:    4
           6       1:   12    1:   10    1:    4
           7       1:   12   11:   24   12:   36
           8       1:   12    1:   10    5:    7
New grid distribution:   3
           1       1:   12   13:   24    1:    7
           2       1:   12    1:   12    8:   14
           3       1:   12    1:   12   15:   29
           4       1:   12    1:   12   30:   36
           5       1:   12    1:   12    1:    7
           6       1:   12   13:   24    8:   14
           7       1:   12   13:   24   15:   29
           8       1:   12   13:   24   30:   36
Setting up quadratic distribution...
ExtMesh (bp) on 0 =    56 x    58 x    48 =      155904
PhiOnMesh: Number of (b)points on node 0 =                  672
PhiOnMesh: nlist on node 0 =                47299

   scf: iscf   Eharris(eV)      E_KS(eV)   FreeEng(eV)    dDmax  Ef(eV)
   scf:    1     -703.7588     -703.7583     -703.7583  0.00118 -4.2154
   scf:    2     -703.7589     -703.7587     -703.7587  0.00596 -4.2197
   scf:    3     -703.7588     -703.7584     -703.7584  0.00014 -4.2171
   scf:    4     -703.7588     -703.7586     -703.7586  0.00006 -4.2172

SCF Convergence by dMax criterion
max |DM_out - DM_in|:     0.00006372
SCF cycle converged after    4 iterations

Using DM_out to compute the final energy and forces

siesta: E_KS(eV) =             -703.7588

siesta: Atomic forces (eV/Ang):
     1    0.012679   -0.222477   -0.071543
     2   -0.000025    0.243504   -0.313659
     3   -0.014026   -0.050238    0.354785
     4    0.003103    0.347463    0.281250
     5    0.000332    0.149978    0.415853
     6    0.000526   -0.408113   -0.953463
     7   -0.301253   -0.131335    0.198782
     8    0.300918   -0.130388    0.198888
     9   -0.219552    0.087471   -0.042629
    10    0.219411    0.086077   -0.042390
----------------------------------------
   Tot    0.002113   -0.028060    0.025874
----------------------------------------
   Max    0.953463
   Res    0.272128    sqrt( Sum f_i^2 / 3N )
----------------------------------------
   Max    0.354785    constrained

Stress-tensor-Voigt (kbar):      -59.98       16.82       -1.71       -0.09        3.42        0.04
(Free)E + p*V (eV/cell)     -700.6407
Target enthalpy (eV/cell)     -703.7588

siesta: Stress tensor (static) (eV/Ang**3):
        -0.037436   -0.000055    0.000022
        -0.000055    0.010638    0.002153
         0.000022    0.002152   -0.001031

siesta: Pressure (static):         14.86252119  kBar

siesta: Stress tensor (total) (eV/Ang**3):
        -0.037436   -0.000055    0.000022
        -0.000055    0.010498    0.002136
         0.000022    0.002136   -0.001066

siesta: Pressure (total):         14.95586476  kBar

siesta: Temp_ion =      82.647 K

                     ====================================
                        Begin MD quenched step =      5
                     ====================================

outcoor: Atomic coordinates (scaled):                       
   -0.00001688    0.28941209    0.19007651   1       1  Si
   -0.00008584    0.85466063    0.02115055   1       2  Si
    0.50022528   -0.00526042    0.33033016   1       3  Si
    0.49988682    0.98083880    0.34588562   1       4  Si
    0.50000000    0.50000000    0.70710000   1       5  Si
    0.50000000    1.50000000    0.70710000   1       6  Si
    0.20200000    0.50000000    0.95470000   2       7  H
    0.79800000    0.50000000    0.95470000   2       8  H
    0.20200000    1.50000000    0.95470000   2       9  H
    0.79800000    1.50000000    0.95470000   2      10  H

superc: Internal auxiliary supercell:     5 x     3 x     2  =      30
superc: Number of atoms, orbitals, and projectors:    300   2940   3960

outcell: Unit cell vectors (Ang):
        3.818400    0.000000    0.000000
        0.000000    7.636800    0.000000
        0.000000    0.000000   11.455200

outcell: Cell vector modules (Ang)   :    3.818400    7.636800   11.455200
outcell: Cell angles (23,13,12) (deg):     90.0000     90.0000     90.0000
outcell: Cell volume (Ang**3)        :    334.0377
New_DM. Step:     5
Re-using DM from previous geometry...
Extrapolating Density Matrix...
New grid distribution:   1
           1       1:   12    1:   12    1:    9
           2       1:   12    1:   12   10:   18
           3       1:   12    1:   12   19:   27
           4       1:   12    1:   12   28:   36
           5       1:   12   13:   24    1:    9
           6       1:   12   13:   24   10:   18
           7       1:   12   13:   24   19:   27
           8       1:   12   13:   24   28:   36

InitMesh: MESH =    24 x    48 x    72 =       82944
InitMesh: (bp) =    12 x    24 x    36 =       10368
InitMesh: Mesh cutoff (required, used) =   100.000   109.185 Ry
ExtMesh (bp) on 0 =    56 x    56 x    53 =      166208
New grid distribution:   2
           1       1:   12   11:   24    8:   11
           2       1:   12   11:   24    5:    7
           3       1:   12    1:   10   12:   36
           4       1:   12    1:   10    8:   11
           5       1:   12   11:   24    1:    4
           6       1:   12    1:   10    1:    4
           7       1:   12   11:   24   12:   36
           8       1:   12    1:   10    5:    7
New grid distribution:   3
           1       1:   12   13:   24    1:    7
           2       1:   12    1:   12    8:   14
           3       1:   12    1:   12   15:   29
           4       1:   12    1:   12   30:   36
           5       1:   12    1:   12    1:    7
           6       1:   12   13:   24    8:   14
           7       1:   12   13:   24   15:   29
           8       1:   12   13:   24   30:   36
Setting up quadratic distribution...
ExtMesh (bp) on 0 =    56 x    58 x    48 =      155904
PhiOnMesh: Number of (b)points on node 0 =                  672
PhiOnMesh: nlist on node 0 =                47309

   scf: iscf   Eharris(eV)      E_KS(eV)   FreeEng(eV)    dDmax  Ef(eV)
   scf:    1     -703.7612     -703.7608     -703.7608  0.00016 -4.2149
   scf:    2     -703.7612     -703.7612     -703.7612  0.00086 -4.2146
   scf:    3     -703.7612     -703.7609     -703.7609  0.00007 -4.2148

SCF Convergence by dMax criterion
max |DM_out - DM_in|:     0.00007496
SCF cycle converged after    3 iterations

Using DM_out to compute the final energy and forces

siesta: E_KS(eV) =             -703.7612

siesta: Atomic forces (eV/Ang):
     1    0.011982   -0.147166   -0.090838
     2   -0.000981    0.204747   -0.284332
     3   -0.013640   -0.072401    0.363131
     4    0.002747    0.322058    0.251694
     5    0.000335    0.155727    0.412878
     6    0.000510   -0.401137   -0.943151
     7   -0.301953   -0.133728    0.199586
     8    0.301625   -0.132798    0.199685
     9   -0.219641    0.088039   -0.041641
    10    0.219505    0.086667   -0.041413
----------------------------------------
   Tot    0.000489   -0.029993    0.025600
----------------------------------------
   Max    0.943151
   Res    0.265510    sqrt( Sum f_i^2 / 3N )
----------------------------------------
   Max    0.363131    constrained

Stress-tensor-Voigt (kbar):      -60.00       17.12       -1.69       -0.07        3.34        0.03
(Free)E + p*V (eV/cell)     -700.6639
Target enthalpy (eV/cell)     -703.7612

siesta: Stress tensor (static) (eV/Ang**3):
        -0.037449   -0.000042    0.000016
        -0.000042    0.010836    0.002106
         0.000016    0.002106   -0.001014

siesta: Pressure (static):         14.75432091  kBar

siesta: Stress tensor (total) (eV/Ang**3):
        -0.037449   -0.000041    0.000016
        -0.000041    0.010685    0.002087
         0.000016    0.002087   -0.001054

siesta: Pressure (total):         14.85605822  kBar

siesta: Temp_ion =      88.835 K

                     ====================================
                        Begin MD quenched step =      6
                     ====================================

outcoor: Atomic coordinates (scaled):                       
   -0.00001239    0.28839967    0.19005369   1       1  Si
   -0.00008598    0.85491630    0.02085533   1       2  Si
    0.50022089   -0.00527409    0.33046960   1       3  Si
    0.49988747    0.98127452    0.34641242   1       4  Si
    0.50000000    0.50000000    0.70710000   1       5  Si
    0.50000000    1.50000000    0.70710000   1       6  Si
    0.20200000    0.50000000    0.95470000   2       7  H
    0.79800000    0.50000000    0.95470000   2       8  H
    0.20200000    1.50000000    0.95470000   2       9  H
    0.79800000    1.50000000    0.95470000   2      10  H

superc: Internal auxiliary supercell:     5 x     3 x     2  =      30
superc: Number of atoms, orbitals, and projectors:    300   2940   3960

outcell: Unit cell vectors (Ang):
        3.818400    0.000000    0.000000
        0.000000    7.636800    0.000000
        0.000000    0.000000   11.455200

outcell: Cell vector modules (Ang)   :    3.818400    7.636800   11.455200
outcell: Cell angles (23,13,12) (deg):     90.0000     90.0000     90.0000
outcell: Cell volume (Ang**3)        :    334.0377
New_DM. Step:     6
Re-using DM from previous geometry...
Extrapolating Density Matrix...
New grid distribution:   1
           1       1:   12    1:   12    1:    9
           2       1:   12    1:   12   10:   18
           3       1:   12    1:   12   19:   27
           4       1:   12    1:   12   28:   36
           5       1:   12   13:   24    1:    9
           6       1:   12   13:   24   10:   18
           7       1:   12   13:   24   19:   27
           8       1:   12   13:   24   28:   36

InitMesh: MESH =    24 x    48 x    72 =       82944
InitMesh: (bp) =    12 x    24 x    36 =       10368
InitMesh: Mesh cutoff (required, used) =   100.000   109.185 Ry
ExtMesh (bp) on 0 =    56 x    56 x    53 =      166208
New grid distribution:   2
           1       1:   12   11:   24    8:   11
           2       1:   12   11:   24    5:    7
           3       1:   12    1:   10   12:   36
           4       1:   12    1:   10    8:   11
           5       1:   12   11:   24    1:    4
           6       1:   12    1:   10    1:    4
           7       1:   12   11:   24   12:   36
           8       1:   12    1:   10    5:    7
New grid distribution:   3
           1       1:   12   13:   24    1:    7
           2       1:   12    1:   12    8:   14
           3       1:   12    1:   12   15:   29
           4       1:   12    1:   12   30:   36
           5       1:   12    1:   12    1:    7
           6       1:   12   13:   24    8:   14
           7       1:   12   13:   24   15:   29
           8       1:   12   13:   24   30:   36
Setting up quadratic distribution...
ExtMesh (bp) on 0 =    56 x    58 x    48 =      155904
PhiOnMesh: Number of (b)points on node 0 =                  672
PhiOnMesh: nlist on node 0 =                47329

   scf: iscf   Eharris(eV)      E_KS(eV)   FreeEng(eV)    dDmax  Ef(eV)
   scf:    1     -703.7633     -703.7630     -703.7630  0.00044 -4.2178
   scf:    2     -703.7633     -703.7633     -703.7633  0.00272 -4.2132
   scf:    3     -703.7633     -703.7630     -703.7630  0.00009 -4.2178

SCF Convergence by dMax criterion
max |DM_out - DM_in|:     0.00008789
SCF cycle converged after    3 iterations

Using DM_out to compute the final energy and forces

siesta: E_KS(eV) =             -703.7633

siesta: Atomic forces (eV/Ang):
     1    0.011965   -0.069316   -0.108816
     2   -0.000603    0.170122   -0.258298
     3   -0.012866   -0.095205    0.371435
     4    0.002383    0.295134    0.220140
     5    0.000312    0.162063    0.411430
     6    0.000479   -0.393831   -0.930843
     7   -0.302235   -0.136175    0.199845
     8    0.301922   -0.135264    0.199948
     9   -0.219373    0.088630   -0.041168
    10    0.219244    0.087283   -0.040944
----------------------------------------
   Tot    0.001229   -0.026557    0.022729
----------------------------------------
   Max    0.930843
   Res    0.259912    sqrt( Sum f_i^2 / 3N )
----------------------------------------
   Max    0.371435    constrained

Stress-tensor-Voigt (kbar):      -60.05       17.33       -1.67       -0.06        3.28        0.03
(Free)E + p*V (eV/cell)     -700.6783
Target enthalpy (eV/cell)     -703.7633

siesta: Stress tensor (static) (eV/Ang**3):
        -0.037479   -0.000040    0.000016
        -0.000040    0.010974    0.002068
         0.000016    0.002068   -0.000996

siesta: Pressure (static):         14.68740584  kBar

siesta: Stress tensor (total) (eV/Ang**3):
        -0.037479   -0.000039    0.000016
        -0.000039    0.010815    0.002047
         0.000016    0.002047   -0.001042

siesta: Pressure (total):         14.79676040  kBar

siesta: Temp_ion =      94.255 K

                     ====================================
                        Begin MD quenched step =      7
                     ====================================

outcoor: Atomic coordinates (scaled):                       
   -0.00000683    0.28738105    0.19002115   1       1  Si
   -0.00008618    0.85518717    0.02053704   1       2  Si
    0.50021535   -0.00529627    0.33064222   1       3  Si
    0.49988834    0.98173659    0.34695889   1       4  Si
    0.50000000    0.50000000    0.70710000   1       5  Si
    0.50000000    1.50000000    0.70710000   1       6  Si
    0.20200000    0.50000000    0.95470000   2       7  H
    0.79800000    0.50000000    0.95470000   2       8  H
    0.20200000    1.50000000    0.95470000   2       9  H
    0.79800000    1.50000000    0.95470000   2      10  H

superc: Internal auxiliary supercell:     5 x     3 x     2  =      30
superc: Number of atoms, orbitals, and projectors:    300   2940   3960

outcell: Unit cell vectors (Ang):
        3.818400    0.000000    0.000000
        0.000000    7.636800    0.000000
        0.000000    0.000000   11.455200

outcell: Cell vector modules (Ang)   :    3.818400    7.636800   11.455200
outcell: Cell angles (23,13,12) (deg):     90.0000     90.0000     90.0000
outcell: Cell volume (Ang**3)        :    334.0377
New_DM. Step:     7
Re-using DM from previous geometry...
Extrapolating Density Matrix...
New grid distribution:   1
           1       1:   12    1:   12    1:    9
           2       1:   12    1:   12   10:   18
           3       1:   12    1:   12   19:   27
           4       1:   12    1:   12   28:   36
           5       1:   12   13:   24    1:    9
           6       1:   12   13:   24   10:   18
           7       1:   12   13:   24   19:   27
           8       1:   12   13:   24   28:   36

InitMesh: MESH =    24 x    48 x    72 =       82944
InitMesh: (bp) =    12 x    24 x    36 =       10368
InitMesh: Mesh cutoff (required, used) =   100.000   109.185 Ry
ExtMesh (bp) on 0 =    56 x    56 x    53 =      166208
New grid distribution:   2
           1       1:   12   11:   24    8:   11
           2       1:   12   11:   24    5:    7
           3       1:   12    1:   10   12:   36
           4       1:   12    1:   10    8:   11
           5       1:   12   11:   24    1:    4
           6       1:   12    1:   10    1:    4
           7       1:   12   11:   24   12:   36
           8       1:   12    1:   10    5:    7
New grid distribution:   3
           1       1:   12   13:   24    1:    7
           2       1:   12    1:   12    8:   14
           3       1:   12    1:   12   15:   29
           4       1:   12    1:   12   30:   36
           5       1:   12    1:   12    1:    7
           6       1:   12   13:   24    8:   14
           7       1:   12   13:   24   15:   29
           8       1:   12   13:   24   30:   36
Setting up quadratic distribution...
ExtMesh (bp) on 0 =    56 x    58 x    48 =      155904
PhiOnMesh: Number of (b)points on node 0 =                  672
PhiOnMesh: nlist on node 0 =                47317

   scf: iscf   Eharris(eV)      E_KS(eV)   FreeEng(eV)    dDmax  Ef(eV)
   scf:    1     -703.7650     -703.7648     -703.7648  0.00025 -4.2172
   scf:    2     -703.7651     -703.7650     -703.7650  0.00117 -4.2173
   scf:    3     -703.7650     -703.7649     -703.7649  0.00010 -4.2178
   scf:    4     -703.7650     -703.7650     -703.7650  0.00005 -4.2179

SCF Convergence by dMax criterion
max |DM_out - DM_in|:     0.00004555
SCF cycle converged after    4 iterations

Using DM_out to compute the final energy and forces

siesta: E_KS(eV) =             -703.7650

siesta: Atomic forces (eV/Ang):
     1    0.011469    0.005359   -0.127637
     2   -0.000632    0.129524   -0.228066
     3   -0.011734   -0.116947    0.379138
     4    0.002655    0.265893    0.187571
     5    0.000309    0.169032    0.409160
     6    0.000450   -0.386394   -0.917908
     7   -0.302650   -0.138687    0.200240
     8    0.302347   -0.137803    0.200333
     9   -0.219282    0.089216   -0.040329
    10    0.219161    0.087906   -0.040119
----------------------------------------
   Tot    0.002095   -0.032900    0.022382
----------------------------------------
   Max    0.917908
   Res    0.255149    sqrt( Sum f_i^2 / 3N )
----------------------------------------
   Max    0.379138    constrained

Stress-tensor-Voigt (kbar):      -60.05       17.65       -1.64       -0.09        3.17        0.03
(Free)E + p*V (eV/cell)     -700.7046
Target enthalpy (eV/cell)     -703.7650

siesta: Stress tensor (static) (eV/Ang**3):
        -0.037478   -0.000054    0.000019
        -0.000054    0.011181    0.002001
         0.000019    0.002001   -0.000971

siesta: Pressure (static):         14.56314549  kBar

siesta: Stress tensor (total) (eV/Ang**3):
        -0.037478   -0.000053    0.000019
        -0.000053    0.011016    0.001978
         0.000019    0.001977   -0.001023

siesta: Pressure (total):         14.67917199  kBar

siesta: Temp_ion =      41.630 K

                     ====================================
                        Begin MD quenched step =      8
                     ====================================

outcoor: Atomic coordinates (scaled):                       
   -0.00000025    0.28738129    0.18997721   1       1  Si
   -0.00008643    0.85546961    0.02019839   1       2  Si
    0.50020876   -0.00532889    0.33084869   1       3  Si
    0.49988944    0.98222242    0.34752210   1       4  Si
    0.50000000    0.50000000    0.70710000   1       5  Si
    0.50000000    1.50000000    0.70710000   1       6  Si
    0.20200000    0.50000000    0.95470000   2       7  H
    0.79800000    0.50000000    0.95470000   2       8  H
    0.20200000    1.50000000    0.95470000   2       9  H
    0.79800000    1.50000000    0.95470000   2      10  H

superc: Internal auxiliary supercell:     5 x     3 x     2  =      30
superc: Number of atoms, orbitals, and projectors:    300   2940   3960

outcell: Unit cell vectors (Ang):
        3.818400    0.000000    0.000000
        0.000000    7.636800    0.000000
        0.000000    0.000000   11.455200

outcell: Cell vector modules (Ang)   :    3.818400    7.636800   11.455200
outcell: Cell angles (23,13,12) (deg):     90.0000     90.0000     90.0000
outcell: Cell volume (Ang**3)        :    334.0377
New_DM. Step:     8
Re-using DM from previous geometry...
Extrapolating Density Matrix...
New grid distribution:   1
           1       1:   12    1:   12    1:    9
           2       1:   12    1:   12   10:   18
           3       1:   12    1:   12   19:   27
           4       1:   12    1:   12   28:   36
           5       1:   12   13:   24    1:    9
           6       1:   12   13:   24   10:   18
           7       1:   12   13:   24   19:   27
           8       1:   12   13:   24   28:   36

InitMesh: MESH =    24 x    48 x    72 =       82944
InitMesh: (bp) =    12 x    24 x    36 =       10368
InitMesh: Mesh cutoff (required, used) =   100.000   109.185 Ry
ExtMesh (bp) on 0 =    56 x    56 x    53 =      166208
New grid distribution:   2
           1       1:   12   11:   24    8:   11
           2       1:   12   11:   24    5:    7
           3       1:   12    1:   10   12:   36
           4       1:   12    1:   10    8:   11
           5       1:   12   11:   24    1:    4
           6       1:   12    1:   10    1:    4
           7       1:   12   11:   24   12:   36
           8       1:   12    1:   10    5:    7
New grid distribution:   3
           1       1:   12   13:   24    1:    7
           2       1:   12    1:   12    8:   14
           3       1:   12    1:   12   15:   29
           4       1:   12    1:   12   30:   36
           5       1:   12    1:   12    1:    7
           6       1:   12   13:   24    8:   14
           7       1:   12   13:   24   15:   29
           8       1:   12   13:   24   30:   36
Setting up quadratic distribution...
ExtMesh (bp) on 0 =    56 x    58 x    48 =      155904
PhiOnMesh: Number of (b)points on node 0 =                  672
PhiOnMesh: nlist on node 0 =                47308

   scf: iscf   Eharris(eV)      E_KS(eV)   FreeEng(eV)    dDmax  Ef(eV)
   scf:    1     -703.7667     -703.7712     -703.7712  0.00366 -4.2147
   scf:    2     -703.7687     -703.7662     -703.7662  0.01986 -4.2278
   scf:    3     -703.7666     -703.7701     -703.7701  0.00123 -4.2183
   scf:    4     -703.7666     -703.7678     -703.7678  0.00061 -4.2204
   scf:    5     -703.7666     -703.7672     -703.7672  0.00019 -4.2199
   scf:    6     -703.7666     -703.7667     -703.7667  0.00011 -4.2193
   scf:    7     -703.7666     -703.7666     -703.7666  0.00004 -4.2189

SCF Convergence by dMax criterion
max |DM_out - DM_in|:     0.00003836
SCF cycle converged after    7 iterations

Using DM_out to compute the final energy and forces

siesta: E_KS(eV) =             -703.7666

siesta: Atomic forces (eV/Ang):
     1    0.010761    0.016441   -0.127436
     2   -0.001018    0.126265   -0.205696
     3   -0.011610   -0.112042    0.372247
     4    0.002299    0.237562    0.157732
     5    0.000297    0.175356    0.410833
     6    0.000418   -0.378186   -0.904806
     7   -0.303014   -0.139943    0.201131
     8    0.302723   -0.139092    0.201219
     9   -0.219537    0.089651   -0.039077
    10    0.219423    0.088385   -0.038886
----------------------------------------
   Tot    0.000741   -0.035603    0.027261
----------------------------------------
   Max    0.904806
   Res    0.250815    sqrt( Sum f_i^2 / 3N )
----------------------------------------
   Max    0.372247    constrained

Stress-tensor-Voigt (kbar):      -59.75       17.92       -1.63       -0.06        3.12        0.02
(Free)E + p*V (eV/cell)     -700.7460
Target enthalpy (eV/cell)     -703.7666

siesta: Stress tensor (static) (eV/Ang**3):
        -0.037295   -0.000038    0.000012
        -0.000038    0.011223    0.001966
         0.000012    0.001966   -0.000960

siesta: Pressure (static):         14.43699220  kBar

siesta: Stress tensor (total) (eV/Ang**3):
        -0.037295   -0.000039    0.000012
        -0.000039    0.011184    0.001944
         0.000012    0.001945   -0.001017

siesta: Pressure (total):         14.48823868  kBar

siesta: Temp_ion =      45.724 K

                     ====================================
                        Begin MD quenched step =      9
                     ====================================

outcoor: Atomic coordinates (scaled):                       
    0.00000729    0.28738300    0.18992189   1       1  Si
   -0.00008677    0.85576333    0.01984136   1       2  Si
    0.50020113   -0.00537152    0.33108840   1       3  Si
    0.49989076    0.98272945    0.34809941   1       4  Si
    0.50000000    0.50000000    0.70710000   1       5  Si
    0.50000000    1.50000000    0.70710000   1       6  Si
    0.20200000    0.50000000    0.95470000   2       7  H
    0.79800000    0.50000000    0.95470000   2       8  H
    0.20200000    1.50000000    0.95470000   2       9  H
    0.79800000    1.50000000    0.95470000   2      10  H

superc: Internal auxiliary supercell:     5 x     3 x     2  =      30
superc: Number of atoms, orbitals, and projectors:    300   2940   3960

outcell: Unit cell vectors (Ang):
        3.818400    0.000000    0.000000
        0.000000    7.636800    0.000000
        0.000000    0.000000   11.455200

outcell: Cell vector modules (Ang)   :    3.818400    7.636800   11.455200
outcell: Cell angles (23,13,12) (deg):     90.0000     90.0000     90.0000
outcell: Cell volume (Ang**3)        :    334.0377
New_DM. Step:     9
Re-using DM from previous geometry...
Extrapolating Density Matrix...
New grid distribution:   1
           1       1:   12    1:   12    1:    9
           2       1:   12    1:   12   10:   18
           3       1:   12    1:   12   19:   27
           4       1:   12    1:   12   28:   36
           5       1:   12   13:   24    1:    9
           6       1:   12   13:   24   10:   18
           7       1:   12   13:   24   19:   27
           8       1:   12   13:   24   28:   36

InitMesh: MESH =    24 x    48 x    72 =       82944
InitMesh: (bp) =    12 x    24 x    36 =       10368
InitMesh: Mesh cutoff (required, used) =   100.000   109.185 Ry
ExtMesh (bp) on 0 =    56 x    56 x    53 =      166208
New grid distribution:   2
           1       1:   12   11:   24    8:   11
           2       1:   12   11:   24    5:    7
           3       1:   12    1:   10   12:   36
           4       1:   12    1:   10    8:   11
           5       1:   12   11:   24    1:    4
           6       1:   12    1:   10    1:    4
           7       1:   12   11:   24   12:   36
           8       1:   12    1:   10    5:    7
New grid distribution:   3
           1       1:   12   13:   24    1:    7
           2       1:   12    1:   12    8:   14
           3       1:   12    1:   12   15:   29
           4       1:   12    1:   12   30:   36
           5       1:   12    1:   12    1:    7
           6       1:   12   13:   24    8:   14
           7       1:   12   13:   24   15:   29
           8       1:   12   13:   24   30:   36
Setting up quadratic distribution...
ExtMesh (bp) on 0 =    56 x    58 x    48 =      155904
PhiOnMesh: Number of (b)points on node 0 =                  672
PhiOnMesh: nlist on node 0 =                47327

   scf: iscf   Eharris(eV)      E_KS(eV)   FreeEng(eV)    dDmax  Ef(eV)
   scf:    1     -703.7682     -703.7679     -703.7679  0.00031 -4.2203
   scf:    2     -703.7682     -703.7682     -703.7682  0.00208 -4.2170
   scf:    3     -703.7682     -703.7680     -703.7680  0.00006 -4.2201

SCF Convergence by dMax criterion
max |DM_out - DM_in|:     0.00006187
SCF cycle converged after    3 iterations

Using DM_out to compute the final energy and forces

siesta: E_KS(eV) =             -703.7682

siesta: Atomic forces (eV/Ang):
     1    0.009981    0.027042   -0.127773
     2   -0.000869    0.129446   -0.187398
     3   -0.011128   -0.107897    0.364961
     4    0.002894    0.208521    0.125119
     5    0.000277    0.181784    0.413209
     6    0.000378   -0.369730   -0.889358
     7   -0.303570   -0.141384    0.202339
     8    0.303295   -0.140569    0.202423
     9   -0.218808    0.090283   -0.039474
    10    0.218704    0.089066   -0.039298
----------------------------------------
   Tot    0.001155   -0.033439    0.024750
----------------------------------------
   Max    0.889358
   Res    0.246663    sqrt( Sum f_i^2 / 3N )
----------------------------------------
   Max    0.364961    constrained

Stress-tensor-Voigt (kbar):      -59.49       17.89       -1.68       -0.06        3.07        0.02
(Free)E + p*V (eV/cell)     -700.7606
Target enthalpy (eV/cell)     -703.7682

siesta: Stress tensor (static) (eV/Ang**3):
        -0.037131   -0.000035    0.000010
        -0.000035    0.011209    0.001940
         0.000010    0.001940   -0.000984

siesta: Pressure (static):         14.36953430  kBar

siesta: Stress tensor (total) (eV/Ang**3):
        -0.037131   -0.000036    0.000010
        -0.000036    0.011167    0.001918
         0.000010    0.001917   -0.001047

siesta: Pressure (total):         14.42581990  kBar

siesta: Temp_ion =      49.686 K

                     ====================================
                        Begin MD quenched step =     10
                     ====================================

outcoor: Atomic coordinates (scaled):                       
    0.00001572    0.28738712    0.18985516   1       1  Si
   -0.00008719    0.85606860    0.01946760   1       2  Si
    0.50019252   -0.00542378    0.33136071   1       3  Si
    0.49989232    0.98325512    0.34868788   1       4  Si
    0.50000000    0.50000000    0.70710000   1       5  Si
    0.50000000    1.50000000    0.70710000   1       6  Si
    0.20200000    0.50000000    0.95470000   2       7  H
    0.79800000    0.50000000    0.95470000   2       8  H
    0.20200000    1.50000000    0.95470000   2       9  H
    0.79800000    1.50000000    0.95470000   2      10  H

superc: Internal auxiliary supercell:     5 x     3 x     2  =      30
superc: Number of atoms, orbitals, and projectors:    300   2940   3960

outcell: Unit cell vectors (Ang):
        3.818400    0.000000    0.000000
        0.000000    7.636800    0.000000
        0.000000    0.000000   11.455200

outcell: Cell vector modules (Ang)   :    3.818400    7.636800   11.455200
outcell: Cell angles (23,13,12) (deg):     90.0000     90.0000     90.0000
outcell: Cell volume (Ang**3)        :    334.0377
New_DM. Step:    10
Re-using DM from previous geometry...
Extrapolating Density Matrix...
New grid distribution:   1
           1       1:   12    1:   12    1:    9
           2       1:   12    1:   12   10:   18
           3       1:   12    1:   12   19:   27
           4       1:   12    1:   12   28:   36
           5       1:   12   13:   24    1:    9
           6       1:   12   13:   24   10:   18
           7       1:   12   13:   24   19:   27
           8       1:   12   13:   24   28:   36

InitMesh: MESH =    24 x    48 x    72 =       82944
InitMesh: (bp) =    12 x    24 x    36 =       10368
InitMesh: Mesh cutoff (required, used) =   100.000   109.185 Ry
ExtMesh (bp) on 0 =    56 x    56 x    53 =      166208
New grid distribution:   2
           1       1:   12   11:   24    8:   11
           2       1:   12   11:   24    5:    7
           3       1:   12    1:   10   12:   36
           4       1:   12    1:   10    8:   11
           5       1:   12   11:   24    1:    4
           6       1:   12    1:   10    1:    4
           7       1:   12   11:   24   12:   36
           8       1:   12    1:   10    5:    7
New grid distribution:   3
           1       1:   12   13:   24    1:    7
           2       1:   12    1:   12    8:   14
           3       1:   12    1:   12   15:   29
           4       1:   12    1:   12   30:   36
           5       1:   12    1:   12    1:    7
           6       1:   12   13:   24    8:   14
           7       1:   12   13:   24   15:   29
           8       1:   12   13:   24   30:   36
Setting up quadratic distribution...
ExtMesh (bp) on 0 =    56 x    58 x    48 =      155904
PhiOnMesh: Number of (b)points on node 0 =                  672
PhiOnMesh: nlist on node 0 =                47342

   scf: iscf   Eharris(eV)      E_KS(eV)   FreeEng(eV)    dDmax  Ef(eV)
   scf:    1     -703.7696     -703.7694     -703.7694  0.00037 -4.2198
   scf:    2     -703.7697     -703.7696     -703.7696  0.00190 -4.2219
   scf:    3     -703.7696     -703.7695     -703.7695  0.00009 -4.2208

SCF Convergence by dMax criterion
max |DM_out - DM_in|:     0.00009039
SCF cycle converged after    3 iterations

Using DM_out to compute the final energy and forces

siesta: E_KS(eV) =             -703.7696

siesta: Atomic forces (eV/Ang):
     1    0.009007    0.036713   -0.126652
     2   -0.000765    0.132255   -0.168929
     3   -0.009468   -0.099037    0.354480
     4    0.002279    0.176707    0.092278
     5    0.000261    0.189464    0.415588
     6    0.000336   -0.361675   -0.874564
     7   -0.303609   -0.142561    0.202794
     8    0.303349   -0.141788    0.202870
     9   -0.219310    0.090584   -0.037701
    10    0.219215    0.089424   -0.037547
----------------------------------------
   Tot    0.001295   -0.029915    0.022617
----------------------------------------
   Max    0.874564
   Res    0.242568    sqrt( Sum f_i^2 / 3N )
----------------------------------------
   Max    0.354480    constrained

Stress-tensor-Voigt (kbar):      -59.20       17.89       -1.73       -0.04        3.05        0.02
(Free)E + p*V (eV/cell)     -700.7780
Target enthalpy (eV/cell)     -703.7696

siesta: Stress tensor (static) (eV/Ang**3):
        -0.036952   -0.000027    0.000010
        -0.000027    0.011212    0.001929
         0.000010    0.001929   -0.001013

siesta: Pressure (static):         14.28801794  kBar

siesta: Stress tensor (total) (eV/Ang**3):
        -0.036952   -0.000027    0.000010
        -0.000027    0.011167    0.001906
         0.000010    0.001906   -0.001082

siesta: Pressure (total):         14.34918125  kBar

siesta: Temp_ion =      53.463 K

                     ====================================
                        Begin MD quenched step =     11
                     ====================================

outcoor: Atomic coordinates (scaled):                       
    0.00002495    0.28739453    0.18977712   1       1  Si
   -0.00008768    0.85638569    0.01907875   1       2  Si
    0.50018305   -0.00548489    0.33166468   1       3  Si
    0.49989410    0.98379656    0.34928460   1       4  Si
    0.50000000    0.50000000    0.70710000   1       5  Si
    0.50000000    1.50000000    0.70710000   1       6  Si
    0.20200000    0.50000000    0.95470000   2       7  H
    0.79800000    0.50000000    0.95470000   2       8  H
    0.20200000    1.50000000    0.95470000   2       9  H
    0.79800000    1.50000000    0.95470000   2      10  H

superc: Internal auxiliary supercell:     5 x     3 x     2  =      30
superc: Number of atoms, orbitals, and projectors:    300   2940   3960

outcell: Unit cell vectors (Ang):
        3.818400    0.000000    0.000000
        0.000000    7.636800    0.000000
        0.000000    0.000000   11.455200

outcell: Cell vector modules (Ang)   :    3.818400    7.636800   11.455200
outcell: Cell angles (23,13,12) (deg):     90.0000     90.0000     90.0000
outcell: Cell volume (Ang**3)        :    334.0377
New_DM. Step:    11
Re-using DM from previous geometry...
Extrapolating Density Matrix...
New grid distribution:   1
           1       1:   12    1:   12    1:    9
           2       1:   12    1:   12   10:   18
           3       1:   12    1:   12   19:   27
           4       1:   12    1:   12   28:   36
           5       1:   12   13:   24    1:    9
           6       1:   12   13:   24   10:   18
           7       1:   12   13:   24   19:   27
           8       1:   12   13:   24   28:   36

InitMesh: MESH =    24 x    48 x    72 =       82944
InitMesh: (bp) =    12 x    24 x    36 =       10368
InitMesh: Mesh cutoff (required, used) =   100.000   109.185 Ry
ExtMesh (bp) on 0 =    56 x    56 x    53 =      166208
New grid distribution:   2
           1       1:   12   11:   24    8:   11
           2       1:   12   11:   24    5:    7
           3       1:   12    1:   10   12:   36
           4       1:   12    1:   10    8:   11
           5       1:   12   11:   24    1:    4
           6       1:   12    1:   10    1:    4
           7       1:   12   11:   24   12:   36
           8       1:   12    1:   10    5:    7
New grid distribution:   3
           1       1:   12   13:   24    1:    7
           2       1:   12    1:   12    8:   14
           3       1:   12    1:   12   15:   29
           4       1:   12    1:   12   30:   36
           5       1:   12    1:   12    1:    7
           6       1:   12   13:   24    8:   14
           7       1:   12   13:   24   15:   29
           8       1:   12   13:   24   30:   36
Setting up quadratic distribution...
ExtMesh (bp) on 0 =    56 x    58 x    48 =      155904
PhiOnMesh: Number of (b)points on node 0 =                  672
PhiOnMesh: nlist on node 0 =                47345

   scf: iscf   Eharris(eV)      E_KS(eV)   FreeEng(eV)    dDmax  Ef(eV)
   scf:    1     -703.7710     -703.7709     -703.7709  0.00047 -4.2218
   scf:    2     -703.7711     -703.7710     -703.7710  0.00260 -4.2197
   scf:    3     -703.7710     -703.7709     -703.7709  0.00006 -4.2218

SCF Convergence by dMax criterion
max |DM_out - DM_in|:     0.00006091
SCF cycle converged after    3 iterations

Using DM_out to compute the final energy and forces

siesta: E_KS(eV) =             -703.7710

siesta: Atomic forces (eV/Ang):
     1    0.007812    0.046228   -0.126036
     2   -0.000369    0.132532   -0.148299
     3   -0.008562   -0.092764    0.345268
     4    0.001985    0.148771    0.060870
     5    0.000234    0.196696    0.417463
     6    0.000287   -0.353066   -0.856924
     7   -0.304378   -0.144088    0.204298
     8    0.304141   -0.143362    0.204370
     9   -0.218497    0.091291   -0.038158
    10    0.218413    0.090190   -0.038021
----------------------------------------
   Tot    0.001066   -0.027573    0.024831
----------------------------------------
   Max    0.856924
   Res    0.238613    sqrt( Sum f_i^2 / 3N )
----------------------------------------
   Max    0.345268    constrained

Stress-tensor-Voigt (kbar):      -58.90       17.91       -1.75       -0.04        3.02        0.02
(Free)E + p*V (eV/cell)     -700.8005
Target enthalpy (eV/cell)     -703.7710

siesta: Stress tensor (static) (eV/Ang**3):
        -0.036762   -0.000026    0.000010
        -0.000026    0.011228    0.001911
         0.000010    0.001910   -0.001020

siesta: Pressure (static):         14.18204952  kBar

siesta: Stress tensor (total) (eV/Ang**3):
        -0.036762   -0.000027    0.000011
        -0.000027    0.011179    0.001888
         0.000011    0.001887   -0.001094

siesta: Pressure (total):         14.24786183  kBar

siesta: Temp_ion =      57.005 K

                     ====================================
                        Begin MD quenched step =     12
                     ====================================

outcoor: Atomic coordinates (scaled):                       
    0.00003489    0.28740606    0.18968782   1       1  Si
   -0.00008820    0.85671462    0.01867666   1       2  Si
    0.50017282   -0.00555428    0.33199948   1       3  Si
    0.49989605    0.98435129    0.34988675   1       4  Si
    0.50000000    0.50000000    0.70710000   1       5  Si
    0.50000000    1.50000000    0.70710000   1       6  Si
    0.20200000    0.50000000    0.95470000   2       7  H
    0.79800000    0.50000000    0.95470000   2       8  H
    0.20200000    1.50000000    0.95470000   2       9  H
    0.79800000    1.50000000    0.95470000   2      10  H

superc: Internal auxiliary supercell:     5 x     3 x     2  =      30
superc: Number of atoms, orbitals, and projectors:    300   2940   3960

outcell: Unit cell vectors (Ang):
        3.818400    0.000000    0.000000
        0.000000    7.636800    0.000000
        0.000000    0.000000   11.455200

outcell: Cell vector modules (Ang)   :    3.818400    7.636800   11.455200
outcell: Cell angles (23,13,12) (deg):     90.0000     90.0000     90.0000
outcell: Cell volume (Ang**3)        :    334.0377
New_DM. Step:    12
Re-using DM from previous geometry...
Extrapolating Density Matrix...
New grid distribution:   1
           1       1:   12    1:   12    1:    9
           2       1:   12    1:   12   10:   18
           3       1:   12    1:   12   19:   27
           4       1:   12    1:   12   28:   36
           5       1:   12   13:   24    1:    9
           6       1:   12   13:   24   10:   18
           7       1:   12   13:   24   19:   27
           8       1:   12   13:   24   28:   36

InitMesh: MESH =    24 x    48 x    72 =       82944
InitMesh: (bp) =    12 x    24 x    36 =       10368
InitMesh: Mesh cutoff (required, used) =   100.000   109.185 Ry
ExtMesh (bp) on 0 =    56 x    56 x    53 =      166208
New grid distribution:   2
           1       1:   12   11:   24    8:   11
           2       1:   12   11:   24    5:    7
           3       1:   12    1:   10   12:   36
           4       1:   12    1:   10    8:   11
           5       1:   12   11:   24    1:    4
           6       1:   12    1:   10    1:    4
           7       1:   12   11:   24   12:   36
           8       1:   12    1:   10    5:    7
New grid distribution:   3
           1       1:   12   13:   24    1:    7
           2       1:   12    1:   12    8:   14
           3       1:   12    1:   12   15:   29
           4       1:   12    1:   12   30:   36
           5       1:   12    1:   12    1:    7
           6       1:   12   13:   24    8:   14
           7       1:   12   13:   24   15:   29
           8       1:   12   13:   24   30:   36
Setting up quadratic distribution...
ExtMesh (bp) on 0 =    56 x    58 x    48 =      155904
PhiOnMesh: Number of (b)points on node 0 =                  672
[...]
   scf:    2     -703.7863     -703.7863     -703.7863  0.00164 -4.2418
   scf:    3     -703.7863     -703.7863     -703.7863  0.00007 -4.2397

SCF Convergence by dMax criterion
max |DM_out - DM_in|:     0.00007075
SCF cycle converged after    3 iterations

Using DM_out to compute the final energy and forces

siesta: E_KS(eV) =             -703.7863

siesta: Atomic forces (eV/Ang):
     1    0.000021    0.002854   -0.021626
     2    0.000335    0.046138   -0.034362
     3   -0.000953    0.088687   -0.004348
     4    0.000598   -0.015671   -0.017761
     5    0.000081    0.389156    0.489034
     6   -0.000025   -0.434223   -0.742967
     7   -0.303595   -0.135786    0.205763
     8    0.303504   -0.135536    0.205854
     9   -0.217552    0.083875   -0.030444
    10    0.217535    0.083385   -0.030428
----------------------------------------
   Tot   -0.000052   -0.027120    0.018716
----------------------------------------
   Max    0.742967
   Res    0.228011    sqrt( Sum f_i^2 / 3N )
----------------------------------------
   Max    0.088687    constrained

Stress-tensor-Voigt (kbar):      -54.35       19.20       -2.29       -0.01        1.71        0.00
(Free)E + p*V (eV/cell)     -701.1845
Target enthalpy (eV/cell)     -703.7863

siesta: Stress tensor (static) (eV/Ang**3):
        -0.033920   -0.000008    0.000002
        -0.000008    0.011990    0.001070
         0.000002    0.001070   -0.001417

siesta: Pressure (static):         12.46874181  kBar

siesta: Stress tensor (total) (eV/Ang**3):
        -0.033920   -0.000008    0.000002
        -0.000008    0.011984    0.001069
         0.000002    0.001070   -0.001431

siesta: Pressure (total):         12.47944481  kBar

siesta: Temp_ion =       9.024 K

                     ====================================
                        Begin MD quenched step =     44
                     ====================================

outcoor: Atomic coordinates (scaled):                       
    0.00009371    0.28952422    0.18232446   1       1  Si
   -0.00006737    0.86272048    0.00968651   1       2  Si
    0.50009684   -0.00378827    0.34231538   1       3  Si
    0.49993348    0.98580403    0.34869505   1       4  Si
    0.50000000    0.50000000    0.70710000   1       5  Si
    0.50000000    1.50000000    0.70710000   1       6  Si
    0.20200000    0.50000000    0.95470000   2       7  H
    0.79800000    0.50000000    0.95470000   2       8  H
    0.20200000    1.50000000    0.95470000   2       9  H
    0.79800000    1.50000000    0.95470000   2      10  H

superc: Internal auxiliary supercell:     5 x     3 x     2  =      30
superc: Number of atoms, orbitals, and projectors:    300   2940   3960

outcell: Unit cell vectors (Ang):
        3.818400    0.000000    0.000000
        0.000000    7.636800    0.000000
        0.000000    0.000000   11.455200

outcell: Cell vector modules (Ang)   :    3.818400    7.636800   11.455200
outcell: Cell angles (23,13,12) (deg):     90.0000     90.0000     90.0000
outcell: Cell volume (Ang**3)        :    334.0377
New_DM. Step:    44
Re-using DM from previous geometry...
Extrapolating Density Matrix...
New grid distribution:   1
           1       1:   12    1:   12    1:    9
           2       1:   12    1:   12   10:   18
           3       1:   12    1:   12   19:   27
           4       1:   12    1:   12   28:   36
           5       1:   12   13:   24    1:    9
           6       1:   12   13:   24   10:   18
           7       1:   12   13:   24   19:   27
           8       1:   12   13:   24   28:   36

InitMesh: MESH =    24 x    48 x    72 =       82944
InitMesh: (bp) =    12 x    24 x    36 =       10368
InitMesh: Mesh cutoff (required, used) =   100.000   109.185 Ry
ExtMesh (bp) on 0 =    56 x    56 x    53 =      166208
New grid distribution:   2
           1       1:   12   11:   24    8:   11
           2       1:   12   11:   24    5:    7
           3       1:   12    1:   10   12:   36
           4       1:   12    1:   10    8:   11
           5       1:   12   11:   24    1:    4
           6       1:   12    1:   10    1:    4
           7       1:   12   11:   24   12:   36
           8       1:   12    1:   10    5:    7
New grid distribution:   3
           1       1:   12   13:   24    8:   14
           2       1:   12    1:   12    8:   14
           3       1:   12    1:   11   15:   29
           4       1:   12   13:   24    1:    7
           5       1:   12    1:   12    1:    7
           6       1:   12    1:   11   30:   36
           7       1:   12   12:   24   15:   29
           8       1:   12   12:   24   30:   36
Setting up quadratic distribution...
ExtMesh (bp) on 0 =    56 x    58 x    48 =      155904
PhiOnMesh: Number of (b)points on node 0 =                  672
PhiOnMesh: nlist on node 0 =                47337

   scf: iscf   Eharris(eV)      E_KS(eV)   FreeEng(eV)    dDmax  Ef(eV)
   scf:    1     -703.7864     -703.7864     -703.7864  0.00045 -4.2429
   scf:    2     -703.7865     -703.7864     -703.7864  0.00231 -4.2385
   scf:    3     -703.7864     -703.7864     -703.7864  0.00008 -4.2419

SCF Convergence by dMax criterion
max |DM_out - DM_in|:     0.00007562
SCF cycle converged after    3 iterations

Using DM_out to compute the final energy and forces

siesta: E_KS(eV) =             -703.7864

siesta: Atomic forces (eV/Ang):
     1   -0.000189    0.004172   -0.019938
     2   -0.000007    0.045923   -0.038658
     3   -0.000927    0.081028   -0.003606
     4    0.000672   -0.012461   -0.011000
     5    0.000085    0.392234    0.491308
     6   -0.000020   -0.432087   -0.749660
     7   -0.303182   -0.135426    0.204907
     8    0.303090   -0.135184    0.205001
     9   -0.218173    0.083724   -0.029596
    10    0.218155    0.083241   -0.029579
----------------------------------------
   Tot   -0.000495   -0.024836    0.019180
----------------------------------------
   Max    0.749660
   Res    0.228771    sqrt( Sum f_i^2 / 3N )
----------------------------------------
   Max    0.081028    constrained

Stress-tensor-Voigt (kbar):      -54.42       19.18       -2.28       -0.01        1.68        0.00
(Free)E + p*V (eV/cell)     -701.1794
Target enthalpy (eV/cell)     -703.7864

siesta: Stress tensor (static) (eV/Ang**3):
        -0.033963   -0.000006    0.000001
        -0.000006    0.011979    0.001051
         0.000001    0.001049   -0.001409

siesta: Pressure (static):         12.49331699  kBar

siesta: Stress tensor (total) (eV/Ang**3):
        -0.033963   -0.000006    0.000001
        -0.000006    0.011972    0.001050
         0.000001    0.001049   -0.001422

siesta: Pressure (total):         12.50442514  kBar

siesta: Temp_ion =       9.332 K

                     ====================================
                        Begin MD quenched step =     45
                     ====================================

outcoor: Atomic coordinates (scaled):                       
    0.00009370    0.28952517    0.18201640   1       1  Si
   -0.00006737    0.86278303    0.00966310   1       2  Si
    0.50009610   -0.00355915    0.34230188   1       3  Si
    0.49993488    0.98573793    0.34857020   1       4  Si
    0.50000000    0.50000000    0.70710000   1       5  Si
    0.50000000    1.50000000    0.70710000   1       6  Si
    0.20200000    0.50000000    0.95470000   2       7  H
    0.79800000    0.50000000    0.95470000   2       8  H
    0.20200000    1.50000000    0.95470000   2       9  H
    0.79800000    1.50000000    0.95470000   2      10  H

superc: Internal auxiliary supercell:     5 x     3 x     2  =      30
superc: Number of atoms, orbitals, and projectors:    300   2940   3960

outcell: Unit cell vectors (Ang):
        3.818400    0.000000    0.000000
        0.000000    7.636800    0.000000
        0.000000    0.000000   11.455200

outcell: Cell vector modules (Ang)   :    3.818400    7.636800   11.455200
outcell: Cell angles (23,13,12) (deg):     90.0000     90.0000     90.0000
outcell: Cell volume (Ang**3)        :    334.0377
New_DM. Step:    45
Re-using DM from previous geometry...
Extrapolating Density Matrix...
New grid distribution:   1
           1       1:   12    1:   12    1:    9
           2       1:   12    1:   12   10:   18
           3       1:   12    1:   12   19:   27
           4       1:   12    1:   12   28:   36
           5       1:   12   13:   24    1:    9
           6       1:   12   13:   24   10:   18
           7       1:   12   13:   24   19:   27
           8       1:   12   13:   24   28:   36

InitMesh: MESH =    24 x    48 x    72 =       82944
InitMesh: (bp) =    12 x    24 x    36 =       10368
InitMesh: Mesh cutoff (required, used) =   100.000   109.185 Ry
ExtMesh (bp) on 0 =    56 x    56 x    53 =      166208
New grid distribution:   2
           1       1:   12   11:   24    8:   11
           2       1:   12   11:   24    5:    7
           3       1:   12    1:   10   12:   36
           4       1:   12    1:   10    8:   11
           5       1:   12   11:   24    1:    4
           6       1:   12    1:   10    1:    4
           7       1:   12   11:   24   12:   36
           8       1:   12    1:   10    5:    7
New grid distribution:   3
           1       1:   12   13:   24    8:   14
           2       1:   12    1:   12    8:   14
           3       1:   12    1:   11   15:   29
           4       1:   12   13:   24    1:    7
           5       1:   12    1:   12    1:    7
           6       1:   12    1:   11   30:   36
           7       1:   12   12:   24   15:   29
           8       1:   12   12:   24   30:   36
Setting up quadratic distribution...
ExtMesh (bp) on 0 =    56 x    58 x    48 =      155904
PhiOnMesh: Number of (b)points on node 0 =                  672
PhiOnMesh: nlist on node 0 =                47319

   scf: iscf   Eharris(eV)      E_KS(eV)   FreeEng(eV)    dDmax  Ef(eV)
   scf:    1     -703.7865     -703.7865     -703.7865  0.00035 -4.2408
   scf:    2     -703.7866     -703.7865     -703.7865  0.00198 -4.2430
   scf:    3     -703.7865     -703.7865     -703.7865  0.00010 -4.2410
   scf:    4     -703.7865     -703.7865     -703.7865  0.00001 -4.2413

SCF Convergence by dMax criterion
max |DM_out - DM_in|:     0.00001165
SCF cycle converged after    4 iterations

Using DM_out to compute the final energy and forces

siesta: E_KS(eV) =             -703.7865

siesta: Atomic forces (eV/Ang):
     1   -0.000223    0.008198   -0.019028
     2    0.000897    0.044383   -0.039961
     3   -0.000481    0.070075   -0.001898
     4    0.000842   -0.009777   -0.004946
     5    0.000082    0.395256    0.491087
     6   -0.000016   -0.430362   -0.755662
     7   -0.303170   -0.135277    0.204999
     8    0.303081   -0.135038    0.205094
     9   -0.217844    0.083746   -0.030277
    10    0.217826    0.083272   -0.030257
----------------------------------------
   Tot    0.000993   -0.025525    0.019151
----------------------------------------
   Max    0.755662
   Res    0.229328    sqrt( Sum f_i^2 / 3N )
----------------------------------------
   Max    0.070075    constrained

Stress-tensor-Voigt (kbar):      -54.46       19.20       -2.22       -0.01        1.66        0.01
(Free)E + p*V (eV/cell)     -701.1815
Target enthalpy (eV/cell)     -703.7865

siesta: Stress tensor (static) (eV/Ang**3):
        -0.033990   -0.000006    0.000006
        -0.000006    0.011990    0.001034
         0.000006    0.001034   -0.001374

siesta: Pressure (static):         12.48323971  kBar

siesta: Stress tensor (total) (eV/Ang**3):
        -0.033990   -0.000006    0.000006
        -0.000006    0.011983    0.001034
         0.000006    0.001034   -0.001388

siesta: Pressure (total):         12.49472772  kBar

siesta: Temp_ion =       9.616 K

                     ====================================
                        Begin MD quenched step =     46
                     ====================================

outcoor: Atomic coordinates (scaled):                       
    0.00009366    0.28952684    0.18170665   1       1  Si
   -0.00006729    0.86284955    0.00963613   1       2  Si
    0.50009531   -0.00332376    0.34228821   1       3  Si
    0.49993636    0.98567095    0.34844490   1       4  Si
    0.50000000    0.50000000    0.70710000   1       5  Si
    0.50000000    1.50000000    0.70710000   1       6  Si
    0.20200000    0.50000000    0.95470000   2       7  H
    0.79800000    0.50000000    0.95470000   2       8  H
    0.20200000    1.50000000    0.95470000   2       9  H
    0.79800000    1.50000000    0.95470000   2      10  H

superc: Internal auxiliary supercell:     5 x     3 x     2  =      30
superc: Number of atoms, orbitals, and projectors:    300   2940   3960

outcell: Unit cell vectors (Ang):
        3.818400    0.000000    0.000000
        0.000000    7.636800    0.000000
        0.000000    0.000000   11.455200

outcell: Cell vector modules (Ang)   :    3.818400    7.636800   11.455200
outcell: Cell angles (23,13,12) (deg):     90.0000     90.0000     90.0000
outcell: Cell volume (Ang**3)        :    334.0377
New_DM. Step:    46
Re-using DM from previous geometry...
Extrapolating Density Matrix...
New grid distribution:   1
           1       1:   12    1:   12    1:    9
           2       1:   12    1:   12   10:   18
           3       1:   12    1:   12   19:   27
           4       1:   12    1:   12   28:   36
           5       1:   12   13:   24    1:    9
           6       1:   12   13:   24   10:   18
           7       1:   12   13:   24   19:   27
           8       1:   12   13:   24   28:   36

InitMesh: MESH =    24 x    48 x    72 =       82944
InitMesh: (bp) =    12 x    24 x    36 =       10368
InitMesh: Mesh cutoff (required, used) =   100.000   109.185 Ry
ExtMesh (bp) on 0 =    56 x    56 x    53 =      166208
New grid distribution:   2
           1       1:   12   11:   24    8:   11
           2       1:   12   11:   24    5:    7
           3       1:   12    1:   10   12:   36
           4       1:   12    1:   10    8:   11
           5       1:   12   11:   24    1:    4
           6       1:   12    1:   10    1:    4
           7       1:   12   11:   24   12:   36
           8       1:   12    1:   10    5:    7
New grid distribution:   3
           1       1:   12   13:   24    8:   14
           2       1:   12    1:   12    8:   14
           3       1:   12    1:   11   15:   29
           4       1:   12   13:   24    1:    7
           5       1:   12    1:   12    1:    7
           6       1:   12    1:   11   30:   36
           7       1:   12   12:   24   15:   29
           8       1:   12   12:   24   30:   36
Setting up quadratic distribution...
ExtMesh (bp) on 0 =    56 x    58 x    48 =      155904
PhiOnMesh: Number of (b)points on node 0 =                  672
PhiOnMesh: nlist on node 0 =                47318

   scf: iscf   Eharris(eV)      E_KS(eV)   FreeEng(eV)    dDmax  Ef(eV)
   scf:    1     -703.7866     -703.7866     -703.7866  0.00041 -4.2401
   scf:    2     -703.7867     -703.7866     -703.7866  0.00223 -4.2403
   scf:    3     -703.7866     -703.7866     -703.7866  0.00005 -4.2406

SCF Convergence by dMax criterion
max |DM_out - DM_in|:     0.00004616
SCF cycle converged after    3 iterations

Using DM_out to compute the final energy and forces

siesta: E_KS(eV) =             -703.7866

siesta: Atomic forces (eV/Ang):
     1   -0.000417    0.010490   -0.016412
     2    0.001256    0.043229   -0.042630
     3    0.000019    0.059255    0.000206
     4    0.000812   -0.007054    0.000953
     5    0.000077    0.398456    0.492029
     6   -0.000011   -0.428101   -0.762722
     7   -0.302850   -0.135045    0.204406
     8    0.302763   -0.134811    0.204502
     9   -0.218096    0.083712   -0.030012
    10    0.218077    0.083247   -0.029991
----------------------------------------
   Tot    0.001630   -0.026622    0.020328
----------------------------------------
   Max    0.762722
   Res    0.230055    sqrt( Sum f_i^2 / 3N )
----------------------------------------
   Max    0.059255    constrained

Stress-tensor-Voigt (kbar):      -54.49       19.23       -2.18       -0.01        1.61        0.01
(Free)E + p*V (eV/cell)     -701.1850
Target enthalpy (eV/cell)     -703.7866

siesta: Stress tensor (static) (eV/Ang**3):
        -0.034009   -0.000007    0.000005
        -0.000007    0.012011    0.001005
         0.000005    0.001005   -0.001344

siesta: Pressure (static):         12.46656448  kBar

siesta: Stress tensor (total) (eV/Ang**3):
        -0.034009   -0.000007    0.000005
        -0.000007    0.012003    0.001005
         0.000005    0.001004   -0.001359

siesta: Pressure (total):         12.47840173  kBar

outcoor: Relaxed atomic coordinates (scaled):               
    0.00009366    0.28952684    0.18170665   1       1  Si
   -0.00006729    0.86284955    0.00963613   1       2  Si
    0.50009531   -0.00332376    0.34228821   1       3  Si
    0.49993636    0.98567095    0.34844490   1       4  Si
    0.50000000    0.50000000    0.70710000   1       5  Si
    0.50000000    1.50000000    0.70710000   1       6  Si
    0.20200000    0.50000000    0.95470000   2       7  H
    0.79800000    0.50000000    0.95470000   2       8  H
    0.20200000    1.50000000    0.95470000   2       9  H
    0.79800000    1.50000000    0.95470000   2      10  H

coxmol: Writing XMOL coordinates into file si2x1h-quench.xyz                                               

siesta: Program's energy decomposition (eV):
siesta: Ebs     =      -267.441667
siesta: Eions   =      1221.235657
siesta: Ena     =       369.736813
siesta: Ekin    =       304.560192
siesta: Enl     =        70.107674
siesta: DEna    =         1.145584
siesta: DUscf   =         2.201442
siesta: DUext   =         0.000000
siesta: Exc     =      -230.302683
siesta: eta*DQ  =         0.000000
siesta: Emadel  =         0.000000
siesta: Emeta   =         0.000000
siesta: Emolmec =         0.000000
siesta: Ekinion =         0.003729
siesta: Eharris =      -703.782906
siesta: Etot    =      -703.782906
siesta: FreeEng =      -703.782906

siesta: Final energy (eV):
siesta:  Band Struct. =    -267.441667
siesta:       Kinetic =     304.560192
siesta:       Hartree =     888.507989
siesta:    Ext. field =       0.000000
siesta:   Exch.-corr. =    -230.302683
siesta:  Ion-electron =   -2048.664895
siesta:       Ion-ion =     382.112763
siesta:       Ekinion =       0.003729
siesta:         Total =    -703.782906

siesta: Atomic forces (eV/Ang):
siesta:      1   -0.000417    0.010490   -0.016412
siesta:      2    0.001256    0.043229   -0.042630
siesta:      3    0.000019    0.059255    0.000206
siesta:      4    0.000812   -0.007054    0.000953
siesta:      5    0.000077    0.398456    0.492029
siesta:      6   -0.000011   -0.428101   -0.762722
siesta:      7   -0.302850   -0.135045    0.204406
siesta:      8    0.302763   -0.134811    0.204502
siesta:      9   -0.218096    0.083712   -0.030012
siesta:     10    0.218077    0.083247   -0.029991
siesta: ----------------------------------------
siesta:    Tot    0.001630   -0.026622    0.020328

siesta: Stress tensor (static) (eV/Ang**3):
siesta:    -0.034009   -0.000007    0.000005
siesta:    -0.000007    0.012011    0.001005
siesta:     0.000005    0.001005   -0.001344

siesta: Cell volume =        334.037723 Ang**3

siesta: Pressure (static):
siesta:                Solid            Molecule  Units
siesta:           0.00008474          0.00007794  Ry/Bohr**3
siesta:           0.00778093          0.00715643  eV/Ang**3
siesta:          12.46656448         11.46598703  kBar
(Free)E+ p_basis*V_orbitals  =        -699.077403
(Free)Eharris+ p_basis*V_orbitals  =        -699.077404

siesta: Electric dipole (a.u.)  =   -0.000000   -0.000000    0.047860
siesta: Electric dipole (Debye) =   -0.000000   -0.000000    0.121647
>> End of run:  10-JUN-2018  22:03:32
Job completed
