Siesta Version: siesta-trunk-479
Architecture  : atto-intel12-openmpi
Compiler flags: /share/apps/openmpi-1.6.5-intel/bin/mpif90 -w  -O2 -mp
PP flags      : -DCDF -DMPI 
PARALLEL version
NetCDF support

* Running on    4 nodes in parallel
>> Start of run:  26-NOV-2015  14:32:56

                           ***********************       
                           *  WELCOME TO SIESTA  *       
                           ***********************       

reinit: Reading from standard input
************************** Dump of input data file ****************************
# Si(100) - asymmetric 2x1 reconstruction
# Oscar Paz
SystemName              Si(100)-2x1 3 layers (H-saturated)
SystemLabel             si2x1h
NumberOfAtoms           10
NumberOfSpecies 2
%block ChemicalSpeciesLabel
        1       14      Si
        2       1       H
%endblock ChemicalSpeciesLabel
PAO.BasisType           split
PAO.BasisSize           DZP
PAO.EnergyShift 200 meV
PAO.SplitNorm           0.30
LatticeConstant 3.8184 Ang      # a_s = a_0 / sqrt(2) , a_0 = 5.40 Ang
%block LatticeParameters
        1.      2.      3.      90.     90.     90.
%endblock LatticeParameters
AtomicCoordinatesFormat ScaledCartesian
%block AtomicCoordinatesAndAtomicSpecies
   -0.00002372    0.29326368    0.19010387   1  Si        1
    0.00001337    0.85385554    0.02205212   1  Si        2
    0.49997747   -0.00525118    0.33008893   1  Si        3
    0.50001096    0.97940531    0.34402895   1  Si        4
    0.50000000    0.50000000    0.70710000   1  Si        5
    0.50000000    1.50000000    0.70710000   1  Si        6
    0.20200000    0.50000000    0.95470000   2  H         7
    0.79800000    0.50000000    0.95470000   2  H         8
    0.20200000    1.50000000    0.95470000   2  H         9
    0.79800000    1.50000000    0.95470000   2  H        10
%endblock AtomicCoordinatesAndAtomicSpecies
%block GeometryConstraints
        position from 5 to 10
%endblock GeometryConstraints
kgrid_cutoff            5.0 Ang
XC.functional           LDA
XC.authors              PZ
MeshCutoff              10. Ry
DM.MixingWeight 0.1
DM.NumberPulay  3
SolutionMethod  diagon
MD.TypeOfRun            CG
MD.NumCGsteps           50
MD.MaxCGDispl           0.02 Ang
MD.MaxForceTol  0.02 eV/Ang
WriteCoorStep           .true.
WriteForces             .true.
WriteMullikenPop        1
WriteCoorXmol           .true.
WriteMDXmol             .true.
WriteMDhistory          .true.
DM.UseSaveDM            .true.
MD.UseSaveXV            .true.
MD.UseSaveCG            .true.
SaveRho                 .true.
SaveDeltaRho            .true.
SaveIonicCharge         .true.
SaveElectrostaticPotential      .true.
SaveTotalPotential      .true.
************************** End of input data file *****************************

reinit: -----------------------------------------------------------------------
reinit: System Name: Si(100)-2x1 3 layers (H-saturated
reinit: -----------------------------------------------------------------------
reinit: System Label: si2x1h                                                      
reinit: -----------------------------------------------------------------------

initatom: Reading input for the pseudopotentials and atomic orbitals ----------
 Species number:            1  Label: Si Atomic number:          14
 Species number:            2  Label: H Atomic number:           1
Ground state valence configuration:   3s02  3p02
Reading pseudopotential information in formatted form from Si.psf

Valence configuration for pseudopotential generation:
3s( 2.00) rc: 1.89
3p( 2.00) rc: 1.89
3d( 0.00) rc: 1.89
4f( 0.00) rc: 1.89
Ground state valence configuration:   1s01
Reading pseudopotential information in formatted form from H.psf

Valence configuration for pseudopotential generation:
1s( 1.00) rc: 1.25
2p( 0.00) rc: 1.25
3d( 0.00) rc: 1.25
4f( 0.00) rc: 1.25
For Si, standard SIESTA heuristics set lmxkb to 3
 (one more than the basis l, including polarization orbitals).
Use PS.lmax or PS.KBprojectors blocks to override.
For H, standard SIESTA heuristics set lmxkb to 2
 (one more than the basis l, including polarization orbitals).
Use PS.lmax or PS.KBprojectors blocks to override.

<basis_specs>
===============================================================================
Si                   Z=  14    Mass=  28.090        Charge= 0.17977+309
Lmxo=1 Lmxkb= 3    BasisType=split      Semic=F
L=0  Nsemic=0  Cnfigmx=3
          n=1  nzeta=2  polorb=0
            splnorm:   0.30000    
               vcte:    0.0000    
               rinn:    0.0000    
               qcoe:    0.0000    
               qyuk:    0.0000    
               qwid:   0.10000E-01
                rcs:    0.0000      0.0000    
            lambdas:   1.00000     1.00000    
L=1  Nsemic=0  Cnfigmx=3
          n=1  nzeta=2  polorb=1
            splnorm:   0.30000    
               vcte:    0.0000    
               rinn:    0.0000    
               qcoe:    0.0000    
               qyuk:    0.0000    
               qwid:   0.10000E-01
                rcs:    0.0000      0.0000    
            lambdas:   1.00000     1.00000    
-------------------------------------------------------------------------------
L=0  Nkbl=1  erefs: 0.17977+309
L=1  Nkbl=1  erefs: 0.17977+309
L=2  Nkbl=1  erefs: 0.17977+309
L=3  Nkbl=1  erefs: 0.17977+309
===============================================================================
</basis_specs>

atom: Called for Si                    (Z =  14)

read_vps: Pseudopotential generation method:
read_vps: ATM3      Troullier-Martins                       
Total valence charge:    4.00000

xc_check: Exchange-correlation functional:
xc_check: Ceperley-Alder
V l=0 = -2*Zval/r beyond r=  2.5494
V l=1 = -2*Zval/r beyond r=  2.5494
V l=2 = -2*Zval/r beyond r=  2.5494
V l=3 = -2*Zval/r beyond r=  2.5494
All V_l potentials equal beyond r=  1.8652
This should be close to max(r_c) in ps generation
All pots = -2*Zval/r beyond r=  2.5494
Using large-core scheme for Vlocal

atom: Estimated core radius    2.54944

atom: Including non-local core corrections could be a good idea
atom: Maximum radius for 4*pi*r*r*local-pseudopot. charge    2.85303
atom: Maximum radius for r*vlocal+2*Zval:    2.58151
GHOST: No ghost state for L =  0
GHOST: No ghost state for L =  1
GHOST: No ghost state for L =  2
GHOST: No ghost state for L =  3

KBgen: Kleinman-Bylander projectors: 
   l= 0   rc=  1.936440   el= -0.796617   Ekb=  4.661340   kbcos=  0.299756
   l= 1   rc=  1.936440   el= -0.307040   Ekb=  1.494238   kbcos=  0.301471
   l= 2   rc=  1.936440   el=  0.002313   Ekb= -2.808672   kbcos= -0.054903
   l= 3   rc=  1.936440   el=  0.003402   Ekb= -0.959059   kbcos= -0.005513

KBgen: Total number of  Kleinman-Bylander projectors:   16
atom: -------------------------------------------------------------------------

atom: SANKEY-TYPE ORBITALS:
atom: Selected multiple-zeta basis: split     

SPLIT: Orbitals with angular momentum L= 0

SPLIT: Basis orbitals for state 3s

SPLIT: PAO cut-off radius determined from an
SPLIT: energy shift=  0.014700 Ry

   izeta = 1
                 lambda =    1.000000
                     rc =    5.264094
                 energy =   -0.784048
                kinetic =    0.554443
    potential(screened) =   -1.338491
       potential(ionic) =   -3.803943

   izeta = 2
                 rmatch =    3.899691
              splitnorm =    0.300000
                 energy =   -0.557333
                kinetic =    1.099884
    potential(screened) =   -1.657217
       potential(ionic) =   -4.272900

SPLIT: Orbitals with angular momentum L= 1

SPLIT: Basis orbitals for state 3p

SPLIT: PAO cut-off radius determined from an
SPLIT: energy shift=  0.014700 Ry

   izeta = 1
                 lambda =    1.000000
                     rc =    6.429618
                 energy =   -0.291747
                kinetic =    0.864936
    potential(screened) =   -1.156682
       potential(ionic) =   -3.408656

   izeta = 2
                 rmatch =    4.309843
              splitnorm =    0.300000
                 energy =   -0.094863
                kinetic =    1.512251
    potential(screened) =   -1.607114
       potential(ionic) =   -4.136814

POLgen: Perturbative polarization orbital with L=  2

POLgen: Polarization orbital for state 3p

   izeta = 1
                     rc =    6.429618
                 energy =    0.416453
                kinetic =    1.265989
    potential(screened) =   -0.849535
       potential(ionic) =   -2.900468
atom: Total number of Sankey-type orbitals: 13

atm_pop: Valence configuration (for local Pseudopot. screening):
 3s( 2.00)                                                            
 3p( 2.00)                                                            
Vna: chval, zval:    4.00000   4.00000

Vna:  Cut-off radius for the neutral-atom potential:   6.429618

atom: _________________________________________________________________________

<basis_specs>
===============================================================================
H                    Z=   1    Mass=  1.0100        Charge= 0.17977+309
Lmxo=0 Lmxkb= 2    BasisType=split      Semic=F
L=0  Nsemic=0  Cnfigmx=1
          n=1  nzeta=2  polorb=1
            splnorm:   0.30000    
               vcte:    0.0000    
               rinn:    0.0000    
               qcoe:    0.0000    
               qyuk:    0.0000    
               qwid:   0.10000E-01
                rcs:    0.0000      0.0000    
            lambdas:   1.00000     1.00000    
-------------------------------------------------------------------------------
L=0  Nkbl=1  erefs: 0.17977+309
L=1  Nkbl=1  erefs: 0.17977+309
L=2  Nkbl=1  erefs: 0.17977+309
===============================================================================
</basis_specs>

atom: Called for H                     (Z =   1)

read_vps: Pseudopotential generation method:
read_vps: ATM3      Troullier-Martins                       
Total valence charge:    1.00000

xc_check: Exchange-correlation functional:
xc_check: Ceperley-Alder
V l=0 = -2*Zval/r beyond r=  1.2343
V l=1 = -2*Zval/r beyond r=  1.2189
V l=2 = -2*Zval/r beyond r=  1.2189
All V_l potentials equal beyond r=  1.2343
This should be close to max(r_c) in ps generation
All pots = -2*Zval/r beyond r=  1.2343

VLOCAL1: 99.0% of the norm of Vloc inside     28.493 Ry
VLOCAL1: 99.9% of the norm of Vloc inside     64.935 Ry
atom: Maximum radius for 4*pi*r*r*local-pseudopot. charge    1.45251
atom: Maximum radius for r*vlocal+2*Zval:    1.21892
GHOST: No ghost state for L =  0
GHOST: No ghost state for L =  1
GHOST: No ghost state for L =  2

KBgen: Kleinman-Bylander projectors: 
   l= 0   rc=  1.364359   el= -0.467325   Ekb= -2.005361   kbcos= -0.336422
   l= 1   rc=  1.434438   el=  0.001430   Ekb= -0.501708   kbcos= -0.021697
   l= 2   rc=  1.470814   el=  0.002365   Ekb= -0.190555   kbcos= -0.002281

KBgen: Total number of  Kleinman-Bylander projectors:    9
atom: -------------------------------------------------------------------------

atom: SANKEY-TYPE ORBITALS:
atom: Selected multiple-zeta basis: split     

SPLIT: Orbitals with angular momentum L= 0

SPLIT: Basis orbitals for state 1s

SPLIT: PAO cut-off radius determined from an
SPLIT: energy shift=  0.014700 Ry

   izeta = 1
                 lambda =    1.000000
                     rc =    5.075940
                 energy =   -0.454238
                kinetic =    0.905976
    potential(screened) =   -1.360214
       potential(ionic) =   -1.894198

   izeta = 2
                 rmatch =    3.195439
              splitnorm =    0.300000
                 energy =   -0.202816
                kinetic =    1.888421
    potential(screened) =   -2.091238
       potential(ionic) =   -2.676134

POLgen: Perturbative polarization orbital with L=  1

POLgen: Polarization orbital for state 1s

   izeta = 1
                     rc =    5.075940
                 energy =    0.658058
                kinetic =    1.324347
    potential(screened) =   -0.666290
       potential(ionic) =   -1.141575
atom: Total number of Sankey-type orbitals:  5

atm_pop: Valence configuration (for local Pseudopot. screening):
 1s( 1.00)                                                            
Vna: chval, zval:    1.00000   1.00000

Vna:  Cut-off radius for the neutral-atom potential:   5.075940

atom: _________________________________________________________________________

prinput: Basis input ----------------------------------------------------------

PAO.BasisType split     

%block ChemicalSpeciesLabel
    1   14 Si                      # Species index, atomic number, species label
    2    1 H                       # Species index, atomic number, species label
%endblock ChemicalSpeciesLabel

%block PAO.Basis                 # Define Basis set
Si                    2                    # Species label, number of l-shells
 n=3   0   2                         # n, l, Nzeta 
   5.264      3.900   
   1.000      1.000   
 n=3   1   2 P   1                   # n, l, Nzeta, Polarization, NzetaPol
   6.430      4.310   
   1.000      1.000   
H                     1                    # Species label, number of l-shells
 n=1   0   2 P   1                   # n, l, Nzeta, Polarization, NzetaPol
   5.076      3.195   
   1.000      1.000   
%endblock PAO.Basis

prinput: ----------------------------------------------------------------------

Dumping basis to NetCDF file Si.ion.nc
Dumping basis to NetCDF file H.ion.nc
coor:   Atomic-coordinates input format  =     Cartesian coordinates
coor:                                          (in units of alat)

siesta: WARNING: XV file not found

siesta: Atomic coordinates (Bohr) and species
siesta:     -0.00017   2.11611   1.37174  1        1
siesta:      0.00010   6.16119   0.15912  1        2
siesta:      3.60770  -0.03789   2.38183  1        3
siesta:      3.60795   7.06713   2.48242  1        4
siesta:      3.60787   3.60787   5.10224  1        5
siesta:      3.60787  10.82360   5.10224  1        6
siesta:      1.45758   3.60787   6.88886  2        7
siesta:      5.75816   3.60787   6.88886  2        8
siesta:      1.45758  10.82360   6.88886  2        9
siesta:      5.75816  10.82360   6.88886  2       10

siesta: System type = slab      

initatomlists: Number of atoms, orbitals, and projectors:     10    98   132

coxmol: Writing XMOL coordinates into file si2x1h.xyz                                                      

siesta: ******************** Simulation parameters ****************************
siesta:
siesta: The following are some of the parameters of the simulation.
siesta: A complete list of the parameters used, including default values,
siesta: can be found in file out.fdf
siesta:
redata: Non-Collinear-spin run           =     F
redata: SpinPolarized (Up/Down) run      =     F
redata: Number of spin components        =     1
redata: Long output                      =     F
redata: Number of Atomic Species         =        2
redata: Charge density info will appear in .RHO file
redata: Write Mulliken Pop.              =     Atomic and Orbital charges
redata: Mesh Cutoff                      =    10.0000  Ry
redata: Net charge of the system         =     0.0000 |e|
redata: Min. number of SCF Iter          =        0
redata: Max. number of SCF Iter          =       50
redata: Mix DM or H after convergence    =     F
redata: Recompute H after scf cycle      =     F
redata: Performing Pulay mixing using    =     3 iterations
redata: Mix DM in first SCF step ?       =     F
redata: Write Pulay info on disk?        =     F
redata: Discard 1st Pulay DM after  kick =     F
redata: New DM Mixing Weight             =     0.1000
redata: New DM Occupancy tolerance       = 0.000000000001
redata: No kicks to SCF
redata: DM Mixing Weight for Kicks       =     0.5000
redata: DM Tolerance for SCF             =     0.000100
redata: Require (free) Energy convergence in SCF =     F
redata: DM (free)Energy tolerance for SCF =     0.000010 eV
redata: Require Harris convergence for SCF =     F
redata: DM Harris energy tolerance for SCF =     0.000010 eV
redata: Using Saved Data (generic)   =     F
redata: Use continuation files for DM    =     T
redata: Neglect nonoverlap interactions  =     F
redata: Method of Calculation            =     Diagonalization
redata: Divide and Conquer               =     T
redata: Electronic Temperature           =     0.0019  Ry
redata: Fix the spin of the system       =     F
redata: Dynamics option                  =     CG coord. optimization
redata: Variable cell                    =     F
redata: Use continuation files for CG    =     T
redata: Max atomic displ per move        =     0.0378  Bohr
redata: Maximum number of CG moves       =       50
redata: Force tolerance                  =     0.0008  Ry/Bohr
redata: ***********************************************************************
Total number of electrons:    28.000000
Total ionic charge:    28.000000

* ProcessorY, Blocksize:    2  24


* Orbital distribution balance (max,min):    26    24

 Kpoints in:            3 . Kpoints trimmed:            3

siesta: k-grid: Number of k-points =     3
siesta: k-grid: Cutoff (effective) =     5.728 Ang
siesta: k-grid: Supercell and displacements
siesta: k-grid:    3   0   0      0.000
siesta: k-grid:    0   2   0      0.500
siesta: k-grid:    0   0   1      0.000
Naive supercell factors:     5    3    2

superc: Internal auxiliary supercell:     5 x     3 x     2  =      30
superc: Number of atoms, orbitals, and projectors:    300   2940   3960

                     ====================================
                        Begin CG opt. move =      0
                     ====================================

outcoor: Atomic coordinates (scaled):                       
   -0.00002372    0.29326368    0.19010387   1       1  Si
    0.00001337    0.85385554    0.02205212   1       2  Si
    0.49997747   -0.00525118    0.33008893   1       3  Si
    0.50001096    0.97940531    0.34402895   1       4  Si
    0.50000000    0.50000000    0.70710000   1       5  Si
    0.50000000    1.50000000    0.70710000   1       6  Si
    0.20200000    0.50000000    0.95470000   2       7  H
    0.79800000    0.50000000    0.95470000   2       8  H
    0.20200000    1.50000000    0.95470000   2       9  H
    0.79800000    1.50000000    0.95470000   2      10  H

superc: Internal auxiliary supercell:     5 x     3 x     2  =      30
superc: Number of atoms, orbitals, and projectors:    300   2940   3960

outcell: Unit cell vectors (Ang):
        3.818400    0.000000    0.000000
        0.000000    7.636800    0.000000
        0.000000    0.000000   11.455200

outcell: Cell vector modules (Ang)   :    3.818400    7.636800   11.455200
outcell: Cell angles (23,13,12) (deg):     90.0000     90.0000     90.0000
outcell: Cell volume (Ang**3)        :    334.0377
New_DM. Step:     1
Initializing Density Matrix...
New grid distribution:   1
           1       1:    4    1:    4    1:    6
           2       1:    4    1:    4    7:   12
           3       1:    4    5:    8    1:    6
           4       1:    4    5:    8    7:   12

InitMesh: MESH =     8 x    16 x    24 =        3072
InitMesh: (bp) =     4 x     8 x    12 =         384
InitMesh: Mesh cutoff (required, used) =    10.000    12.132 Ry
ExtMesh (bp) on 0 =    20 x    20 x    22 =        8800
New grid distribution:   2
           1       1:    4    1:    3    1:    3
           2       1:    4    1:    3    4:   12
           3       1:    4    4:    8    1:    3
           4       1:    4    4:    8    4:   12
New grid distribution:   3
           1       1:    4    1:    4    1:    5
           2       1:    4    1:    4    6:   12
           3       1:    4    5:    8    1:    5
           4       1:    4    5:    8    6:   12
Setting up quadratic distribution...
ExtMesh (bp) on 0 =    20 x    19 x    19 =        7220
PhiOnMesh: Number of (b)points on node 0 =                   36
PhiOnMesh: nlist on node 0 =                 3428

stepf: Fermi-Dirac step function

siesta: Program's energy decomposition (eV):
siesta: Ebs     =      -285.675438
siesta: Eions   =      1221.235657
siesta: Ena     =       369.290948
siesta: Ekin    =       281.018022
siesta: Enl     =        93.471874
siesta: DEna    =         0.000002
siesta: DUscf   =         0.000000
siesta: DUext   =         0.000000
siesta: Exc     =      -224.373704
siesta: eta*DQ  =         0.000000
siesta: Emadel  =         0.000000
siesta: Emeta   =         0.000000
siesta: Emolmec =         0.000000
siesta: Ekinion =         0.000000
siesta: Eharris =      -705.216122
siesta: Etot    =      -701.828515
siesta: FreeEng =      -701.828515

   scf: iscf   Eharris(eV)      E_KS(eV)   FreeEng(eV)    dDmax  Ef(eV)
   scf:    1     -705.2161     -701.8285     -701.8285  1.77260 -4.5501
timer: Routine,Calls,Time,% =    IterSCF     1       0.110   3.78
   scf:    2     -707.4474     -702.4162     -702.4401  0.30286 -4.3365
   scf:    3     -704.2662     -702.7593     -702.7593  0.18266 -4.4162
   scf:    4     -704.0305     -702.8821     -702.8821  0.07772 -4.3165
   scf:    5     -703.8702     -703.0438     -703.0438  0.07475 -4.2280
   scf:    6     -703.8066     -703.3380     -703.3380  0.02687 -4.1783
   scf:    7     -703.8032     -703.4407     -703.4407  0.01683 -4.1818
   scf:    8     -703.7938     -703.5792     -703.5792  0.02157 -4.2202
   scf:    9     -703.7926     -703.6126     -703.6126  0.01939 -4.2283
   scf:   10     -703.7931     -703.6784     -703.6784  0.01021 -4.2406
   scf:   11     -703.7929     -703.7015     -703.7015  0.00672 -4.2386
   scf:   12     -703.7925     -703.7159     -703.7159  0.00594 -4.2336
   scf:   13     -703.7923     -703.7269     -703.7269  0.00362 -4.2287
   scf:   14     -703.7923     -703.7373     -703.7373  0.00284 -4.2287
   scf:   15     -703.7922     -703.7536     -703.7536  0.00286 -4.2338
   scf:   16     -703.7921     -703.7604     -703.7604  0.00268 -4.2364
   scf:   17     -703.7921     -703.7726     -703.7726  0.00161 -4.2398
   scf:   18     -703.7921     -703.7771     -703.7771  0.00100 -4.2393
   scf:   19     -703.7921     -703.7812     -703.7812  0.00070 -4.2373
   scf:   20     -703.7921     -703.7826     -703.7826  0.00054 -4.2362
   scf:   21     -703.7921     -703.7840     -703.7840  0.00044 -4.2361
   scf:   22     -703.7921     -703.7854     -703.7854  0.00041 -4.2371
   scf:   23     -703.7921     -703.7865     -703.7865  0.00039 -4.2377
   scf:   24     -703.7921     -703.7885     -703.7885  0.00025 -4.2382
   scf:   25     -703.7921     -703.7894     -703.7894  0.00019 -4.2380
   scf:   26     -703.7921     -703.7903     -703.7903  0.00010 -4.2375

SCF Convergence by dMax criterion
max |DM_out - DM_in|:     0.00009785
SCF cycle converged after   26 iterations

Using DM_out to compute the final energy and forces

siesta: E_KS(eV) =             -703.7921

siesta: E_KS - E_eggbox =      -703.7921

siesta: Atomic forces (eV/Ang):
     1   -0.000508    0.010369   -0.006389
     2    0.000226   -0.034642    0.008776
     3   -0.000529   -0.014159    0.009346
     4    0.000231    0.001237    0.003657
     5   -0.000064    0.066345    0.370176
     6   -0.000024   -0.367775   -0.941940
     7    2.226251   -0.102832    0.974199
     8   -2.226229   -0.102864    0.974155
     9    2.315097    0.075749    0.677302
    10   -2.315085    0.075830    0.677278
----------------------------------------
   Tot   -0.000635   -0.392742    2.746560
----------------------------------------
   Max    2.315097
   Res    0.906373    sqrt( Sum f_i^2 / 3N )
----------------------------------------
   Max    0.034642    constrained

Stress-tensor-Voigt (kbar):      -63.38       -2.72       17.76        0.00        2.87        0.00
(Free)E + p*V (eV/cell)     -700.4329
Target enthalpy (eV/cell)     -703.7921
 
mulliken: Atomic and Orbital Populations:

Species: Si                  
Atom  Qatom  Qorb
               3s      3s      3py     3pz     3px     3py     3pz     3px     
               3Pdxy   3Pdyz   3Pdz2   3Pdxz   3Pdx2-y2
   1  3.924   0.821   0.374   0.552   0.568   0.519   0.262   0.099   0.221
              0.166   0.079   0.049   0.105   0.109
   2  4.252   0.902   0.330   0.797   0.981   0.731   0.058   0.028   0.120
              0.057   0.044   0.035   0.072   0.095
   3  3.978   0.756   0.362   0.585   0.751   0.559   0.187   0.147   0.226
              0.106   0.090   0.049   0.050   0.110
   4  3.860   0.750   0.362   0.542   0.616   0.492   0.201   0.204   0.260
              0.067   0.092   0.058   0.109   0.107
   5  3.861   0.624   0.412   0.623   0.546   0.571   0.120   0.229   0.225
              0.044   0.076   0.038   0.228   0.125
   6  3.868   0.632   0.389   0.700   0.642   0.693   0.112   0.179   0.179
              0.036   0.080   0.029   0.109   0.088

Species: H                   
Atom  Qatom  Qorb
               1s      1s      1Ppy    1Ppz    1Ppx    
   7  1.076   0.540   0.418   0.012   0.016   0.090
   8  1.076   0.540   0.418   0.012   0.016   0.090
   9  1.053   0.489   0.447   0.013   0.015   0.089
  10  1.053   0.489   0.447   0.013   0.015   0.089

mulliken: Qtot =       28.000

cgvc: WARNING: CG file not found

                     ====================================
                        Begin CG opt. move =      1
                     ====================================

outcoor: Atomic coordinates (scaled):                       
   -0.00008769    0.29456995    0.18929901   1       1  Si
    0.00004182    0.84949160    0.02315761   1       2  Si
    0.49991079   -0.00703486    0.33126629   1       3  Si
    0.50004003    0.97956111    0.34448960   1       4  Si
    0.50000000    0.50000000    0.70710000   1       5  Si
    0.50000000    1.50000000    0.70710000   1       6  Si
    0.20200000    0.50000000    0.95470000   2       7  H
    0.79800000    0.50000000    0.95470000   2       8  H
    0.20200000    1.50000000    0.95470000   2       9  H
    0.79800000    1.50000000    0.95470000   2      10  H

superc: Internal auxiliary supercell:     5 x     3 x     2  =      30
superc: Number of atoms, orbitals, and projectors:    300   2940   3960

outcell: Unit cell vectors (Ang):
        3.818400    0.000000    0.000000
        0.000000    7.636800    0.000000
        0.000000    0.000000   11.455200

outcell: Cell vector modules (Ang)   :    3.818400    7.636800   11.455200
outcell: Cell angles (23,13,12) (deg):     90.0000     90.0000     90.0000
outcell: Cell volume (Ang**3)        :    334.0377
New_DM. Step:     2
Re-using DM from previous geometry...
Re-using DM without extrapolation (not allowed)
New grid distribution:   1
           1       1:    4    1:    4    1:    6
           2       1:    4    1:    4    7:   12
           3       1:    4    5:    8    1:    6
           4       1:    4    5:    8    7:   12

InitMesh: MESH =     8 x    16 x    24 =        3072
InitMesh: (bp) =     4 x     8 x    12 =         384
InitMesh: Mesh cutoff (required, used) =    10.000    12.132 Ry
ExtMesh (bp) on 0 =    20 x    20 x    22 =        8800
New grid distribution:   2
           1       1:    4    1:    3    1:    3
           2       1:    4    1:    3    4:   12
           3       1:    4    4:    8    1:    3
           4       1:    4    4:    8    4:   12
New grid distribution:   3
           1       1:    4    1:    4    1:    5
           2       1:    4    1:    4    6:   12
           3       1:    4    5:    8    1:    5
           4       1:    4    5:    8    6:   12
Setting up quadratic distribution...
ExtMesh (bp) on 0 =    20 x    19 x    19 =        7220
PhiOnMesh: Number of (b)points on node 0 =                   36
PhiOnMesh: nlist on node 0 =                 3421

   scf: iscf   Eharris(eV)      E_KS(eV)   FreeEng(eV)    dDmax  Ef(eV)
   scf:    1     -703.7891     -703.8188     -703.8188  0.01691 -4.2143
   scf:    2     -703.8186     -703.7807     -703.7807  0.07573 -4.2634
   scf:    3     -703.7876     -703.8092     -703.8092  0.00479 -4.2328
   scf:    4     -703.7876     -703.7934     -703.7934  0.00466 -4.2294
   scf:    5     -703.7876     -703.7882     -703.7882  0.00100 -4.2356
   scf:    6     -703.7875     -703.7875     -703.7875  0.00078 -4.2245
   scf:    7     -703.7875     -703.7868     -703.7868  0.00027 -4.2234
   scf:    8     -703.7875     -703.7873     -703.7873  0.00018 -4.2237
   scf:    9     -703.7875     -703.7876     -703.7876  0.00011 -4.2239
   scf:   10     -703.7875     -703.7876     -703.7876  0.00008 -4.2240

SCF Convergence by dMax criterion
max |DM_out - DM_in|:     0.00007610
SCF cycle converged after   10 iterations

Using DM_out to compute the final energy and forces

siesta: E_KS(eV) =             -703.7875

siesta: Atomic forces (eV/Ang):
     1   -0.002074   -0.339064    0.130696
     2    0.001069    0.320539   -0.097313
     3   -0.001696    0.199314   -0.077001
     4    0.000465   -0.049275   -0.048231
     5   -0.000301    0.036747    0.384557
     6   -0.000123   -0.393433   -0.909456
     7    2.228720   -0.100213    0.976240
     8   -2.228614   -0.100319    0.976044
     9    2.315724    0.072128    0.676418
    10   -2.315670    0.072450    0.676311
----------------------------------------
   Tot   -0.002499   -0.281125    2.688264
----------------------------------------
   Max    2.315724
   Res    0.911699    sqrt( Sum f_i^2 / 3N )
----------------------------------------
   Max    0.339064    constrained

Stress-tensor-Voigt (kbar):      -62.58       -4.82       16.81        0.00        4.64        0.00
(Free)E + p*V (eV/cell)     -700.2719
Target enthalpy (eV/cell)     -703.7875
 
mulliken: Atomic and Orbital Populations:

Species: Si                  
Atom  Qatom  Qorb
               3s      3s      3py     3pz     3px     3py     3pz     3px     
               3Pdxy   3Pdyz   3Pdz2   3Pdxz   3Pdx2-y2
   1  3.920   0.814   0.376   0.547   0.567   0.520   0.266   0.101   0.220
              0.167   0.081   0.049   0.105   0.109
   2  4.252   0.895   0.330   0.799   0.980   0.730   0.062   0.030   0.120
              0.058   0.045   0.035   0.072   0.095
   3  3.981   0.760   0.361   0.583   0.753   0.567   0.188   0.146   0.221
              0.105   0.090   0.049   0.049   0.108
   4  3.863   0.752   0.361   0.544   0.617   0.493   0.201   0.203   0.258
              0.067   0.092   0.058   0.109   0.106
   5  3.860   0.625   0.411   0.623   0.546   0.571   0.120   0.228   0.224
              0.044   0.076   0.038   0.228   0.126
   6  3.866   0.629   0.389   0.700   0.639   0.692   0.113   0.180   0.180
              0.036   0.080   0.030   0.109   0.088

Species: H                   
Atom  Qatom  Qorb
               1s      1s      1Ppy    1Ppz    1Ppx    
   7  1.076   0.541   0.418   0.012   0.016   0.090
   8  1.076   0.541   0.418   0.012   0.016   0.090
   9  1.053   0.489   0.447   0.012   0.015   0.089
  10  1.053   0.489   0.447   0.012   0.015   0.089

mulliken: Qtot =       28.000

                     ====================================
                        Begin CG opt. move =      2
                     ====================================

outcoor: Atomic coordinates (scaled):                       
   -0.00002879    0.29336720    0.19004009   1       1  Si
    0.00001562    0.85350970    0.02213973   1       2  Si
    0.49997219   -0.00539254    0.33018224   1       3  Si
    0.50001326    0.97941766    0.34406546   1       4  Si
    0.50000000    0.50000000    0.70710000   1       5  Si
    0.50000000    1.50000000    0.70710000   1       6  Si
    0.20200000    0.50000000    0.95470000   2       7  H
    0.79800000    0.50000000    0.95470000   2       8  H
    0.20200000    1.50000000    0.95470000   2       9  H
    0.79800000    1.50000000    0.95470000   2      10  H

superc: Internal auxiliary supercell:     5 x     3 x     2  =      30
superc: Number of atoms, orbitals, and projectors:    300   2940   3960

outcell: Unit cell vectors (Ang):
        3.818400    0.000000    0.000000
        0.000000    7.636800    0.000000
        0.000000    0.000000   11.455200

outcell: Cell vector modules (Ang)   :    3.818400    7.636800   11.455200
outcell: Cell angles (23,13,12) (deg):     90.0000     90.0000     90.0000
outcell: Cell volume (Ang**3)        :    334.0377
New_DM. Step:     3
Re-using DM from previous geometry...
Re-using DM without extrapolation (not allowed)
New grid distribution:   1
           1       1:    4    1:    4    1:    6
           2       1:    4    1:    4    7:   12
           3       1:    4    5:    8    1:    6
           4       1:    4    5:    8    7:   12

InitMesh: MESH =     8 x    16 x    24 =        3072
InitMesh: (bp) =     4 x     8 x    12 =         384
InitMesh: Mesh cutoff (required, used) =    10.000    12.132 Ry
ExtMesh (bp) on 0 =    20 x    20 x    22 =        8800
New grid distribution:   2
           1       1:    4    1:    3    1:    3
           2       1:    4    1:    3    4:   12
           3       1:    4    4:    8    1:    3
           4       1:    4    4:    8    4:   12
New grid distribution:   3
           1       1:    4    1:    4    1:    5
           2       1:    4    1:    4    6:   12
           3       1:    4    5:    8    1:    5
           4       1:    4    5:    8    6:   12
Setting up quadratic distribution...
ExtMesh (bp) on 0 =    20 x    19 x    19 =        7220
PhiOnMesh: Number of (b)points on node 0 =                   36
PhiOnMesh: nlist on node 0 =                 3429

   scf: iscf   Eharris(eV)      E_KS(eV)   FreeEng(eV)    dDmax  Ef(eV)
   scf:    1     -703.7936     -703.7626     -703.7626  0.01543 -4.2486
   scf:    2     -703.8205     -703.7864     -703.7864  0.08245 -4.2092
   scf:    3     -703.7922     -703.7701     -703.7701  0.00447 -4.2378
   scf:    4     -703.7923     -703.7862     -703.7862  0.00255 -4.2323
   scf:    5     -703.7922     -703.7904     -703.7904  0.00093 -4.2360
   scf:    6     -703.7922     -703.7910     -703.7910  0.00063 -4.2367
   scf:    7     -703.7922     -703.7912     -703.7912  0.00022 -4.2381
   scf:    8     -703.7922     -703.7913     -703.7913  0.00016 -4.2380
   scf:    9     -703.7922     -703.7916     -703.7916  0.00008 -4.2374

SCF Convergence by dMax criterion
max |DM_out - DM_in|:     0.00008113
SCF cycle converged after    9 iterations

Using DM_out to compute the final energy and forces

siesta: E_KS(eV) =             -703.7922

siesta: Atomic forces (eV/Ang):
     1   -0.000640   -0.018287    0.004878
     2    0.000288   -0.017574    0.006580
     3   -0.000609   -0.004455    0.003534
     4    0.000251   -0.002747   -0.001272
     5   -0.000083    0.063749    0.371476
     6   -0.000032   -0.369419   -0.939990
     7    2.226595   -0.102609    0.974766
     8   -2.226566   -0.102647    0.974709
     9    2.315401    0.075473    0.678082
    10   -2.315385    0.075572    0.678051
----------------------------------------
   Tot   -0.000780   -0.402943    2.750814
----------------------------------------
   Max    2.315401
   Res    0.906505    sqrt( Sum f_i^2 / 3N )
----------------------------------------
   Max    0.018287    constrained

Stress-tensor-Voigt (kbar):      -63.30       -2.91       17.76        0.00        2.92        0.00
(Free)E + p*V (eV/cell)     -700.4249
Target enthalpy (eV/cell)     -703.7922
 
mulliken: Atomic and Orbital Populations:

Species: Si                  
Atom  Qatom  Qorb
               3s      3s      3py     3pz     3px     3py     3pz     3px     
               3Pdxy   3Pdyz   3Pdz2   3Pdxz   3Pdx2-y2
   1  3.923   0.820   0.374   0.552   0.568   0.520   0.262   0.099   0.221
              0.166   0.079   0.049   0.105   0.109
   2  4.251   0.901   0.330   0.798   0.981   0.731   0.058   0.028   0.120
              0.057   0.044   0.035   0.072   0.095
   3  3.978   0.756   0.362   0.585   0.751   0.560   0.187   0.147   0.225
              0.106   0.090   0.049   0.050   0.110
   4  3.860   0.750   0.362   0.542   0.616   0.492   0.201   0.204   0.260
              0.067   0.092   0.058   0.109   0.107
   5  3.861   0.624   0.412   0.623   0.546   0.571   0.120   0.229   0.225
              0.044   0.076   0.038   0.228   0.125
   6  3.868   0.632   0.389   0.700   0.642   0.693   0.112   0.179   0.179
              0.036   0.080   0.029   0.109   0.088

Species: H                   
Atom  Qatom  Qorb
               1s      1s      1Ppy    1Ppz    1Ppx    
   7  1.076   0.540   0.418   0.012   0.016   0.090
   8  1.076   0.540   0.418   0.012   0.016   0.090
   9  1.053   0.489   0.447   0.013   0.015   0.089
  10  1.053   0.489   0.447   0.013   0.015   0.089

mulliken: Qtot =       28.000

outcoor: Relaxed atomic coordinates (scaled):               
   -0.00002879    0.29336720    0.19004009   1       1  Si
    0.00001562    0.85350970    0.02213973   1       2  Si
    0.49997219   -0.00539254    0.33018224   1       3  Si
    0.50001326    0.97941766    0.34406546   1       4  Si
    0.50000000    0.50000000    0.70710000   1       5  Si
    0.50000000    1.50000000    0.70710000   1       6  Si
    0.20200000    0.50000000    0.95470000   2       7  H
    0.79800000    0.50000000    0.95470000   2       8  H
    0.20200000    1.50000000    0.95470000   2       9  H
    0.79800000    1.50000000    0.95470000   2      10  H

coxmol: Writing XMOL coordinates into file si2x1h.xyz                                                      

siesta: Program's energy decomposition (eV):
siesta: Ebs     =      -268.378571
siesta: Eions   =      1221.235657
siesta: Ena     =       369.286402
siesta: Ekin    =       305.194888
siesta: Enl     =        70.736571
siesta: DEna    =         0.685933
siesta: DUscf   =         2.237165
siesta: DUext   =         0.000000
siesta: Exc     =      -230.697456
siesta: eta*DQ  =         0.000000
siesta: Emadel  =         0.000000
siesta: Emeta   =         0.000000
siesta: Emolmec =         0.000000
siesta: Ekinion =         0.000000
siesta: Eharris =      -703.792156
siesta: Etot    =      -703.792155
siesta: FreeEng =      -703.792155

siesta: Final energy (eV):
siesta:  Band Struct. =    -268.378571
siesta:       Kinetic =     305.194888
siesta:       Hartree =     896.097325
siesta:    Ext. field =       0.000000
siesta:   Exch.-corr. =    -230.697456
siesta:  Ion-electron =   -2064.897337
siesta:       Ion-ion =     390.510425
siesta:       Ekinion =       0.000000
siesta:         Total =    -703.792155

siesta: Atomic forces (eV/Ang):
siesta:      1   -0.000640   -0.018287    0.004878
siesta:      2    0.000288   -0.017574    0.006580
siesta:      3   -0.000609   -0.004455    0.003534
siesta:      4    0.000251   -0.002747   -0.001272
siesta:      5   -0.000083    0.063749    0.371476
siesta:      6   -0.000032   -0.369419   -0.939990
siesta:      7    2.226595   -0.102609    0.974766
siesta:      8   -2.226566   -0.102647    0.974709
siesta:      9    2.315401    0.075473    0.678082
siesta:     10   -2.315385    0.075572    0.678051
siesta: ----------------------------------------
siesta:    Tot   -0.000780   -0.402943    2.750814

siesta: Stress tensor (static) (eV/Ang**3):
siesta:    -0.039509    0.000001    0.000000
siesta:     0.000001   -0.001818    0.001825
siesta:     0.000000    0.001825    0.011086

siesta: Cell volume =        334.037723 Ang**3

siesta: Pressure (static):
siesta:                Solid            Molecule  Units
siesta:           0.00010979          0.00018153  Ry/Bohr**3
siesta:           0.01008053          0.01666751  eV/Ang**3
siesta:          16.15096834         26.70458389  kBar
(Free)E+ p_basis*V_orbitals  =        -699.082924
(Free)Eharris+ p_basis*V_orbitals  =        -699.082925

siesta: Electric dipole (a.u.)  =    0.000000   -0.000000   -0.021218
siesta: Electric dipole (Debye) =    0.000000   -0.000000   -0.053931

dhscf: Vacuum level (max, mean) =   -0.031094   -0.167917 eV
>> End of run:  26-NOV-2015  14:33:05
