Siesta Version  : siesta-4.0--578
Architecture    : x86_64-linux-n-62-25-35
Compiler version: GNU Fortran (GCC) 7.3.0
Compiler flags  : mpif90 -m64 -fPIC -O3 -march=native -ftree-vectorize -fexpensive-optimizationns -funroll-loops -fprefetch-loop-arrays -fno-second-underscore
PP flags        : -I/zdata/groups/common/nicpa/2018-feb/generic/build-tools/1.0/include -I/zdatta/groups/common/nicpa/2018-feb/generic/gcc/7.3.0/include -I/zdata/groups/common/nicpa/2018-feb/generic/gcc/7.3.0/include -I/zdata/groups/common/nicpa/2018-feb/XeonE5-2660v3/zlib/1.2.11/gnu-7.3.0/include -I/zdata/groups/common/nicpa/2018-feb/generic/numactl/2.0.11/include -I/zdata/groups/common/nicpa/2018-feb/XeonE5-2660v3/libxml2/2.9.7/gnu-7.3.0/include -I/zdata/groups/common/nicpa/2018-feb/XeonE5-2660v3/hwloc/1.11.9/gnu-7.3.0/include -I/zdata/groups/common/nicpa/2018-feb/XeonE5-2660v3/openmpi/3.0.0/gnu-7.3.0/include -I/zdata/groups/common/nicpa/2018-feb/XeonE5-2660v3/szip/2.1.1/gnu-7.3.0/include -I/zdata/groups/common/nicpa/2018-feb/XeonE5-2660v3/hdf5-serial/1.8.18/gnu-7.3.0/include -I/zdata/groups/common/nicpa/2018-feb/XeonE5-2660v3/netcdf-serial/4.6.0/gnu-7.3.0/include -I/zdata/groups/common/nicpa/2018-feb/XeonE5-2660v3/scalapack/204/gnu-7.3.0/include -I/zdata/groups/common/nicpa/2018-feb/XeonE5-2660v3/openblas/0.2.20/gnu-7.3.0/include -I/zdata/groups/common/nicpa/2018-feb/XeonE5-2660v3/elpa/2017.05.003/gnu-7.3.0/include -DSIESTA__ELPA -DMPI -D1 -DFC_HAVE_ABORT -DCDF -DSIESTA__MRRR 
PARALLEL version
NetCDF support

* Running on    8 nodes in parallel
>> Start of run:  10-JUN-2018  22:03:33

                           ***********************       
                           *  WELCOME TO SIESTA  *       
                           ***********************       

reinit: Reading from standard input
************************** Dump of input data file ****************************
# -----------------------------------------------------------------------------
# FDF for a cubic c-Si supercell with 64 atoms
#
# E. Artacho, April 1999
# -----------------------------------------------------------------------------
SystemName          64-atom silicon
SystemLabel         si64
NumberOfAtoms       64
NumberOfSpecies     1
%block ChemicalSpeciesLabel
 1  14  Si
%endblock ChemicalSpeciesLabel
PAO.BasisSize       SZ
PAO.EnergyShift     300 meV
LatticeConstant     5.430 Ang
%block LatticeVectors
  2.000  0.000  0.000
  0.000  2.000  0.000
  0.000  0.000  2.000
%endblock LatticeVectors
MeshCutoff          40.0 Ry
MaxSCFIterations    50
DM.MixingWeight      0.3
DM.NumberPulay       3
DM.Tolerance         1.d-3
DM.UseSaveDM
SolutionMethod       diagon
ElectronicTemperature  25 meV
MD.TypeOfRun         cg
MD.NumCGsteps        0
MD.MaxCGDispl         0.1  Ang
MD.MaxForceTol        0.04 eV/Ang
AtomicCoordinatesFormat  ScaledCartesian
%block AtomicCoordinatesAndAtomicSpecies
    0.000    0.000    0.000   1 #  Si  1
    0.250    0.250    0.250   1 #  Si  2
    0.000    0.500    0.500   1 #  Si  3
    0.250    0.750    0.750   1 #  Si  4
    0.500    0.000    0.500   1 #  Si  5
    0.750    0.250    0.750   1 #  Si  6
    0.500    0.500    0.000   1 #  Si  7
    0.750    0.750    0.250   1 #  Si  8
    1.000    0.000    0.000   1 #  Si  9
    1.250    0.250    0.250   1 #  Si 10
    1.000    0.500    0.500   1 #  Si 11
    1.250    0.750    0.750   1 #  Si 12
    1.500    0.000    0.500   1 #  Si 13
    1.750    0.250    0.750   1 #  Si 14
    1.500    0.500    0.000   1 #  Si 15
    1.750    0.750    0.250   1 #  Si 16
    0.000    1.000    0.000   1 #  Si 17
    0.250    1.250    0.250   1 #  Si 18
    0.000    1.500    0.500   1 #  Si 19
    0.250    1.750    0.750   1 #  Si 20
    0.500    1.000    0.500   1 #  Si 21
    0.750    1.250    0.750   1 #  Si 22
    0.500    1.500    0.000   1 #  Si 23
    0.750    1.750    0.250   1 #  Si 24
    0.000    0.000    1.000   1 #  Si 25
    0.250    0.250    1.250   1 #  Si 26
    0.000    0.500    1.500   1 #  Si 27
    0.250    0.750    1.750   1 #  Si 28
    0.500    0.000    1.500   1 #  Si 29
    0.750    0.250    1.750   1 #  Si 30
    0.500    0.500    1.000   1 #  Si 31
    0.750    0.750    1.250   1 #  Si 32
    1.000    1.000    0.000   1 #  Si 33
    1.250    1.250    0.250   1 #  Si 34
    1.000    1.500    0.500   1 #  Si 35
    1.250    1.750    0.750   1 #  Si 36
    1.500    1.000    0.500   1 #  Si 37
    1.750    1.250    0.750   1 #  Si 38
    1.500    1.500    0.000   1 #  Si 39
    1.750    1.750    0.250   1 #  Si 40
    1.000    0.000    1.000   1 #  Si 41
    1.250    0.250    1.250   1 #  Si 42
    1.000    0.500    1.500   1 #  Si 43
    1.250    0.750    1.750   1 #  Si 44
    1.500    0.000    1.500   1 #  Si 45
    1.750    0.250    1.750   1 #  Si 46
    1.500    0.500    1.000   1 #  Si 47
    1.750    0.750    1.250   1 #  Si 48
    0.000    1.000    1.000   1 #  Si 49
    0.250    1.250    1.250   1 #  Si 50
    0.000    1.500    1.500   1 #  Si 51
    0.250    1.750    1.750   1 #  Si 52
    0.500    1.000    1.500   1 #  Si 53
    0.750    1.250    1.750   1 #  Si 54
    0.500    1.500    1.000   1 #  Si 55
    0.750    1.750    1.250   1 #  Si 56
    1.000    1.000    1.000   1 #  Si 57
    1.250    1.250    1.250   1 #  Si 58
    1.000    1.500    1.500   1 #  Si 59
    1.250    1.750    1.750   1 #  Si 60
    1.500    1.000    1.500   1 #  Si 61
    1.750    1.250    1.750   1 #  Si 62
    1.500    1.500    1.000   1 #  Si 63
    1.750    1.750    1.250   1 #  Si 64
%endblock AtomicCoordinatesAndAtomicSpecies
************************** End of input data file *****************************

reinit: -----------------------------------------------------------------------
reinit: System Name: 64-atom silicon
reinit: -----------------------------------------------------------------------
reinit: System Label: si64                                                        
reinit: -----------------------------------------------------------------------

initatom: Reading input for the pseudopotentials and atomic orbitals ----------
 Species number:            1  Label: Si Atomic number:          14
Ground state valence configuration:   3s02  3p02
Reading pseudopotential information in formatted form from Si.psf

Valence configuration for pseudopotential generation:
3s( 2.00) rc: 1.89
3p( 2.00) rc: 1.89
3d( 0.00) rc: 1.89
4f( 0.00) rc: 1.89
For Si, standard SIESTA heuristics set lmxkb to 2
 (one more than the basis l, including polarization orbitals).
Use PS.lmax or PS.KBprojectors blocks to override.

<basis_specs>
===============================================================================
Si                   Z=  14    Mass=  28.090        Charge= 0.17977+309
Lmxo=1 Lmxkb= 2    BasisType=split      Semic=F
L=0  Nsemic=0  Cnfigmx=3
          n=1  nzeta=1  polorb=0
            splnorm:   0.15000    
               vcte:    0.0000    
               rinn:    0.0000    
               qcoe:    0.0000    
               qyuk:    0.0000    
               qwid:   0.10000E-01
                rcs:    0.0000    
            lambdas:    1.0000    
L=1  Nsemic=0  Cnfigmx=3
          n=1  nzeta=1  polorb=0
            splnorm:   0.15000    
               vcte:    0.0000    
               rinn:    0.0000    
               qcoe:    0.0000    
               qyuk:    0.0000    
               qwid:   0.10000E-01
                rcs:    0.0000    
            lambdas:    1.0000    
-------------------------------------------------------------------------------
L=0  Nkbl=1  erefs: 0.17977+309
L=1  Nkbl=1  erefs: 0.17977+309
L=2  Nkbl=1  erefs: 0.17977+309
===============================================================================
</basis_specs>

atom: Called for Si                    (Z =  14)

read_vps: Pseudopotential generation method:
read_vps: ATM3      Troullier-Martins                       
Total valence charge:    4.00000

xc_check: Exchange-correlation functional:
xc_check: Ceperley-Alder
V l=0 = -2*Zval/r beyond r=  2.5494
V l=1 = -2*Zval/r beyond r=  2.5494
V l=2 = -2*Zval/r beyond r=  2.5494
All V_l potentials equal beyond r=  1.8652
This should be close to max(r_c) in ps generation
All pots = -2*Zval/r beyond r=  2.5494
Using large-core scheme for Vlocal

atom: Estimated core radius    2.54944

atom: Including non-local core corrections could be a good idea
atom: Maximum radius for 4*pi*r*r*local-pseudopot. charge    2.85303
atom: Maximum radius for r*vlocal+2*Zval:    2.58151
GHOST: No ghost state for L =  0
GHOST: No ghost state for L =  1
GHOST: No ghost state for L =  2

KBgen: Kleinman-Bylander projectors: 
   l= 0   rc=  1.936440   el= -0.796617   Ekb=  4.661340   kbcos=  0.299756
   l= 1   rc=  1.936440   el= -0.307040   Ekb=  1.494238   kbcos=  0.301471
   l= 2   rc=  1.936440   el=  0.002313   Ekb= -2.808672   kbcos= -0.054903

KBgen: Total number of  Kleinman-Bylander projectors:    9
atom: -------------------------------------------------------------------------

atom: SANKEY-TYPE ORBITALS:

SPLIT: Orbitals with angular momentum L= 0

SPLIT: Basis orbitals for state 3s

SPLIT: PAO cut-off radius determined from an
SPLIT: energy shift=  0.022049 Ry

   izeta = 1
                 lambda =    1.000000
                     rc =    4.883716
                 energy =   -0.773554
                kinetic =    0.585471
    potential(screened) =   -1.359025
       potential(ionic) =   -3.840954

SPLIT: Orbitals with angular momentum L= 1

SPLIT: Basis orbitals for state 3p

SPLIT: PAO cut-off radius determined from an
SPLIT: energy shift=  0.022049 Ry

   izeta = 1
                 lambda =    1.000000
                     rc =    6.116033
                 energy =   -0.285742
                kinetic =    0.892202
    potential(screened) =   -1.177944
       potential(ionic) =   -3.446720
atom: Total number of Sankey-type orbitals:  4

atm_pop: Valence configuration (for local Pseudopot. screening):
 3s( 2.00)                                                            
 3p( 2.00)                                                            
Vna: chval, zval:    4.00000   4.00000

Vna:  Cut-off radius for the neutral-atom potential:   6.116033

atom: _________________________________________________________________________

prinput: Basis input ----------------------------------------------------------

PAO.BasisType split     

%block ChemicalSpeciesLabel
    1   14 Si                      # Species index, atomic number, species label
%endblock ChemicalSpeciesLabel

%block PAO.Basis                 # Define Basis set
Si                    2                    # Species label, number of l-shells
 n=3   0   1                         # n, l, Nzeta 
   4.884   
   1.000   
 n=3   1   1                         # n, l, Nzeta 
   6.116   
   1.000   
%endblock PAO.Basis

prinput: ----------------------------------------------------------------------

Dumping basis to NetCDF file Si.ion.nc
coor:   Atomic-coordinates input format  =     Cartesian coordinates
coor:                                          (in units of alat)

siesta: Atomic coordinates (Bohr) and species
siesta:      0.00000   0.00000   0.00000  1        1
siesta:      2.56530   2.56530   2.56530  1        2
siesta:      0.00000   5.13061   5.13061  1        3
siesta:      2.56530   7.69591   7.69591  1        4
siesta:      5.13061   0.00000   5.13061  1        5
siesta:      7.69591   2.56530   7.69591  1        6
siesta:      5.13061   5.13061   0.00000  1        7
siesta:      7.69591   7.69591   2.56530  1        8
siesta:     10.26122   0.00000   0.00000  1        9
siesta:     12.82652   2.56530   2.56530  1       10
siesta:     10.26122   5.13061   5.13061  1       11
siesta:     12.82652   7.69591   7.69591  1       12
siesta:     15.39183   0.00000   5.13061  1       13
siesta:     17.95713   2.56530   7.69591  1       14
siesta:     15.39183   5.13061   0.00000  1       15
siesta:     17.95713   7.69591   2.56530  1       16
siesta:      0.00000  10.26122   0.00000  1       17
siesta:      2.56530  12.82652   2.56530  1       18
siesta:      0.00000  15.39183   5.13061  1       19
siesta:      2.56530  17.95713   7.69591  1       20
siesta:      5.13061  10.26122   5.13061  1       21
siesta:      7.69591  12.82652   7.69591  1       22
siesta:      5.13061  15.39183   0.00000  1       23
siesta:      7.69591  17.95713   2.56530  1       24
siesta:      0.00000   0.00000  10.26122  1       25
siesta:      2.56530   2.56530  12.82652  1       26
siesta:      0.00000   5.13061  15.39183  1       27
siesta:      2.56530   7.69591  17.95713  1       28
siesta:      5.13061   0.00000  15.39183  1       29
siesta:      7.69591   2.56530  17.95713  1       30
siesta:      5.13061   5.13061  10.26122  1       31
siesta:      7.69591   7.69591  12.82652  1       32
siesta:     10.26122  10.26122   0.00000  1       33
siesta:     12.82652  12.82652   2.56530  1       34
siesta:     10.26122  15.39183   5.13061  1       35
siesta:     12.82652  17.95713   7.69591  1       36
siesta:     15.39183  10.26122   5.13061  1       37
siesta:     17.95713  12.82652   7.69591  1       38
siesta:     15.39183  15.39183   0.00000  1       39
siesta:     17.95713  17.95713   2.56530  1       40
siesta:     10.26122   0.00000  10.26122  1       41
siesta:     12.82652   2.56530  12.82652  1       42
siesta:     10.26122   5.13061  15.39183  1       43
siesta:     12.82652   7.69591  17.95713  1       44
siesta:     15.39183   0.00000  15.39183  1       45
siesta:     17.95713   2.56530  17.95713  1       46
siesta:     15.39183   5.13061  10.26122  1       47
siesta:     17.95713   7.69591  12.82652  1       48
siesta:      0.00000  10.26122  10.26122  1       49
siesta:      2.56530  12.82652  12.82652  1       50
siesta:      0.00000  15.39183  15.39183  1       51
siesta:      2.56530  17.95713  17.95713  1       52
siesta:      5.13061  10.26122  15.39183  1       53
siesta:      7.69591  12.82652  17.95713  1       54
siesta:      5.13061  15.39183  10.26122  1       55
siesta:      7.69591  17.95713  12.82652  1       56
siesta:     10.26122  10.26122  10.26122  1       57
siesta:     12.82652  12.82652  12.82652  1       58
siesta:     10.26122  15.39183  15.39183  1       59
siesta:     12.82652  17.95713  17.95713  1       60
siesta:     15.39183  10.26122  15.39183  1       61
siesta:     17.95713  12.82652  17.95713  1       62
siesta:     15.39183  15.39183  10.26122  1       63
siesta:     17.95713  17.95713  12.82652  1       64

siesta: System type = bulk      

initatomlists: Number of atoms, orbitals, and projectors:     64   256   576

siesta: ******************** Simulation parameters ****************************
siesta:
siesta: The following are some of the parameters of the simulation.
siesta: A complete list of the parameters used, including default values,
siesta: can be found in file out.fdf
siesta:
redata: Non-Collinear-spin run           =     F
redata: SpinPolarized (Up/Down) run      =     F
redata: Number of spin components        =     1
redata: Long output                      =     F
redata: Number of Atomic Species         =        1
redata: Charge density info will appear in .RHO file
redata: Write Mulliken Pop.              =     NO
redata: Matel table size (NRTAB)         =     1024
redata: Mesh Cutoff                      =    40.0000 Ry
redata: Net charge of the system         =     0.0000 |e|
redata: Min. number of SCF Iter          =        0
redata: Max. number of SCF Iter          =       50
redata: Mix DM or H after convergence    =     F
redata: Recompute H after scf cycle      =     F
redata: Performing Pulay mixing using    =     3 iterations
redata: Mix DM in first SCF step ?       =     F
redata: Write Pulay info on disk?        =     F
redata: Discard 1st Pulay DM after  kick =     F
redata: New DM Mixing Weight             =     0.3000
redata: New DM Occupancy tolerance       = 0.000000000001
redata: No kicks to SCF
redata: DM Mixing Weight for Kicks       =     0.5000
redata: DM Tolerance for SCF             =     0.001000
redata: Require (free) Energy convergence in SCF =     F
redata: DM (free)Energy tolerance for SCF =     0.000010 eV
redata: Require Harris convergence for SCF =     F
redata: DM Harris energy tolerance for SCF =     0.000010 eV
redata: Using Saved Data (generic)   =     F
redata: Use continuation files for DM    =     T
redata: Neglect nonoverlap interactions  =     F
redata: Method of Calculation            =     Diagonalization
redata: Divide and Conquer               =     T
redata: Electronic Temperature           =     0.0018  Ry
redata: Fix the spin of the system       =     F
redata: Dynamics option                  =     Single-point calculation
redata: ***********************************************************************
Total number of electrons:   256.000000
Total ionic charge:   256.000000

* ProcessorY, Blocksize:    2  24


* Orbital distribution balance (max,min):    48    24

 Kpoints in:            1 . Kpoints trimmed:            1

siesta: k-grid: Number of k-points =     1
siesta: k-grid: Cutoff (effective) =     5.430 Ang
siesta: k-grid: Supercell and displacements
siesta: k-grid:    1   0   0      0.000
siesta: k-grid:    0   1   0      0.000
siesta: k-grid:    0   0   1      0.000

                     ====================================
                        Single-point calculation
                     ====================================

outcell: Unit cell vectors (Ang):
       10.860000    0.000000    0.000000
        0.000000   10.860000    0.000000
        0.000000    0.000000   10.860000

outcell: Cell vector modules (Ang)   :   10.860000   10.860000   10.860000
outcell: Cell angles (23,13,12) (deg):     90.0000     90.0000     90.0000
outcell: Cell volume (Ang**3)        :   1280.8241
Gamma-point calculation with multiply-connected orbital pairs
Folding of H and S implicitly performed
New_DM. Step:     1
Initializing Density Matrix...
New grid distribution:   1
           1       1:   24    1:   12    1:    6
           2       1:   24    1:   12    7:   12
           3       1:   24    1:   12   13:   18
           4       1:   24    1:   12   19:   24
           5       1:   24   13:   24    1:    6
           6       1:   24   13:   24    7:   12
           7       1:   24   13:   24   13:   18
           8       1:   24   13:   24   19:   24

InitMesh: MESH =    48 x    48 x    48 =      110592
InitMesh: (bp) =    24 x    24 x    24 =       13824
InitMesh: Mesh cutoff (required, used) =    40.000    53.991 Ry
ExtMesh (bp) on 0 =    56 x    44 x    38 =       93632
New grid distribution:   2
           1       1:   12   13:   24   13:   24
           2      13:   24    1:   12    1:   12
           3      13:   24    1:   12   13:   24
           4      13:   24   13:   24    1:   12
           5       1:   12    1:   12   13:   24
           6       1:   12    1:   12    1:   12
           7      13:   24   13:   24   13:   24
           8       1:   12   13:   24    1:   12
New grid distribution:   3
           1       1:   12   13:   24   13:   24
           2      13:   24    1:   12    1:   12
           3      13:   24    1:   12   13:   24
           4      13:   24   13:   24    1:   12
           5       1:   12    1:   12   13:   24
           6       1:   12    1:   12    1:   12
           7      13:   24   13:   24   13:   24
           8       1:   12   13:   24    1:   12
Setting up quadratic distribution...
ExtMesh (bp) on 0 =    44 x    44 x    44 =       85184
PhiOnMesh: Number of (b)points on node 0 =                 1728
PhiOnMesh: nlist on node 0 =                50192

stepf: Fermi-Dirac step function

siesta: Program's energy decomposition (eV):
siesta: Ebs     =     -2328.880300
siesta: Eions   =     12185.667955
siesta: Ena     =      3675.146874
siesta: Ekin    =      2572.945554
siesta: Enl     =      1153.572466
siesta: DEna    =         0.000011
siesta: DUscf   =         0.000000
siesta: DUext   =         0.000000
siesta: Exc     =     -2070.626812
siesta: eta*DQ  =         0.000000
siesta: Emadel  =         0.000000
siesta: Emeta   =         0.000000
siesta: Emolmec =         0.000000
siesta: Ekinion =         0.000000
siesta: Eharris =     -6839.783055
siesta: Etot    =     -6854.629862
siesta: FreeEng =     -6854.629862

   scf: iscf   Eharris(eV)      E_KS(eV)   FreeEng(eV)    dDmax  Ef(eV)
   scf:    1    -6839.7831    -6854.6299    -6854.6299  1.02033 -3.0643
timer: Routine,Calls,Time,% =    IterSCF     1       0.072  23.00
   scf:    2    -6838.2242    -6838.1731    -6838.1731  0.01540 -3.2861
   scf:    3    -6838.2229    -6838.2582    -6838.2582  0.00661 -3.2824
   scf:    4    -6838.2223    -6838.2213    -6838.2213  0.00001 -3.2769

SCF Convergence by dMax criterion
max |DM_out - DM_in|:     0.00001215
SCF cycle converged after    4 iterations

Using DM_out to compute the final energy and forces

siesta: E_KS(eV) =            -6838.2223

siesta: E_KS - E_eggbox =     -6838.2223

siesta: Atomic forces (eV/Ang):
----------------------------------------
   Tot    0.000000    0.000000   -0.000000
----------------------------------------
   Max    0.000000
   Res    0.000000    sqrt( Sum f_i^2 / 3N )
----------------------------------------
   Max    0.000000    constrained

Stress-tensor-Voigt (kbar):      -62.08      -62.08      -62.08       -0.00       -0.00       -0.00
(Free)E + p*V (eV/cell)    -6788.5927
Target enthalpy (eV/cell)    -6838.2223

siesta: Program's energy decomposition (eV):
siesta: Ebs     =     -2369.657998
siesta: Eions   =     12185.667955
siesta: Ena     =      3675.146874
siesta: Ekin    =      2552.619551
siesta: Enl     =       954.497301
siesta: DEna    =       214.478558
siesta: DUscf   =         5.382595
siesta: DUext   =         0.000000
siesta: Exc     =     -2054.679191
siesta: eta*DQ  =         0.000000
siesta: Emadel  =         0.000000
siesta: Emeta   =         0.000000
siesta: Emolmec =         0.000000
siesta: Ekinion =         0.000000
siesta: Eharris =     -6838.222269
siesta: Etot    =     -6838.222269
siesta: FreeEng =     -6838.222269

siesta: Final energy (eV):
siesta:  Band Struct. =   -2369.657998
siesta:       Kinetic =    2552.619551
siesta:       Hartree =     399.178514
siesta:    Ext. field =       0.000000
siesta:   Exch.-corr. =   -2054.679191
siesta:  Ion-electron =   -3041.811068
siesta:       Ion-ion =   -4693.530075
siesta:       Ekinion =       0.000000
siesta:         Total =   -6838.222269

siesta: Stress tensor (static) (eV/Ang**3):
siesta:    -0.038748   -0.000000   -0.000000
siesta:    -0.000000   -0.038748    0.000000
siesta:    -0.000000   -0.000000   -0.038748

siesta: Cell volume =       1280.824056 Ang**3

siesta: Pressure (static):
siesta:                Solid            Molecule  Units
siesta:           0.00042202          0.00042202  Ry/Bohr**3
siesta:           0.03874815          0.03874815  eV/Ang**3
siesta:          62.08204394         62.08204394  kBar
(Free)E+ p_basis*V_orbitals  =       -6821.101356
(Free)Eharris+ p_basis*V_orbitals  =       -6821.101356
>> End of run:  10-JUN-2018  22:03:34
Job completed
