Siesta Version:                                        siesta-3.1
Architecture  : ifort11-macosx64
Compiler flags: ifort  -O2
SERIAL version

* Running in serial mode
>> Start of run:  10-JUN-2011  14:43:09

                           ***********************       
                           *  WELCOME TO SIESTA  *       
                           ***********************       

reinit: Reading from standard input
************************** Dump of input data file ****************************
# -----------------------------------------------------------------------------
SystemName          bulk silicon  with test of BandPoints
SystemLabel         si_bandpoints
NumberOfAtoms       2
NumberOfSpecies     1
%block ChemicalSpeciesLabel
 1  14  Si
%endblock ChemicalSpeciesLabel
PAO.BasisSize       DZP
PAO.EnergyShift     300 meV
LatticeConstant    5.43 Ang
%block LatticeVectors
  0.500  0.500  0.000
  0.000  0.500  0.500
  0.500  0.000  0.500
%endblock LatticeVectors
MeshCutoff          90.0 Ry
MaxSCFIterations    50
DM.MixingWeight      0.3
DM.NumberPulay       3
DM.Tolerance         1.d-4
kgridcutoff          7. Ang
SolutionMethod       diagon
ElectronicTemperature  25 meV
BandLinesScale  pi/a
%block BandPoints
  0. 0. 0.            # Gamma
  2. 0. 0.            # X
  2. 1. 0.            # W       (Note units set by BandLinesScale)
%endblock BandPoints
WaveFuncKPointsScale  pi/a
%block WaveFuncKPoints              # These are comments
0.000  0.000  0.000  from 1 to 10   # eigenstates 1-10 of Gamma
2.000  0.000  0.000  1 3 5          # eigenstates 1,3,5 of X
1.500  1.500  1.500                 # all eigenstates of K
%endblock WaveFuncKPoints
AtomicCoordinatesFormat  Fractional
%block AtomicCoordinatesAndAtomicSpecies
    0.    0.    0.     1  Si        1
    0.25  0.25  0.25   1  Si        2
%endblock AtomicCoordinatesAndAtomicSpecies
************************** End of input data file *****************************

reinit: -----------------------------------------------------------------------
reinit: System Name: bulk silicon  with test of BandPoints
reinit: -----------------------------------------------------------------------
reinit: System Label: si_bandpoints                                               
reinit: -----------------------------------------------------------------------

initatom: Reading input for the pseudopotentials and atomic orbitals ----------
 Species number:            1  Label: Si Atomic number:          14
Ground state valence configuration:   3s02  3p02
Reading pseudopotential information in formatted form from Si.psf

Valence configuration for pseudopotential generation:
3s( 2.00) rc: 1.89
3p( 2.00) rc: 1.89
3d( 0.00) rc: 1.89
4f( 0.00) rc: 1.89
For Si, standard SIESTA heuristics set lmxkb to 3
 (one more than the basis l, including polarization orbitals).
Use PS.lmax or PS.KBprojectors blocks to override.

<basis_specs>
===============================================================================
Si                   Z=  14    Mass=  28.090        Charge= 0.17977+309
Lmxo=1 Lmxkb=3     BasisType=split      Semic=F
L=0  Nsemic=0  Cnfigmx=3
          n=1  nzeta=2  polorb=0
            splnorm:   0.15000    
               vcte:    0.0000    
               rinn:    0.0000    
                rcs:    0.0000      0.0000    
            lambdas:    1.0000      1.0000    
L=1  Nsemic=0  Cnfigmx=3
          n=1  nzeta=2  polorb=1
            splnorm:   0.15000    
               vcte:    0.0000    
               rinn:    0.0000    
                rcs:    0.0000      0.0000    
            lambdas:    1.0000      1.0000    
-------------------------------------------------------------------------------
L=0  Nkbl=1  erefs: 0.17977+309
L=1  Nkbl=1  erefs: 0.17977+309
L=2  Nkbl=1  erefs: 0.17977+309
L=3  Nkbl=1  erefs: 0.17977+309
===============================================================================
</basis_specs>

atom: Called for Si                    (Z =  14)

read_vps: Pseudopotential generation method:
read_vps: ATM3      Troullier-Martins                       
Total valence charge:    4.00000

xc_check: Exchange-correlation functional:
xc_check: Ceperley-Alder
V l=0 = -2*Zval/r beyond r=  2.5494
V l=1 = -2*Zval/r beyond r=  2.5494
V l=2 = -2*Zval/r beyond r=  2.5494
V l=3 = -2*Zval/r beyond r=  2.5494
All V_l potentials equal beyond r=  1.8652
This should be close to max(r_c) in ps generation
All pots = -2*Zval/r beyond r=  2.5494
Using large-core scheme for Vlocal

atom: Estimated core radius    2.54944

atom: Including non-local core corrections could be a good idea
atom: Maximum radius for 4*pi*r*r*local-pseudopot. charge    2.85303
atom: Maximum radius for r*vlocal+2*Zval:    2.58151
GHOST: No ghost state for L =  0
GHOST: No ghost state for L =  1
GHOST: No ghost state for L =  2
GHOST: No ghost state for L =  3

KBgen: Kleinman-Bylander projectors: 
   l= 0   rc=  1.936440   el= -0.796617   Ekb=  4.661340   kbcos=  0.299756
   l= 1   rc=  1.936440   el= -0.307040   Ekb=  1.494238   kbcos=  0.301471
   l= 2   rc=  1.936440   el=  0.002313   Ekb= -2.808672   kbcos= -0.054903
   l= 3   rc=  1.936440   el=  0.003402   Ekb= -0.959059   kbcos= -0.005513

KBgen: Total number of  Kleinman-Bylander projectors:   16
atom: -------------------------------------------------------------------------

atom: SANKEY-TYPE ORBITALS:
atom: Selected multiple-zeta basis: split     

SPLIT: Orbitals with angular momentum L= 0

SPLIT: Basis orbitals for state 3s

SPLIT: PAO cut-off radius determined from an
SPLIT: energy shift=  0.022049 Ry

   izeta = 1
                 lambda =    1.000000
                     rc =    4.883716
                 energy =   -0.773554
                kinetic =    0.585471
    potential(screened) =   -1.359025
       potential(ionic) =   -3.840954

   izeta = 2
                 rmatch =    4.418952
              splitnorm =    0.150000
                 energy =   -0.679782
                kinetic =    0.875998
    potential(screened) =   -1.555780
       potential(ionic) =   -4.137081

SPLIT: Orbitals with angular momentum L= 1

SPLIT: Basis orbitals for state 3p

SPLIT: PAO cut-off radius determined from an
SPLIT: energy shift=  0.022049 Ry

   izeta = 1
                 lambda =    1.000000
                     rc =    6.116033
                 energy =   -0.285742
                kinetic =    0.892202
    potential(screened) =   -1.177944
       potential(ionic) =   -3.446720

   izeta = 2
                 rmatch =    4.945148
              splitnorm =    0.150000
                 energy =   -0.200424
                kinetic =    1.256022
    potential(screened) =   -1.456447
       potential(ionic) =   -3.904246

POLgen: Perturbative polarization orbital with L=  2

POLgen: Polarization orbital for state 3p

   izeta = 1
                     rc =    6.116033
                 energy =    0.448490
                kinetic =    1.330466
    potential(screened) =   -0.881975
       potential(ionic) =   -2.962224
atom: Total number of Sankey-type orbitals: 13

atm_pop: Valence configuration (for local Pseudopot. screening):
 3s( 2.00)                                                            
 3p( 2.00)                                                            
Vna: chval, zval:    4.00000   4.00000

Vna:  Cut-off radius for the neutral-atom potential:   6.116033

atom: _________________________________________________________________________

prinput: Basis input ----------------------------------------------------------

PAO.BasisType split     

%block ChemicalSpeciesLabel
    1   14 Si                      # Species index, atomic number, species label
%endblock ChemicalSpeciesLabel

%block PAO.Basis                 # Define Basis set
Si                    2                    # Species label, number of l-shells
 n=3   0   2                         # n, l, Nzeta 
   4.884      4.419   
   1.000      1.000   
 n=3   1   2 P   1                   # n, l, Nzeta, Polarization, NzetaPol
   6.116      4.945   
   1.000      1.000   
%endblock PAO.Basis

prinput: ----------------------------------------------------------------------

coor:   Atomic-coordinates input format  =     Fractional

siesta: Atomic coordinates (Bohr) and species
siesta:      0.00000   0.00000   0.00000  1        1
siesta:      2.56530   2.56530   2.56530  1        2

siesta: System type = bulk      

initatomlists: Number of atoms, orbitals, and projectors:      2    26    32

siesta: ******************** Simulation parameters ****************************
siesta:
siesta: The following are some of the parameters of the simulation.
siesta: A complete list of the parameters used, including default values,
siesta: can be found in file out.fdf
siesta:
redata: Non-Collinear-spin run           =     F
redata: SpinPolarized (Up/Down) run      =     F
redata: Number of spin components        =     1
redata: Long output                      =     F
redata: Number of Atomic Species         =        1
redata: Charge density info will appear in .RHO file
redata: Write Mulliken Pop.              =     NO
redata: Mesh Cutoff                      =    90.0000  Ry
redata: Net charge of the system         =     0.0000 |e|
redata: Max. number of SCF Iter          =       50
redata: Performing Pulay mixing using    =     3 iterations
redata: Mix DM in first SCF step ?       =     F
redata: Write Pulay info on disk?        =     F
redata: Discard 1st Pulay DM after  kick =     F
redata: New DM Mixing Weight             =     0.3000
redata: New DM Occupancy tolerance       = 0.000000000001
redata: No kicks to SCF
redata: DM Mixing Weight for Kicks       =     0.5000
redata: DM Tolerance for SCF             =     0.000100
redata: Require Energy convergence for SCF =     F
redata: DM Energy tolerance for SCF      =     0.000100 eV
redata: Require Harris convergence for SCF =     F
redata: DM Harris energy tolerance for SCF =     0.000100 eV
redata: Using Saved Data (generic)   =     F
redata: Use continuation files for DM    =     F
redata: Neglect nonoverlap interactions  =     F
redata: Method of Calculation            =     Diagonalization
redata: Divide and Conquer               =     T
redata: Electronic Temperature           =     0.0018  Ry
redata: Fix the spin of the system       =     F
redata: Dynamics option                  =     Verlet MD run
redata: Initial MD time step             =        1
redata:   Final MD time step             =        1
redata: Length of MD time step           =     1.0000  fs
redata: Initial Temperature of MD run    =     0.0000  K
redata: Perform a MD quench              =     F
redata: ***********************************************************************
Total number of electrons:     8.000000
Total ionic charge:     8.000000
 Kpoints in:           32 . Kpoints trimmed:           32

siesta: k-grid: Number of k-points =    32
siesta: k-grid: Cutoff (effective) =     7.679 Ang
siesta: k-grid: Supercell and displacements
siesta: k-grid:    0   4   0      0.500
siesta: k-grid:    0   0   4      0.500
siesta: k-grid:    4   0   0      0.500
Naive supercell factors:     5    5    5

superc: Internal auxiliary supercell:     5 x     5 x     5  =     125
superc: Number of atoms, orbitals, and projectors:    250   3250   4000

* Maximum dynamic memory allocated =     1 MB

siesta:                 ==============================
                            Begin MD step =      1
                        ==============================

superc: Internal auxiliary supercell:     5 x     5 x     5  =     125
superc: Number of atoms, orbitals, and projectors:    250   3250   4000

outcell: Unit cell vectors (Ang):
        2.715000    2.715000    0.000000
        0.000000    2.715000    2.715000
        2.715000    0.000000    2.715000

outcell: Cell vector modules (Ang)   :    3.839590    3.839590    3.839590
outcell: Cell angles (23,13,12) (deg):     60.0000     60.0000     60.0000
outcell: Cell volume (Ang**3)        :     40.0258
New_DM. Step:     1
Initializing Density Matrix...

InitMesh: MESH =    18 x    18 x    18 =        5832
InitMesh: Mesh cutoff (required, used) =    90.000    91.110 Ry

* Maximum dynamic memory allocated =     8 MB

stepf: Fermi-Dirac step function

siesta: Program's energy decomposition (eV):
siesta: Ebs     =       -74.505005
siesta: Eions   =       380.802124
siesta: Ena     =       114.848182
siesta: Ekin    =        80.404549
siesta: Enl     =        36.046992
siesta: DEna    =        -0.000009
siesta: DUscf   =         0.000000
siesta: DUext   =         0.000000
siesta: Exc     =       -64.706935
siesta: eta*DQ  =         0.000000
siesta: Emadel  =         0.000000
siesta: Emeta   =         0.000000
siesta: Emolmec =         0.000000
siesta: Ekinion =         0.000000
siesta: Eharris =      -215.470661
siesta: Etot    =      -214.209345
siesta: FreeEng =      -214.209345

siesta: iscf   Eharris(eV)      E_KS(eV)   FreeEng(eV)   dDmax  Ef(eV)
siesta:    1     -215.4707     -214.2093     -214.2093  1.8176 -3.8996
timer: Routine,Calls,Time,% = IterSCF        1       2.351  81.15
elaps: Routine,Calls,Wall,% = IterSCF        1       2.350  81.06
siesta:    2     -215.4379     -215.4358     -215.4358  0.0097 -3.8091
siesta:    3     -215.4376     -215.4313     -215.4313  0.0048 -3.8162
siesta:    4     -215.4375     -215.4375     -215.4375  0.0004 -3.8267
siesta:    5     -215.4375     -215.4376     -215.4376  0.0003 -3.8268
siesta:    6     -215.4375     -215.4376     -215.4376  0.0001 -3.8266
siesta:    7     -215.4375     -215.4375     -215.4375  0.0001 -3.8266

siesta: E_KS(eV) =             -215.4375

siesta: E_KS - E_eggbox =      -215.4375

siesta: Atomic forces (eV/Ang):
----------------------------------------
   Tot    0.000223    0.000224    0.000223
----------------------------------------
   Max    0.021330
   Res    0.021218    sqrt( Sum f_i^2 / 3N )
----------------------------------------
   Max    0.021330    constrained

Stress-tensor-Voigt (kbar):       13.89       13.89       13.89       10.73       10.73       10.73
(Free)E + p*V (eV/cell)     -215.7844
Target enthalpy (eV/cell)     -215.4375

siesta: Stress tensor (static) (eV/Ang**3):
         0.008668    0.006698    0.006698
         0.006698    0.008668    0.006698
         0.006698    0.006698    0.008667

siesta: Pressure (static):        -13.88705489  kBar

siesta: Stress tensor (total) (eV/Ang**3):
         0.008668    0.006698    0.006698
         0.006698    0.008668    0.006698
         0.006698    0.006698    0.008667

siesta: Pressure (total):        -13.88705489  kBar

siesta: Temp_ion =       0.000 K

* Maximum dynamic memory allocated =     9 MB

siesta: Program's energy decomposition (eV):
siesta: Ebs     =       -73.796701
siesta: Eions   =       380.802124
siesta: Ena     =       114.848182
siesta: Ekin    =        81.649031
siesta: Enl     =        29.319505
siesta: DEna    =         4.385824
siesta: DUscf   =         0.252732
siesta: DUext   =         0.000000
siesta: Exc     =       -65.090626
siesta: eta*DQ  =         0.000000
siesta: Emadel  =         0.000000
siesta: Emeta   =         0.000000
siesta: Emolmec =         0.000000
siesta: Ekinion =         0.000000
siesta: Eharris =      -215.437477
siesta: Etot    =      -215.437476
siesta: FreeEng =      -215.437476

siesta: Final energy (eV):
siesta:  Band Struct. =     -73.796701
siesta:       Kinetic =      81.649031
siesta:       Hartree =      14.749141
siesta:    Ext. field =       0.000000
siesta:   Exch.-corr. =     -65.090626
siesta:  Ion-electron =    -100.072093
siesta:       Ion-ion =    -146.672929
siesta:       Ekinion =       0.000000
siesta:         Total =    -215.437476

siesta: Stress tensor (static) (eV/Ang**3):
siesta:     0.008668    0.006698    0.006698
siesta:     0.006698    0.008668    0.006698
siesta:     0.006698    0.006698    0.008667

siesta: Cell volume =         40.025752 Ang**3

siesta: Pressure (static):
siesta:                Solid            Molecule  Units
siesta:          -0.00009440         -0.00010224  Ry/Bohr**3
siesta:          -0.00866752         -0.00938713  eV/Ang**3
siesta:         -13.88705489        -15.04000385  kBar
(Free)E+ p_basis*V_orbitals  =        -214.226802
(Free)Eharris+ p_basis*V_orbitals  =        -214.226756

* Maximum dynamic memory allocated : Node    0 =     9 MB

* Maximum memory occured during ranger                        

timer: CPU execution times:
timer:  Routine       Calls   Time/call    Tot.time        %
timer:  siesta            1       6.387       6.387   100.00
timer:  Setup             1       0.200       0.200     3.13
timer:  bands             3       0.001       0.004     0.06
timer:  writewave         3       0.002       0.007     0.11
timer:  KSV_init          1       0.000       0.000     0.00
timer:  IterMD            1       6.167       6.167    96.57
timer:  hsparse           1       0.020       0.020     0.32
timer:  overlap           1       0.313       0.313     4.89
timer:  IterSCF           7       0.651       4.560    71.39
timer:  kinefsm           2       0.159       0.318     4.98
timer:  nlefsm            2       1.102       2.204    34.50
timer:  DHSCF             8       0.318       2.540    39.77
timer:  DHSCF1            1       0.018       0.018     0.29
timer:  DHSCF2            1       0.213       0.213     3.34
timer:  REORD            50       0.000       0.001     0.02
timer:  POISON            9       0.001       0.007     0.11
timer:  DHSCF3            8       0.264       2.109    33.02
timer:  rhoofd            8       0.122       0.980    15.34
timer:  cellXC            8       0.003       0.023     0.36
timer:  vmat              8       0.137       1.097    17.18
timer:  MolMec            2       0.000       0.000     0.00
timer:  diagon            7       0.098       0.689    10.79
timer:  c-eigval        227       0.001       0.217     3.40
timer:  c-buildHS       227       0.001       0.162     2.53
timer:  cdiag           454       0.000       0.159     2.49
timer:  cdiag1          454       0.000       0.008     0.12
timer:  cdiag2          454       0.000       0.029     0.45
timer:  cdiag3          454       0.000       0.111     1.74
timer:  cdiag4          454       0.000       0.004     0.06
timer:  c-eigvec        227       0.001       0.263     4.12
timer:  c-buildD        224       0.001       0.206     3.22
timer:  DHSCF4            1       0.198       0.198     3.10
timer:  dfscf             1       0.181       0.181     2.84
timer:  overfsm           1       0.022       0.022     0.34
timer:  optical           1       0.000       0.000     0.00
  

elaps: ELAPSED times:
elaps:  Routine       Calls   Time/call    Tot.time        %
elaps:  siesta            1       6.389       6.389   100.00
elaps:  Setup             1       0.203       0.203     3.18
elaps:  bands             3       0.001       0.004     0.06
elaps:  writewave         3       0.002       0.007     0.11
elaps:  KSV_init          1       0.000       0.000     0.00
elaps:  IterMD            1       6.167       6.167    96.51
elaps:  hsparse           1       0.020       0.020     0.32
elaps:  overlap           1       0.312       0.312     4.89
elaps:  IterSCF           7       0.651       4.559    71.35
elaps:  kinefsm           2       0.159       0.318     4.98
elaps:  nlefsm            2       1.102       2.203    34.48
elaps:  DHSCF             8       0.317       2.540    39.75
elaps:  DHSCF1            1       0.018       0.018     0.29
elaps:  DHSCF2            1       0.213       0.213     3.33
elaps:  REORD            50       0.000       0.002     0.03
elaps:  POISON            9       0.001       0.007     0.11
elaps:  DHSCF3            8       0.264       2.109    33.00
elaps:  rhoofd            8       0.122       0.980    15.33
elaps:  cellXC            8       0.003       0.023     0.36
elaps:  vmat              8       0.137       1.097    17.17
elaps:  MolMec            2       0.000       0.000     0.00
elaps:  diagon            7       0.098       0.689    10.79
elaps:  c-eigval        227       0.001       0.217     3.40
elaps:  c-buildHS       227       0.001       0.162     2.53
elaps:  cdiag           454       0.000       0.159     2.49
elaps:  cdiag1          454       0.000       0.008     0.13
elaps:  cdiag2          454       0.000       0.028     0.44
elaps:  cdiag3          454       0.000       0.112     1.75
elaps:  cdiag4          454       0.000       0.004     0.05
elaps:  c-eigvec        227       0.001       0.263     4.11
elaps:  c-buildD        224       0.001       0.206     3.23
elaps:  DHSCF4            1       0.198       0.198     3.09
elaps:  dfscf             1       0.181       0.181     2.84
elaps:  overfsm           1       0.021       0.021     0.34
elaps:  optical           1       0.000       0.000     0.00
  
>> End of run:  10-JUN-2011  14:43:16
