Siesta Version  : siesta-4.0--578
Architecture    : x86_64-linux-n-62-25-35
Compiler version: GNU Fortran (GCC) 7.3.0
Compiler flags  : mpif90 -m64 -fPIC -O3 -march=native -ftree-vectorize -fexpensive-optimizationns -funroll-loops -fprefetch-loop-arrays -fno-second-underscore
PP flags        : -I/zdata/groups/common/nicpa/2018-feb/generic/build-tools/1.0/include -I/zdatta/groups/common/nicpa/2018-feb/generic/gcc/7.3.0/include -I/zdata/groups/common/nicpa/2018-feb/generic/gcc/7.3.0/include -I/zdata/groups/common/nicpa/2018-feb/XeonE5-2660v3/zlib/1.2.11/gnu-7.3.0/include -I/zdata/groups/common/nicpa/2018-feb/generic/numactl/2.0.11/include -I/zdata/groups/common/nicpa/2018-feb/XeonE5-2660v3/libxml2/2.9.7/gnu-7.3.0/include -I/zdata/groups/common/nicpa/2018-feb/XeonE5-2660v3/hwloc/1.11.9/gnu-7.3.0/include -I/zdata/groups/common/nicpa/2018-feb/XeonE5-2660v3/openmpi/3.0.0/gnu-7.3.0/include -I/zdata/groups/common/nicpa/2018-feb/XeonE5-2660v3/szip/2.1.1/gnu-7.3.0/include -I/zdata/groups/common/nicpa/2018-feb/XeonE5-2660v3/hdf5-serial/1.8.18/gnu-7.3.0/include -I/zdata/groups/common/nicpa/2018-feb/XeonE5-2660v3/netcdf-serial/4.6.0/gnu-7.3.0/include -I/zdata/groups/common/nicpa/2018-feb/XeonE5-2660v3/scalapack/204/gnu-7.3.0/include -I/zdata/groups/common/nicpa/2018-feb/XeonE5-2660v3/openblas/0.2.20/gnu-7.3.0/include -I/zdata/groups/common/nicpa/2018-feb/XeonE5-2660v3/elpa/2017.05.003/gnu-7.3.0/include -DSIESTA__ELPA -DMPI -D1 -DFC_HAVE_ABORT -DCDF -DSIESTA__MRRR 
PARALLEL version
NetCDF support

* Running on    8 nodes in parallel
>> Start of run:  10-JUN-2018  22:03:41

                           ***********************       
                           *  WELCOME TO SIESTA  *       
                           ***********************       

reinit: Reading from standard input
************************** Dump of input data file ****************************
SystemName  Si chain  for COOP curves calculation
SystemLabel si_coop
NumberOfAtoms       4
NumberOfSpecies     1
%block ChemicalSpeciesLabel
 1  14  Si
%endblock ChemicalSpeciesLabel
#------------6.3 BASIS DEFINITION---------------------------------------
PAO.BasisSize      SZP
PAO.EnergyShift   100 meV
#------------6.4 LATTICE, COORDINATES -----------------------------------
LatticeConstant     1.0000 Ang
%block LatticeVectors
 4.000  0.000  0.000
 0.000  10.0  0.000
 0.000  0.000  10.0
%endblock LatticeVectors
AtomicCoordinatesFormat Ang
%block AtomicCoordinatesAndAtomicSpecies
 0.0000   0.0000   0.0000  1
 1.0000   0.0000   0.0000  1
 2.0000   0.0000   0.0000  1
 3.0000   0.0000   0.0000  1
%endblock AtomicCoordinatesAndAtomicSpecies
#------------ K-SAMPLING------------------------------------------------
%block kgrid_Monkhorst_Pack
    8    0    0   0.0
    0    1    0   0.0
    0    0    1   0.0
%endblock kgrid_Monkhorst_Pack
MeshCutoff         150.0 Ry
MaxSCFIterations    500
DM.MixingWeight      0.1
DM.NumberPulay       3
DM.Tolerance         1.d-4
SolutionMethod       diagon
ElectronicTemperature  25  meV
COOP.write T
%block ProjectedDensityOfStates
 -25.  5.  0.2  500   eV
%endblock ProjectedDensityOfStates
************************** End of input data file *****************************

reinit: -----------------------------------------------------------------------
reinit: System Name: Si chain  for COOP curves calculation
reinit: -----------------------------------------------------------------------
reinit: System Label: si_coop                                                     
reinit: -----------------------------------------------------------------------

initatom: Reading input for the pseudopotentials and atomic orbitals ----------
 Species number:            1  Label: Si Atomic number:          14
Ground state valence configuration:   3s02  3p02
Reading pseudopotential information in formatted form from Si.psf

Valence configuration for pseudopotential generation:
3s( 2.00) rc: 1.89
3p( 2.00) rc: 1.89
3d( 0.00) rc: 1.89
4f( 0.00) rc: 1.89
For Si, standard SIESTA heuristics set lmxkb to 3
 (one more than the basis l, including polarization orbitals).
Use PS.lmax or PS.KBprojectors blocks to override.

<basis_specs>
===============================================================================
Si                   Z=  14    Mass=  28.090        Charge= 0.17977+309
Lmxo=1 Lmxkb= 3    BasisType=split      Semic=F
L=0  Nsemic=0  Cnfigmx=3
          n=1  nzeta=1  polorb=0
            splnorm:   0.15000    
               vcte:    0.0000    
               rinn:    0.0000    
               qcoe:    0.0000    
               qyuk:    0.0000    
               qwid:   0.10000E-01
                rcs:    0.0000    
            lambdas:    1.0000    
L=1  Nsemic=0  Cnfigmx=3
          n=1  nzeta=1  polorb=1
            splnorm:   0.15000    
               vcte:    0.0000    
               rinn:    0.0000    
               qcoe:    0.0000    
               qyuk:    0.0000    
               qwid:   0.10000E-01
                rcs:    0.0000    
            lambdas:    1.0000    
-------------------------------------------------------------------------------
L=0  Nkbl=1  erefs: 0.17977+309
L=1  Nkbl=1  erefs: 0.17977+309
L=2  Nkbl=1  erefs: 0.17977+309
L=3  Nkbl=1  erefs: 0.17977+309
===============================================================================
</basis_specs>

atom: Called for Si                    (Z =  14)

read_vps: Pseudopotential generation method:
read_vps: ATM3      Troullier-Martins                       
Total valence charge:    4.00000

xc_check: Exchange-correlation functional:
xc_check: Ceperley-Alder
V l=0 = -2*Zval/r beyond r=  2.5494
V l=1 = -2*Zval/r beyond r=  2.5494
V l=2 = -2*Zval/r beyond r=  2.5494
V l=3 = -2*Zval/r beyond r=  2.5494
All V_l potentials equal beyond r=  1.8652
This should be close to max(r_c) in ps generation
All pots = -2*Zval/r beyond r=  2.5494
Using large-core scheme for Vlocal

atom: Estimated core radius    2.54944

atom: Including non-local core corrections could be a good idea
atom: Maximum radius for 4*pi*r*r*local-pseudopot. charge    2.85303
atom: Maximum radius for r*vlocal+2*Zval:    2.58151
GHOST: No ghost state for L =  0
GHOST: No ghost state for L =  1
GHOST: No ghost state for L =  2
GHOST: No ghost state for L =  3

KBgen: Kleinman-Bylander projectors: 
   l= 0   rc=  1.936440   el= -0.796617   Ekb=  4.661340   kbcos=  0.299756
   l= 1   rc=  1.936440   el= -0.307040   Ekb=  1.494238   kbcos=  0.301471
   l= 2   rc=  1.936440   el=  0.002313   Ekb= -2.808672   kbcos= -0.054903
   l= 3   rc=  1.936440   el=  0.003402   Ekb= -0.959059   kbcos= -0.005513

KBgen: Total number of  Kleinman-Bylander projectors:   16
atom: -------------------------------------------------------------------------

atom: SANKEY-TYPE ORBITALS:

SPLIT: Orbitals with angular momentum L= 0

SPLIT: Basis orbitals for state 3s

SPLIT: PAO cut-off radius determined from an
SPLIT: energy shift=  0.007350 Ry

   izeta = 1
                 lambda =    1.000000
                     rc =    5.674097
                 energy =   -0.790139
                kinetic =    0.533579
    potential(screened) =   -1.323718
       potential(ionic) =   -3.776962

SPLIT: Orbitals with angular momentum L= 1

SPLIT: Basis orbitals for state 3p

SPLIT: PAO cut-off radius determined from an
SPLIT: energy shift=  0.007350 Ry

   izeta = 1
                 lambda =    1.000000
                     rc =    7.105845
                 energy =   -0.299565
                kinetic =    0.824289
    potential(screened) =   -1.123854
       potential(ionic) =   -3.348521

POLgen: Perturbative polarization orbital with L=  2

POLgen: Polarization orbital for state 3p

   izeta = 1
                     rc =    7.105845
                 energy =    0.366373
                kinetic =    1.162439
    potential(screened) =   -0.796066
       potential(ionic) =   -2.795335
atom: Total number of Sankey-type orbitals:  9

atm_pop: Valence configuration (for local Pseudopot. screening):
 3s( 2.00)                                                            
 3p( 2.00)                                                            
Vna: chval, zval:    4.00000   4.00000

Vna:  Cut-off radius for the neutral-atom potential:   7.105845

atom: _________________________________________________________________________

prinput: Basis input ----------------------------------------------------------

PAO.BasisType split     

%block ChemicalSpeciesLabel
    1   14 Si                      # Species index, atomic number, species label
%endblock ChemicalSpeciesLabel

%block PAO.Basis                 # Define Basis set
Si                    2                    # Species label, number of l-shells
 n=3   0   1                         # n, l, Nzeta 
   5.674   
   1.000   
 n=3   1   1 P   1                   # n, l, Nzeta, Polarization, NzetaPol
   7.106   
   1.000   
%endblock PAO.Basis

prinput: ----------------------------------------------------------------------

Dumping basis to NetCDF file Si.ion.nc
coor:   Atomic-coordinates input format  =     Cartesian coordinates
coor:                                          (in Angstroms)

siesta: Atomic coordinates (Bohr) and species
siesta:      0.00000   0.00000   0.00000  1        1
siesta:      1.88973   0.00000   0.00000  1        2
siesta:      3.77945   0.00000   0.00000  1        3
siesta:      5.66918   0.00000   0.00000  1        4

siesta: System type = chain     

initatomlists: Number of atoms, orbitals, and projectors:      4    36    64

siesta: ******************** Simulation parameters ****************************
siesta:
siesta: The following are some of the parameters of the simulation.
siesta: A complete list of the parameters used, including default values,
siesta: can be found in file out.fdf
siesta:
redata: Non-Collinear-spin run           =     F
redata: SpinPolarized (Up/Down) run      =     F
redata: Number of spin components        =     1
redata: Long output                      =     F
redata: Number of Atomic Species         =        1
redata: Charge density info will appear in .RHO file
redata: Write Mulliken Pop.              =     NO
redata: Matel table size (NRTAB)         =     1024
redata: Mesh Cutoff                      =   150.0000 Ry
redata: Net charge of the system         =     0.0000 |e|
redata: Min. number of SCF Iter          =        0
redata: Max. number of SCF Iter          =      500
redata: Mix DM or H after convergence    =     F
redata: Recompute H after scf cycle      =     F
redata: Performing Pulay mixing using    =     3 iterations
redata: Mix DM in first SCF step ?       =     F
redata: Write Pulay info on disk?        =     F
redata: Discard 1st Pulay DM after  kick =     F
redata: New DM Mixing Weight             =     0.1000
redata: New DM Occupancy tolerance       = 0.000000000001
redata: No kicks to SCF
redata: DM Mixing Weight for Kicks       =     0.5000
redata: DM Tolerance for SCF             =     0.000100
redata: Require (free) Energy convergence in SCF =     F
redata: DM (free)Energy tolerance for SCF =     0.000010 eV
redata: Require Harris convergence for SCF =     F
redata: DM Harris energy tolerance for SCF =     0.000010 eV
redata: Using Saved Data (generic)   =     F
redata: Use continuation files for DM    =     F
redata: Neglect nonoverlap interactions  =     F
redata: Method of Calculation            =     Diagonalization
redata: Divide and Conquer               =     T
redata: Electronic Temperature           =     0.0018  Ry
redata: Fix the spin of the system       =     F
redata: Dynamics option                  =     Single-point calculation
redata: ***********************************************************************
Total number of electrons:    16.000000
Total ionic charge:    16.000000

* ProcessorY, Blocksize:    2   4


* Orbital distribution balance (max,min):     8     4

k-point displ. along   1 input, could be:     0.00    0.50
 Kpoints in:            5 . Kpoints trimmed:            5

siesta: k-grid: Number of k-points =     5
siesta: k-grid: Cutoff (effective) =     5.000 Ang
siesta: k-grid: Supercell and displacements
siesta: k-grid:    8   0   0      0.000
siesta: k-grid:    0   1   0      0.000
siesta: k-grid:    0   0   1      0.000
Naive supercell factors:     5    2    2

superc: Internal auxiliary supercell:     5 x     2 x     2  =      20
superc: Number of atoms, orbitals, and projectors:     80    720   1280

                     ====================================
                        Single-point calculation
                     ====================================

superc: Internal auxiliary supercell:     5 x     2 x     2  =      20
superc: Number of atoms, orbitals, and projectors:     80    720   1280

outcell: Unit cell vectors (Ang):
        4.000000    0.000000    0.000000
        0.000000   10.000000    0.000000
        0.000000    0.000000   10.000000

outcell: Cell vector modules (Ang)   :    4.000000   10.000000   10.000000
outcell: Cell angles (23,13,12) (deg):     90.0000     90.0000     90.0000
outcell: Cell volume (Ang**3)        :    400.0000
New_DM. Step:     1
Initializing Density Matrix...
New grid distribution:   1
           1       1:   15    1:   20    1:   10
           2       1:   15    1:   20   11:   20
           3       1:   15    1:   20   21:   30
           4       1:   15    1:   20   31:   40
           5       1:   15   21:   40    1:   10
           6       1:   15   21:   40   11:   20
           7       1:   15   21:   40   21:   30
           8       1:   15   21:   40   31:   40

InitMesh: MESH =    30 x    80 x    80 =      192000
InitMesh: (bp) =    15 x    40 x    40 =       24000
InitMesh: Mesh cutoff (required, used) =   150.000   155.462 Ry
ExtMesh (bp) on 0 =    75 x    84 x    74 =      466200
New grid distribution:   2
           1       1:   15   14:   40    1:    5
           2       1:   15    1:   13    1:    5
           3       1:   15    1:   12   14:   35
           4       1:   15   13:   40   36:   40
           5       1:   15   14:   40    6:   13
           6       1:   15    1:   13    6:   13
           7       1:   15   13:   40   14:   35
           8       1:   15    1:   12   36:   40
New grid distribution:   3
           1       1:   15   15:   40    1:    6
           2       1:   15    1:   14    8:   15
           3       1:   15    1:   15   16:   34
           4       1:   15    1:   14    1:    7
           5       1:   15    1:   15   35:   40
           6       1:   15   15:   40    7:   15
           7       1:   15   16:   40   16:   34
           8       1:   15   16:   40   35:   40
Setting up quadratic distribution...
ExtMesh (bp) on 0 =    75 x    91 x    69 =      470925
PhiOnMesh: Number of (b)points on node 0 =                 2025
PhiOnMesh: nlist on node 0 =                61203

stepf: Fermi-Dirac step function

siesta: Program's energy decomposition (eV):
siesta: Ebs     =      -268.824943
siesta: Eions   =       761.604247
siesta: Ena     =       338.976744
siesta: Ekin    =       147.796633
siesta: Enl     =       198.924298
siesta: DEna    =         0.000000
siesta: DUscf   =         0.000000
siesta: DUext   =         0.000000
siesta: Exc     =      -150.736679
siesta: eta*DQ  =         0.000000
siesta: Emadel  =         0.000000
siesta: Emeta   =         0.000000
siesta: Emolmec =         0.000000
siesta: Ekinion =         0.000000
siesta: Eharris =      -175.273971
siesta: Etot    =      -226.643250
siesta: FreeEng =      -226.651915

   scf: iscf   Eharris(eV)      E_KS(eV)   FreeEng(eV)    dDmax  Ef(eV)
   scf:    1     -175.2740     -226.6433     -226.6519  6.05528 -7.9945
timer: Routine,Calls,Time,% =    IterSCF     1       0.102  12.27
   scf:    2     -174.7221     -174.3643     -174.3784  1.04667 -4.9203
   scf:    3     -174.6001     -181.7255     -181.7423  0.17134 -5.3605
   scf:    4     -174.5822     -177.0271     -177.0368  0.13190 -5.6023
   scf:    5     -174.5811     -177.9138     -177.9255  0.08710 -5.5206
   scf:    6     -174.5811     -178.1162     -178.1279  0.08826 -5.5245
   scf:    7     -174.5814     -178.0727     -178.0853  0.07770 -5.4961
   scf:    8     -174.5816     -177.7341     -177.7470  0.06272 -5.4852
   scf:    9     -174.5815     -176.1788     -176.1900  0.03645 -5.5262
   scf:   10     -174.5816     -175.9137     -175.9246  0.03686 -5.5325
   scf:   11     -174.5820     -174.6483     -174.6584  0.00222 -5.5577
   scf:   12     -174.5820     -174.6005     -174.6106  0.00240 -5.5592
   scf:   13     -174.5820     -174.5863     -174.5963  0.00223 -5.5599
   scf:   14     -174.5821     -174.5842     -174.5943  0.00023 -5.5615
   scf:   15     -174.5821     -174.5839     -174.5939  0.00020 -5.5615
   scf:   16     -174.5821     -174.5819     -174.5920  0.00006 -5.5612

SCF Convergence by dMax criterion
max |DM_out - DM_in|:     0.00005528
SCF cycle converged after   16 iterations

Using DM_out to compute the final energy and forces

siesta: E_KS(eV) =             -174.5821

siesta: E_KS - E_eggbox =      -174.5821

siesta: Atomic forces (eV/Ang):
----------------------------------------
   Tot   -0.000000    0.000000   -0.000000
----------------------------------------
   Max    0.000000
   Res    0.000000    sqrt( Sum f_i^2 / 3N )
----------------------------------------
   Max    0.000000    constrained

Stress-tensor-Voigt (kbar):    -3042.26       -0.01       -0.01        0.00       -0.00        0.00
(Free)E + p*V (eV/cell)       78.5830
Target enthalpy (eV/cell)     -174.5921
Writing WFSX for COOP/COHP in si_coop.fullBZ.WFSX
siesta: PDOS info: 
siesta: e1, e2, sigma, nhist:   -25.00 eV    5.00 eV    0.20 eV    500

siesta: Program's energy decomposition (eV):
siesta: Ebs     =      -236.947935
siesta: Eions   =       761.604247
siesta: Ena     =       338.976744
siesta: Ekin    =       261.045391
siesta: Enl     =       149.922973
siesta: DEna    =        -8.195255
siesta: DUscf   =         1.510380
siesta: DUext   =         0.000000
siesta: Exc     =      -156.238044
siesta: eta*DQ  =         0.000000
siesta: Emadel  =         0.000000
siesta: Emeta   =         0.000000
siesta: Emolmec =         0.000000
siesta: Ekinion =         0.000000
siesta: Eharris =      -174.582058
siesta: Etot    =      -174.582058
siesta: FreeEng =      -174.592130

siesta: Final energy (eV):
siesta:  Band Struct. =    -236.947935
siesta:       Kinetic =     261.045391
siesta:       Hartree =     829.341005
siesta:    Ext. field =       0.000000
siesta:   Exch.-corr. =    -156.238044
siesta:  Ion-electron =   -1952.666216
siesta:       Ion-ion =     843.935805
siesta:       Ekinion =       0.000000
siesta:         Total =    -174.582058

siesta: Stress tensor (static) (eV/Ang**3):
siesta:    -1.898806   -0.000000   -0.000000
siesta:     0.000000   -0.000004   -0.000000
siesta:     0.000000   -0.000000   -0.000004

siesta: Cell volume =        400.000000 Ang**3

siesta: Pressure (static):
siesta:                Solid            Molecule  Units
siesta:           0.00689350          0.00689350  Ry/Bohr**3
siesta:           0.63293790          0.63293790  eV/Ang**3
siesta:        1014.08927650       1014.08927613  kBar
(Free)E+ p_basis*V_orbitals  =        -171.801901
(Free)Eharris+ p_basis*V_orbitals  =        -171.801901

siesta: Electric dipole (a.u.)  =    0.000000   -0.000000   -0.000000
siesta: Electric dipole (Debye) =    0.000000   -0.000000   -0.000000
>> End of run:  10-JUN-2018  22:03:44
Job completed
