Siesta Version:                                        siesta-3.1
Architecture  : ifort11-macosx64
Compiler flags: ifort  -O2
SERIAL version

* Running in serial mode
>> Start of run:  10-JUN-2011  14:45:24

                           ***********************       
                           *  WELCOME TO SIESTA  *       
                           ***********************       

reinit: Reading from standard input
************************** Dump of input data file ****************************
SystemName  Si chain  for COOP curves calculation
SystemLabel si_coop
NumberOfAtoms       4
NumberOfSpecies     1
%block ChemicalSpeciesLabel
 1  14  Si
%endblock ChemicalSpeciesLabel
#------------6.3 BASIS DEFINITION---------------------------------------
PAO.BasisSize      SZP
PAO.EnergyShift   100 meV
#------------6.4 LATTICE, COORDINATES -----------------------------------
LatticeConstant     1.0000 Ang
%block LatticeVectors
 4.000  0.000  0.000
 0.000  10.0  0.000
 0.000  0.000  10.0
%endblock LatticeVectors
AtomicCoordinatesFormat Ang
%block AtomicCoordinatesAndAtomicSpecies
 0.0000   0.0000   0.0000  1
 1.0000   0.0000   0.0000  1
 2.0000   0.0000   0.0000  1
 3.0000   0.0000   0.0000  1
%endblock AtomicCoordinatesAndAtomicSpecies
#------------ K-SAMPLING------------------------------------------------
%block kgrid_Monkhorst_Pack
    8    0    0   0.0
    0    1    0   0.0
    0    0    1   0.0
%endblock kgrid_Monkhorst_Pack
MeshCutoff         150.0 Ry
MaxSCFIterations    500
DM.MixingWeight      0.1
DM.NumberPulay       3
DM.Tolerance         1.d-4
SolutionMethod       diagon
ElectronicTemperature  25  meV
COOP.write T
%block ProjectedDensityOfStates
 -25.  5.  0.2  500   eV
%endblock ProjectedDensityOfStates
************************** End of input data file *****************************

reinit: -----------------------------------------------------------------------
reinit: System Name: Si chain  for COOP curves calculation
reinit: -----------------------------------------------------------------------
reinit: System Label: si_coop                                                     
reinit: -----------------------------------------------------------------------

initatom: Reading input for the pseudopotentials and atomic orbitals ----------
 Species number:            1  Label: Si Atomic number:          14
Ground state valence configuration:   3s02  3p02
Reading pseudopotential information in formatted form from Si.psf

Valence configuration for pseudopotential generation:
3s( 2.00) rc: 1.89
3p( 2.00) rc: 1.89
3d( 0.00) rc: 1.89
4f( 0.00) rc: 1.89
For Si, standard SIESTA heuristics set lmxkb to 3
 (one more than the basis l, including polarization orbitals).
Use PS.lmax or PS.KBprojectors blocks to override.

<basis_specs>
===============================================================================
Si                   Z=  14    Mass=  28.090        Charge= 0.17977+309
Lmxo=1 Lmxkb=3     BasisType=split      Semic=F
L=0  Nsemic=0  Cnfigmx=3
          n=1  nzeta=1  polorb=0
            splnorm:   0.15000    
               vcte:    0.0000    
               rinn:    0.0000    
                rcs:    0.0000    
            lambdas:    1.0000    
L=1  Nsemic=0  Cnfigmx=3
          n=1  nzeta=1  polorb=1
            splnorm:   0.15000    
               vcte:    0.0000    
               rinn:    0.0000    
                rcs:    0.0000    
            lambdas:    1.0000    
-------------------------------------------------------------------------------
L=0  Nkbl=1  erefs: 0.17977+309
L=1  Nkbl=1  erefs: 0.17977+309
L=2  Nkbl=1  erefs: 0.17977+309
L=3  Nkbl=1  erefs: 0.17977+309
===============================================================================
</basis_specs>

atom: Called for Si                    (Z =  14)

read_vps: Pseudopotential generation method:
read_vps: ATM3      Troullier-Martins                       
Total valence charge:    4.00000

xc_check: Exchange-correlation functional:
xc_check: Ceperley-Alder
V l=0 = -2*Zval/r beyond r=  2.5494
V l=1 = -2*Zval/r beyond r=  2.5494
V l=2 = -2*Zval/r beyond r=  2.5494
V l=3 = -2*Zval/r beyond r=  2.5494
All V_l potentials equal beyond r=  1.8652
This should be close to max(r_c) in ps generation
All pots = -2*Zval/r beyond r=  2.5494
Using large-core scheme for Vlocal

atom: Estimated core radius    2.54944

atom: Including non-local core corrections could be a good idea
atom: Maximum radius for 4*pi*r*r*local-pseudopot. charge    2.85303
atom: Maximum radius for r*vlocal+2*Zval:    2.58151
GHOST: No ghost state for L =  0
GHOST: No ghost state for L =  1
GHOST: No ghost state for L =  2
GHOST: No ghost state for L =  3

KBgen: Kleinman-Bylander projectors: 
   l= 0   rc=  1.936440   el= -0.796617   Ekb=  4.661340   kbcos=  0.299756
   l= 1   rc=  1.936440   el= -0.307040   Ekb=  1.494238   kbcos=  0.301471
   l= 2   rc=  1.936440   el=  0.002313   Ekb= -2.808672   kbcos= -0.054903
   l= 3   rc=  1.936440   el=  0.003402   Ekb= -0.959059   kbcos= -0.005513

KBgen: Total number of  Kleinman-Bylander projectors:   16
atom: -------------------------------------------------------------------------

atom: SANKEY-TYPE ORBITALS:

SPLIT: Orbitals with angular momentum L= 0

SPLIT: Basis orbitals for state 3s

SPLIT: PAO cut-off radius determined from an
SPLIT: energy shift=  0.007350 Ry

   izeta = 1
                 lambda =    1.000000
                     rc =    5.674097
                 energy =   -0.790139
                kinetic =    0.533579
    potential(screened) =   -1.323718
       potential(ionic) =   -3.776962

SPLIT: Orbitals with angular momentum L= 1

SPLIT: Basis orbitals for state 3p

SPLIT: PAO cut-off radius determined from an
SPLIT: energy shift=  0.007350 Ry

   izeta = 1
                 lambda =    1.000000
                     rc =    7.105845
                 energy =   -0.299565
                kinetic =    0.824289
    potential(screened) =   -1.123854
       potential(ionic) =   -3.348521

POLgen: Perturbative polarization orbital with L=  2

POLgen: Polarization orbital for state 3p

   izeta = 1
                     rc =    7.105845
                 energy =    0.366373
                kinetic =    1.162439
    potential(screened) =   -0.796066
       potential(ionic) =   -2.795335
atom: Total number of Sankey-type orbitals:  9

atm_pop: Valence configuration (for local Pseudopot. screening):
 3s( 2.00)                                                            
 3p( 2.00)                                                            
Vna: chval, zval:    4.00000   4.00000

Vna:  Cut-off radius for the neutral-atom potential:   7.105845

atom: _________________________________________________________________________

prinput: Basis input ----------------------------------------------------------

PAO.BasisType split     

%block ChemicalSpeciesLabel
    1   14 Si                      # Species index, atomic number, species label
%endblock ChemicalSpeciesLabel

%block PAO.Basis                 # Define Basis set
Si                    2                    # Species label, number of l-shells
 n=3   0   1                         # n, l, Nzeta 
   5.674   
   1.000   
 n=3   1   1 P   1                   # n, l, Nzeta, Polarization, NzetaPol
   7.106   
   1.000   
%endblock PAO.Basis

prinput: ----------------------------------------------------------------------

coor:   Atomic-coordinates input format  =     Cartesian coordinates
coor:                                          (in Angstroms)

siesta: Atomic coordinates (Bohr) and species
siesta:      0.00000   0.00000   0.00000  1        1
siesta:      1.88973   0.00000   0.00000  1        2
siesta:      3.77945   0.00000   0.00000  1        3
siesta:      5.66918   0.00000   0.00000  1        4

siesta: System type = chain     

initatomlists: Number of atoms, orbitals, and projectors:      4    36    64

siesta: ******************** Simulation parameters ****************************
siesta:
siesta: The following are some of the parameters of the simulation.
siesta: A complete list of the parameters used, including default values,
siesta: can be found in file out.fdf
siesta:
redata: Non-Collinear-spin run           =     F
redata: SpinPolarized (Up/Down) run      =     F
redata: Number of spin components        =     1
redata: Long output                      =     F
redata: Number of Atomic Species         =        1
redata: Charge density info will appear in .RHO file
redata: Write Mulliken Pop.              =     NO
redata: Mesh Cutoff                      =   150.0000  Ry
redata: Net charge of the system         =     0.0000 |e|
redata: Max. number of SCF Iter          =      500
redata: Performing Pulay mixing using    =     3 iterations
redata: Mix DM in first SCF step ?       =     F
redata: Write Pulay info on disk?        =     F
redata: Discard 1st Pulay DM after  kick =     F
redata: New DM Mixing Weight             =     0.1000
redata: New DM Occupancy tolerance       = 0.000000000001
redata: No kicks to SCF
redata: DM Mixing Weight for Kicks       =     0.5000
redata: DM Tolerance for SCF             =     0.000100
redata: Require Energy convergence for SCF =     F
redata: DM Energy tolerance for SCF      =     0.000100 eV
redata: Require Harris convergence for SCF =     F
redata: DM Harris energy tolerance for SCF =     0.000100 eV
redata: Using Saved Data (generic)   =     F
redata: Use continuation files for DM    =     F
redata: Neglect nonoverlap interactions  =     F
redata: Method of Calculation            =     Diagonalization
redata: Divide and Conquer               =     T
redata: Electronic Temperature           =     0.0018  Ry
redata: Fix the spin of the system       =     F
redata: Dynamics option                  =     Verlet MD run
redata: Initial MD time step             =        1
redata:   Final MD time step             =        1
redata: Length of MD time step           =     1.0000  fs
redata: Initial Temperature of MD run    =     0.0000  K
redata: Perform a MD quench              =     F
redata: ***********************************************************************
Total number of electrons:    16.000000
Total ionic charge:    16.000000
k-point displ. along   1 input, could be:     0.00    0.50
 Kpoints in:            5 . Kpoints trimmed:            5

siesta: k-grid: Number of k-points =     5
siesta: k-grid: Cutoff (effective) =     5.000 Ang
siesta: k-grid: Supercell and displacements
siesta: k-grid:    8   0   0      0.000
siesta: k-grid:    0   1   0      0.000
siesta: k-grid:    0   0   1      0.000
Naive supercell factors:     5    2    2

superc: Internal auxiliary supercell:     5 x     2 x     2  =      20
superc: Number of atoms, orbitals, and projectors:     80    720   1280

* Maximum dynamic memory allocated =     1 MB

siesta:                 ==============================
                            Begin MD step =      1
                        ==============================

superc: Internal auxiliary supercell:     5 x     2 x     2  =      20
superc: Number of atoms, orbitals, and projectors:     80    720   1280

outcell: Unit cell vectors (Ang):
        4.000000    0.000000    0.000000
        0.000000   10.000000    0.000000
        0.000000    0.000000   10.000000

outcell: Cell vector modules (Ang)   :    4.000000   10.000000   10.000000
outcell: Cell angles (23,13,12) (deg):     90.0000     90.0000     90.0000
outcell: Cell volume (Ang**3)        :    400.0000
New_DM. Step:     1
Initializing Density Matrix...

InitMesh: MESH =    30 x    80 x    80 =      192000
InitMesh: Mesh cutoff (required, used) =   150.000   155.462 Ry

* Maximum dynamic memory allocated =    33 MB

stepf: Fermi-Dirac step function

siesta: Program's energy decomposition (eV):
siesta: Ebs     =      -267.431404
siesta: Eions   =       761.604247
siesta: Ena     =       338.983239
siesta: Ekin    =       147.796633
siesta: Enl     =       198.923208
siesta: DEna    =        -0.000036
siesta: DUscf   =         0.000000
siesta: DUext   =         0.000000
siesta: Exc     =      -150.736679
siesta: eta*DQ  =         0.000000
siesta: Emadel  =         0.000000
siesta: Emeta   =         0.000000
siesta: Emolmec =         0.000000
siesta: Ekinion =         0.000000
siesta: Eharris =      -173.874111
siesta: Etot    =      -226.637882
siesta: FreeEng =      -226.637882

siesta: iscf   Eharris(eV)      E_KS(eV)   FreeEng(eV)   dDmax  Ef(eV)
siesta:    1     -173.8741     -226.6379     -226.6379  5.3603 -7.9952
timer: Routine,Calls,Time,% = IterSCF        1       3.000  89.01
elaps: Routine,Calls,Wall,% = IterSCF        1       3.000  88.97
siesta:    2     -173.4390     -173.2391     -173.2478  0.7933 -5.3176
siesta:    3     -173.3892     -179.6619     -179.6787  0.1257 -5.7080
siesta:    4     -173.3874     -178.8498     -178.8601  0.1109 -5.7258
siesta:    5     -173.3793     -174.2684     -174.2783  0.0355 -5.8980
siesta:    6     -173.3794     -173.3651     -173.3738  0.0173 -5.9547
siesta:    7     -173.3794     -173.3304     -173.3391  0.0154 -5.9528
siesta:    8     -173.3792     -173.2334     -173.2421  0.0041 -5.9320
siesta:    9     -173.3793     -173.2493     -173.2580  0.0040 -5.9310
siesta:   10     -173.3792     -173.3773     -173.3860  0.0031 -5.9248
siesta:   11     -173.3792     -173.3918     -173.4005  0.0023 -5.9259
siesta:   12     -173.3792     -173.3916     -173.4003  0.0018 -5.9267
siesta:   13     -173.3792     -173.3508     -173.3595  0.0009 -5.9281
siesta:   14     -173.3793     -173.3513     -173.3600  0.0008 -5.9279
siesta:   15     -173.3792     -173.3701     -173.3788  0.0004 -5.9259
siesta:   16     -173.3792     -173.3731     -173.3818  0.0003 -5.9258
siesta:   17     -173.3792     -173.3808     -173.3896  0.0002 -5.9257
siesta:   18     -173.3792     -173.3799     -173.3886  0.0002 -5.9259
siesta:   19     -173.3793     -173.3785     -173.3872  0.0002 -5.9260
siesta:   20     -173.3793     -173.3763     -173.3850  0.0001 -5.9261
siesta:   21     -173.3793     -173.3761     -173.3849  0.0001 -5.9261
siesta:   22     -173.3792     -173.3785     -173.3872  0.0001 -5.9259

siesta: E_KS(eV) =             -173.3789

siesta: E_KS - E_eggbox =      -173.3789

siesta: Atomic forces (eV/Ang):
----------------------------------------
   Tot   -0.000002    0.000000    0.000000
----------------------------------------
   Max    0.000029
   Res    0.000013    sqrt( Sum f_i^2 / 3N )
----------------------------------------
   Max    0.000029    constrained

Stress-tensor-Voigt (kbar):    -3079.63       -0.01       -0.01        0.00        0.00        0.00
(Free)E + p*V (eV/cell)       82.8973
Target enthalpy (eV/cell)     -173.3877

siesta: Stress tensor (static) (eV/Ang**3):
        -1.922130    0.000000    0.000000
         0.000000   -0.000003    0.000000
         0.000000    0.000000   -0.000003

siesta: Pressure (static):       1026.54551729  kBar

siesta: Stress tensor (total) (eV/Ang**3):
        -1.922130    0.000000    0.000000
         0.000000   -0.000003    0.000000
         0.000000    0.000000   -0.000003

siesta: Pressure (total):       1026.54551729  kBar

siesta: Temp_ion =       0.000 K

* Maximum dynamic memory allocated =    33 MB
siesta: PDOS info: 
siesta: e1, e2, sigma, nhist:   -25.00 eV    5.00 eV    0.20 eV    500

siesta: Program's energy decomposition (eV):
siesta: Ebs     =      -240.123321
siesta: Eions   =       761.604247
siesta: Ena     =       338.983239
siesta: Ekin    =       258.822785
siesta: Enl     =       149.882116
siesta: DEna    =        -5.130669
siesta: DUscf   =         1.219887
siesta: DUext   =         0.000000
siesta: Exc     =      -155.552053
siesta: eta*DQ  =         0.000000
siesta: Emadel  =         0.000000
siesta: Emeta   =         0.000000
siesta: Emolmec =         0.000000
siesta: Ekinion =         0.000000
siesta: Eharris =      -173.379241
siesta: Etot    =      -173.378941
siesta: FreeEng =      -173.387653

siesta: Final energy (eV):
siesta:  Band Struct. =    -240.123321
siesta:       Kinetic =     258.822785
siesta:       Hartree =     824.752181
siesta:    Ext. field =       0.000000
siesta:   Exch.-corr. =    -155.552053
siesta:  Ion-electron =   -1945.344165
siesta:       Ion-ion =     843.942310
siesta:       Ekinion =       0.000000
siesta:         Total =    -173.378941

siesta: Stress tensor (static) (eV/Ang**3):
siesta:    -1.922130    0.000000    0.000000
siesta:     0.000000   -0.000003    0.000000
siesta:     0.000000    0.000000   -0.000003

siesta: Cell volume =        400.000000 Ang**3

siesta: Pressure (static):
siesta:                Solid            Molecule  Units
siesta:           0.00697818          0.00697818  Ry/Bohr**3
siesta:           0.64071239          0.64071238  eV/Ang**3
siesta:        1026.54551729       1026.54549732  kBar
(Free)E+ p_basis*V_orbitals  =        -170.597424
(Free)Eharris+ p_basis*V_orbitals  =        -170.598136

siesta: Electric dipole (a.u.)  =    0.000000    0.000000    0.000000
siesta: Electric dipole (Debye) =    0.000000    0.000000    0.000000

* Maximum dynamic memory allocated : Node    0 =    33 MB

* Maximum memory occured during poison                        

timer: CPU execution times:
timer:  Routine       Calls   Time/call    Tot.time        %
timer:  siesta            1      26.301      26.301   100.00
timer:  Setup             1       0.171       0.171     0.65
timer:  bands             1       0.000       0.000     0.00
timer:  writewave         2       0.005       0.011     0.04
timer:  KSV_init          1       0.000       0.000     0.00
timer:  IterMD            1      25.934      25.934    98.61
timer:  hsparse           1       0.001       0.001     0.01
timer:  overlap           1       0.195       0.195     0.74
timer:  IterSCF          22       1.069      23.522    89.43
timer:  kinefsm           2       0.093       0.186     0.71
timer:  nlefsm            2       0.363       0.726     2.76
timer:  DHSCF            23       1.062      24.418    92.84
timer:  DHSCF1            1       0.101       0.101     0.38
timer:  DHSCF2            1       1.077       1.077     4.09
timer:  REORD           186       0.001       0.095     0.36
timer:  POISON           24       0.025       0.610     2.32
timer:  DHSCF3           23       0.958      22.039    83.79
timer:  rhoofd           23       0.463      10.642    40.46
timer:  cellXC           23       0.043       0.986     3.75
timer:  vmat             23       0.414       9.523    36.21
timer:  MolMec            2       0.000       0.000     0.00
timer:  diagon           22       0.011       0.241     0.91
timer:  c-eigval        110       0.001       0.070     0.27
timer:  c-buildHS       110       0.000       0.021     0.08
timer:  cdiag           230       0.001       0.152     0.58
timer:  cdiag1          230       0.000       0.009     0.03
timer:  cdiag2          230       0.000       0.031     0.12
timer:  cdiag3          230       0.000       0.103     0.39
timer:  cdiag4          230       0.000       0.004     0.02
timer:  c-eigvec        115       0.001       0.121     0.46
timer:  c-buildD        110       0.000       0.044     0.17
timer:  DHSCF4            1       1.181       1.181     4.49
timer:  dfscf             1       1.057       1.057     4.02
timer:  overfsm           1       0.006       0.006     0.02
timer:  pdos              1       0.177       0.177     0.67
timer:  optical           1       0.000       0.000     0.00
  

elaps: ELAPSED times:
elaps:  Routine       Calls   Time/call    Tot.time        %
elaps:  siesta            1      26.328      26.328   100.00
elaps:  Setup             1       0.173       0.173     0.66
elaps:  bands             1       0.000       0.000     0.00
elaps:  writewave         2       0.006       0.012     0.04
elaps:  KSV_init          1       0.000       0.000     0.00
elaps:  IterMD            1      25.960      25.960    98.60
elaps:  hsparse           1       0.001       0.001     0.00
elaps:  overlap           1       0.195       0.195     0.74
elaps:  IterSCF          22       1.070      23.547    89.44
elaps:  kinefsm           2       0.093       0.186     0.71
elaps:  nlefsm            2       0.363       0.726     2.76
elaps:  DHSCF            23       1.063      24.441    92.83
elaps:  DHSCF1            1       0.101       0.101     0.38
elaps:  DHSCF2            1       1.077       1.077     4.09
elaps:  REORD           186       0.001       0.094     0.36
elaps:  POISON           24       0.025       0.610     2.32
elaps:  DHSCF3           23       0.959      22.061    83.79
elaps:  rhoofd           23       0.463      10.649    40.45
elaps:  cellXC           23       0.043       0.987     3.75
elaps:  vmat             23       0.415       9.538    36.23
elaps:  MolMec            2       0.000       0.000     0.00
elaps:  diagon           22       0.011       0.243     0.92
elaps:  c-eigval        110       0.001       0.070     0.27
elaps:  c-buildHS       110       0.000       0.021     0.08
elaps:  cdiag           230       0.001       0.155     0.59
elaps:  cdiag1          230       0.000       0.010     0.04
elaps:  cdiag2          230       0.000       0.033     0.12
elaps:  cdiag3          230       0.000       0.104     0.40
elaps:  cdiag4          230       0.000       0.003     0.01
elaps:  c-eigvec        115       0.001       0.124     0.47
elaps:  c-buildD        110       0.000       0.044     0.17
elaps:  DHSCF4            1       1.181       1.181     4.49
elaps:  dfscf             1       1.057       1.057     4.02
elaps:  overfsm           1       0.006       0.006     0.02
elaps:  pdos              1       0.177       0.177     0.67
elaps:  optical           1       0.000       0.000     0.00
  
>> End of run:  10-JUN-2011  14:45:50
