Siesta Version:                                        siesta-3.0-rc2
Architecture  : macosx-openmpi
Compiler flags: /opt/openmpi.gcc.gfortran/bin/mpif90 -O2
PARALLEL version

* Running on    2 nodes in parallel
>> Start of run:  30-JUN-2010  11:56:48

                           ***********************       
                           *  WELCOME TO SIESTA  *       
                           ***********************       

reinit: Reading from standard input
************************** Dump of input data file ****************************
SystemName  Si chain  for COOP curves calculation
SystemLabel si_coop
NumberOfAtoms       4
NumberOfSpecies     1
%block ChemicalSpeciesLabel
 1  14  Si
%endblock ChemicalSpeciesLabel
#------------6.3 BASIS DEFINITION---------------------------------------
PAO.BasisSize      SZP
PAO.EnergyShift   100 meV
#------------6.4 LATTICE, COORDINATES -----------------------------------
LatticeConstant     1.0000 Ang
%block LatticeVectors
 4.000  0.000  0.000
 0.000  10.0  0.000
 0.000  0.000  10.0
%endblock LatticeVectors
AtomicCoordinatesFormat Ang
%block AtomicCoordinatesAndAtomicSpecies
 0.0000   0.0000   0.0000  1
 1.0000   0.0000   0.0000  1
 2.0000   0.0000   0.0000  1
 3.0000   0.0000   0.0000  1
%endblock AtomicCoordinatesAndAtomicSpecies
#------------ K-SAMPLING------------------------------------------------
%block kgrid_Monkhorst_Pack
    8    0    0   0.0
    0    1    0   0.0
    0    0    1   0.0
%endblock kgrid_Monkhorst_Pack
MeshCutoff         150.0 Ry
MaxSCFIterations    500
DM.MixingWeight      0.1
DM.NumberPulay       3
DM.Tolerance         1.d-4
SolutionMethod       diagon
ElectronicTemperature  25  meV
COOP.write T
%block ProjectedDensityOfStates
 -25.  5.  0.2  500   eV
%endblock ProjectedDensityOfStates
************************** End of input data file *****************************

reinit: -----------------------------------------------------------------------
reinit: System Name: Si chain  for COOP curves calculation
reinit: -----------------------------------------------------------------------
reinit: System Label: si_coop                                                     
reinit: -----------------------------------------------------------------------

initatom: Reading input for the pseudopotentials and atomic orbitals ----------
 Species number:            1  Label: Si Atomic number:          14
Ground state valence configuration:   3s02  3p02
Reading pseudopotential information in formatted form from Si.psf

Valence configuration for pseudopotential generation:
3s( 2.00) rc: 1.89
3p( 2.00) rc: 1.89
3d( 0.00) rc: 1.89
4f( 0.00) rc: 1.89
For Si, standard SIESTA heuristics set lmxkb to 3
 (one more than the basis l, including polarization orbitals).
Use PS.lmax or PS.KBprojectors blocks to override.

<basis_specs>
===============================================================================
Si                   Z=  14    Mass=  28.090        Charge= 0.17977+309
Lmxo=1 Lmxkb=3     BasisType=split      Semic=F
L=0  Nsemic=0  Cnfigmx=3
          n=1  nzeta=1  polorb=0
            splnorm:   0.15000    
               vcte:    0.0000    
               rinn:    0.0000    
                rcs:    0.0000    
            lambdas:    1.0000    
L=1  Nsemic=0  Cnfigmx=3
          n=1  nzeta=1  polorb=1
            splnorm:   0.15000    
               vcte:    0.0000    
               rinn:    0.0000    
                rcs:    0.0000    
            lambdas:    1.0000    
-------------------------------------------------------------------------------
L=0  Nkbl=1  erefs: 0.17977+309
L=1  Nkbl=1  erefs: 0.17977+309
L=2  Nkbl=1  erefs: 0.17977+309
L=3  Nkbl=1  erefs: 0.17977+309
===============================================================================
</basis_specs>

atom: Called for Si                    (Z =  14)

read_vps: Pseudopotential generation method:
read_vps: ATM3      Troullier-Martins                       
Total valence charge:    4.00000

xc_check: Exchange-correlation functional:
xc_check: Ceperley-Alder
V l=0 = -2*Zval/r beyond r=  2.5494
V l=1 = -2*Zval/r beyond r=  2.5494
V l=2 = -2*Zval/r beyond r=  2.5494
V l=3 = -2*Zval/r beyond r=  2.5494
All V_l potentials equal beyond r=  1.8652
This should be close to max(r_c) in ps generation
All pots = -2*Zval/r beyond r=  2.5494
Using large-core scheme for Vlocal

atom: Estimated core radius    2.54944

atom: Including non-local core corrections could be a good idea
atom: Maximum radius for 4*pi*r*r*local-pseudopot. charge    2.85303
atom: Maximum radius for r*vlocal+2*Zval:    2.58151
GHOST: No ghost state for L =  0
GHOST: No ghost state for L =  1
GHOST: No ghost state for L =  2
GHOST: No ghost state for L =  3

KBgen: Kleinman-Bylander projectors: 
   l= 0   rc=  1.936440   el= -0.796617   Ekb=  4.661340   kbcos=  0.299756
   l= 1   rc=  1.936440   el= -0.307040   Ekb=  1.494238   kbcos=  0.301471
   l= 2   rc=  1.936440   el=  0.002313   Ekb= -2.808672   kbcos= -0.054903
   l= 3   rc=  1.936440   el=  0.003402   Ekb= -0.959059   kbcos= -0.005513

KBgen: Total number of  Kleinman-Bylander projectors:   16
atom: -------------------------------------------------------------------------

atom: SANKEY-TYPE ORBITALS:

SPLIT: Orbitals with angular momentum L= 0

SPLIT: Basis orbitals for state 3s

SPLIT: PAO cut-off radius determined from an
SPLIT: energy shift=  0.007350 Ry

   izeta = 1
                 lambda =    1.000000
                     rc =    5.674097
                 energy =   -0.790139
                kinetic =    0.533579
    potential(screened) =   -1.323718
       potential(ionic) =   -3.776962

SPLIT: Orbitals with angular momentum L= 1

SPLIT: Basis orbitals for state 3p

SPLIT: PAO cut-off radius determined from an
SPLIT: energy shift=  0.007350 Ry

   izeta = 1
                 lambda =    1.000000
                     rc =    7.105845
                 energy =   -0.299565
                kinetic =    0.824289
    potential(screened) =   -1.123854
       potential(ionic) =   -3.348521

POLgen: Perturbative polarization orbital with L=  2

POLgen: Polarization orbital for state 3p

   izeta = 1
                     rc =    7.105845
                 energy =    0.366373
                kinetic =    1.162439
    potential(screened) =   -0.796066
       potential(ionic) =   -2.795335
atom: Total number of Sankey-type orbitals:  9

atm_pop: Valence configuration (for local Pseudopot. screening):
 3s( 2.00)                                                            
 3p( 2.00)                                                            
Vna: chval, zval:    4.00000   4.00000

Vna:  Cut-off radius for the neutral-atom potential:   7.105845

atom: _________________________________________________________________________

prinput: Basis input ----------------------------------------------------------

PAO.BasisType split     

%block ChemicalSpeciesLabel
    1   14 Si                      # Species index, atomic number, species label
%endblock ChemicalSpeciesLabel

%block PAO.Basis                 # Define Basis set
Si                    2                    # Species label, number of l-shells
 n=3   0   1                         # n, l, Nzeta 
   5.674   
   1.000   
 n=3   1   1 P   1                   # n, l, Nzeta, Polarization, NzetaPol
   7.106   
   1.000   
%endblock PAO.Basis

prinput: ----------------------------------------------------------------------

coor:   Atomic-coordinates input format  =     Cartesian coordinates
coor:                                          (in Angstroms)

siesta: Atomic coordinates (Bohr) and species
siesta:      0.00000   0.00000   0.00000  1        1
siesta:      1.88973   0.00000   0.00000  1        2
siesta:      3.77945   0.00000   0.00000  1        3
siesta:      5.66918   0.00000   0.00000  1        4

siesta: System type = chain     

initatomlists: Number of atoms, orbitals, and projectors:      4    36    64

siesta: ******************** Simulation parameters ****************************
siesta:
siesta: The following are some of the parameters of the simulation.
siesta: A complete list of the parameters used, including default values,
siesta: can be found in file out.fdf
siesta:
redata: Non-Collinear-spin run           =     F
redata: SpinPolarized (Up/Down) run      =     F
redata: Number of spin components        =     1
redata: Long output                      =     F
redata: Number of Atomic Species         =        1
redata: Charge density info will appear in .RHO file
redata: Write Mulliken Pop.              =     NO
redata: Mesh Cutoff                      =   150.0000  Ry
redata: Net charge of the system         =     0.0000 |e|
redata: Max. number of SCF Iter          =      500
redata: Performing Pulay mixing using    =     3 iterations
redata: Mix DM in first SCF step ?       =     F
redata: Write Pulay info on disk?        =     F
redata: Discard 1st Pulay DM after  kick =     F
redata: New DM Mixing Weight             =     0.1000
redata: New DM Occupancy tolerance       = 0.000000000001
redata: No kicks to SCF
redata: DM Mixing Weight for Kicks       =     0.5000
redata: DM Tolerance for SCF             =     0.000100
redata: Require Energy convergence for SCF =     F
redata: DM Energy tolerance for SCF      =     0.000100 eV
redata: Require Harris convergence for SCF =     F
redata: DM Harris energy tolerance for SCF =     0.000100 eV
redata: Using Saved Data (generic)   =     F
redata: Use continuation files for DM    =     F
redata: Neglect nonoverlap interactions  =     F
redata: Method of Calculation            =     Diagonalization
redata: Divide and Conquer               =     T
redata: Electronic Temperature           =     0.0018  Ry
redata: Fix the spin of the system       =     F
redata: Dynamics option                  =     Verlet MD run
redata: Initial MD time step             =        1
redata:   Final MD time step             =        1
redata: Length of MD time step           =     1.0000  fs
redata: Initial Temperature of MD run    =     0.0000  K
redata: Perform a MD quench              =     F
redata: ***********************************************************************
Total number of electrons:    16.000000
Total ionic charge:    16.000000

* ProcessorY, Blocksize:    1  18

k-point displ. along   1 input, could be:     0.00    0.50
 Kpoints in:            5 . Kpoints trimmed:            5

siesta: k-grid: Number of k-points =     5
siesta: k-grid: Cutoff (effective) =     5.000 Ang
siesta: k-grid: Supercell and displacements
siesta: k-grid:    8   0   0      0.000
siesta: k-grid:    0   1   0      0.000
siesta: k-grid:    0   0   1      0.000
Naive supercell factors:     5    2    2

superc: Internal auxiliary supercell:     5 x     2 x     2  =      20
superc: Number of atoms, orbitals, and projectors:     80    720   1280

* Maximum dynamic memory allocated =     1 MB

siesta:                 ==============================
                            Begin MD step =      1
                        ==============================

superc: Internal auxiliary supercell:     5 x     2 x     2  =      20
superc: Number of atoms, orbitals, and projectors:     80    720   1280

outcell: Unit cell vectors (Ang):
        4.000000    0.000000    0.000000
        0.000000   10.000000    0.000000
        0.000000    0.000000   10.000000

outcell: Cell vector modules (Ang)   :    4.000000   10.000000   10.000000
outcell: Cell angles (23,13,12) (deg):     90.0000     90.0000     90.0000
outcell: Cell volume (Ang**3)        :    400.0000
New_DM. Step:     1
Initializing Density Matrix...

InitMesh: MESH =    30 x    80 x    80 =      192000
InitMesh: Mesh cutoff (required, used) =   150.000   155.462 Ry

* Maximum dynamic memory allocated =    22 MB

stepf: Fermi-Dirac step function

siesta: Program's energy decomposition (eV):
siesta: Ebs     =      -267.431544
siesta: Eions   =       761.604247
siesta: Ena     =       338.983239
siesta: Ekin    =       147.796633
siesta: Enl     =       198.923208
siesta: DEna    =         0.000000
siesta: DUscf   =         0.000000
siesta: DUext   =         0.000000
siesta: Exc     =      -150.736679
siesta: eta*DQ  =         0.000000
siesta: Emadel  =         0.000000
siesta: Emeta   =         0.000000
siesta: Emolmec =         0.000000
siesta: Ekinion =         0.000000
siesta: Eharris =      -173.874076
siesta: Etot    =      -226.637846
siesta: FreeEng =      -226.637846

siesta: iscf   Eharris(eV)      E_KS(eV)   FreeEng(eV)   dDmax  Ef(eV)
siesta:    1     -173.8741     -226.6378     -226.6378  5.3603 -7.9952
timer: Routine,Calls,Time,% = IterSCF        1       4.890  86.70
elaps: Routine,Calls,Wall,% = IterSCF        1       2.490  86.61
siesta:    2     -173.4390     -173.2391     -173.2477  0.7933 -5.3176
siesta:    3     -173.3892     -179.6618     -179.6786  0.1257 -5.7080
siesta:    4     -173.3873     -178.8497     -178.8600  0.1109 -5.7259
siesta:    5     -173.3793     -174.2684     -174.2783  0.0355 -5.8980
siesta:    6     -173.3793     -173.3651     -173.3738  0.0173 -5.9547
siesta:    7     -173.3794     -173.3304     -173.3391  0.0154 -5.9528
siesta:    8     -173.3792     -173.2330     -173.2417  0.0041 -5.9320
siesta:    9     -173.3792     -173.2490     -173.2577  0.0040 -5.9310
siesta:   10     -173.3792     -173.3767     -173.3854  0.0032 -5.9248
siesta:   11     -173.3792     -173.3913     -173.4000  0.0024 -5.9260
siesta:   12     -173.3792     -173.3912     -173.3999  0.0019 -5.9267
siesta:   13     -173.3792     -173.3502     -173.3589  0.0010 -5.9281
siesta:   14     -173.3792     -173.3506     -173.3593  0.0008 -5.9280
siesta:   15     -173.3792     -173.3723     -173.3810  0.0003 -5.9258
siesta:   16     -173.3792     -173.3743     -173.3830  0.0003 -5.9257
siesta:   17     -173.3792     -173.3814     -173.3901  0.0001 -5.9258
siesta:   18     -173.3792     -173.3802     -173.3889  0.0001 -5.9259
siesta:   19     -173.3792     -173.3794     -173.3881  0.0001 -5.9260
siesta:   20     -173.3792     -173.3776     -173.3863  0.0001 -5.9260

siesta: E_KS(eV) =             -173.3777

siesta: E_KS - E_eggbox =      -173.3777

siesta: Atomic forces (eV/Ang):
----------------------------------------
   Tot   -0.000002    0.000000   -0.000000
----------------------------------------
   Max    0.000037
   Res    0.000014    sqrt( Sum f_i^2 / 3N )
----------------------------------------
   Max    0.000037    constrained

Stress-tensor-Voigt (kbar):    -3079.66       -0.01       -0.01        0.00        0.00       -0.00
(Free)E + p*V (eV/cell)       82.9016
Target enthalpy (eV/cell)     -173.3864

siesta: Stress tensor (static) (eV/Ang**3):
        -1.922154    0.000000    0.000000
         0.000000   -0.000003   -0.000000
        -0.000000    0.000000   -0.000003

siesta: Pressure (static):       1026.55777121  kBar

siesta: Stress tensor (total) (eV/Ang**3):
        -1.922154    0.000000    0.000000
         0.000000   -0.000003   -0.000000
        -0.000000    0.000000   -0.000003

siesta: Pressure (total):       1026.55777121  kBar

siesta: Temp_ion =       0.000 K

* Maximum dynamic memory allocated =    23 MB
siesta: PDOS info: 
siesta: e1, e2, sigma, nhist:   -25.00 eV    5.00 eV    0.20 eV    500

siesta: Program's energy decomposition (eV):
siesta: Ebs     =      -240.124686
siesta: Eions   =       761.604247
siesta: Ena     =       338.983239
siesta: Ekin    =       258.824507
siesta: Enl     =       149.879721
siesta: DEna    =        -5.128849
siesta: DUscf   =         1.219884
siesta: DUext   =         0.000000
siesta: Exc     =      -155.551993
siesta: eta*DQ  =         0.000000
siesta: Emadel  =         0.000000
siesta: Emeta   =         0.000000
siesta: Emolmec =         0.000000
siesta: Ekinion =         0.000000
siesta: Eharris =      -173.379182
siesta: Etot    =      -173.377738
siesta: FreeEng =      -173.386449

siesta: Final energy (eV):
siesta:  Band Struct. =    -240.124686
siesta:       Kinetic =     258.824507
siesta:       Hartree =     824.750931
siesta:    Ext. field =       0.000000
siesta:   Exch.-corr. =    -155.551993
siesta:  Ion-electron =   -1945.343493
siesta:       Ion-ion =     843.942310
siesta:       Ekinion =       0.000000
siesta:         Total =    -173.377738

siesta: Stress tensor (static) (eV/Ang**3):
siesta:    -1.922154    0.000000    0.000000
siesta:     0.000000   -0.000003   -0.000000
siesta:    -0.000000    0.000000   -0.000003

siesta: Cell volume =        400.000000 Ang**3

siesta: Pressure (static):
siesta:                Solid            Molecule  Units
siesta:           0.00697826          0.00697826  Ry/Bohr**3
siesta:           0.64072004          0.64071998  eV/Ang**3
siesta:        1026.55777121       1026.55766885  kBar
(Free)E+ p_basis*V_orbitals  =        -170.596221
(Free)Eharris+ p_basis*V_orbitals  =        -170.597811

siesta: Electric dipole (a.u.)  =   -0.000000   -0.000000   -0.000000
siesta: Electric dipole (Debye) =   -0.000000   -0.000000   -0.000000

* Maximum dynamic memory allocated : Node    0 =    23 MB
* Maximum dynamic memory allocated : Node    1 =    22 MB

* Maximum memory occured during redistribXZ                   

timer: CPU execution times:
timer:  Routine       Calls   Time/call    Tot.time        %
timer:  siesta            1      31.585      31.585   100.00
timer:  Setup             1       0.356       0.356     1.13
timer:  bands             1       0.001       0.001     0.00
timer:  writewave         2       0.019       0.038     0.12
timer:  KSV_init          1       0.000       0.000     0.00
timer:  IterMD            1      30.855      30.855    97.69
timer:  hsparse           1       0.002       0.002     0.01
timer:  overlap           1       0.380       0.380     1.20
timer:  IterSCF          20       1.378      27.564    87.27
timer:  kinefsm           2       0.179       0.359     1.14
timer:  nlefsm            2       0.724       1.448     4.59
timer:  DHSCF            21       1.293      27.150    85.96
timer:  DHSCF1            1       0.208       0.208     0.66
timer:  DHSCF2            1       1.741       1.741     5.51
timer:  REORD           170       0.001       0.115     0.36
timer:  POISON           22       0.105       2.302     7.29
timer:  DHSCF3           21       1.123      23.578    74.65
timer:  rhoofd           21       0.632      13.276    42.03
timer:  cellXC           21       0.054       1.141     3.61
timer:  vmat             21       0.304       6.377    20.19
timer:  MolMec            2       0.000       0.000     0.00
timer:  diagon           20       0.059       1.185     3.75
timer:  c-eigval        100       0.005       0.547     1.73
timer:  c-buildHS       100       0.000       0.038     0.12
timer:  cdiag           210       0.005       1.084     3.43
timer:  cdiag1          210       0.000       0.055     0.17
timer:  cdiag2          210       0.001       0.145     0.46
timer:  cdiag3          210       0.004       0.782     2.48
timer:  cdiag4          210       0.000       0.030     0.10
timer:  c-eigvec        105       0.006       0.584     1.85
timer:  c-buildD        100       0.001       0.066     0.21
timer:  DHSCF4            1       1.557       1.557     4.93
timer:  dfscf             1       1.377       1.377     4.36
timer:  overfsm           1       0.007       0.007     0.02
timer:  pdos              1       0.196       0.196     0.62
timer:  optical           1       0.127       0.127     0.40
  

elaps: ELAPSED times:
elaps:  Routine       Calls   Time/call    Tot.time        %
elaps:  siesta            1      16.058      16.058    99.99
elaps:  Setup             1       0.182       0.182     1.13
elaps:  bands             1       0.000       0.000     0.00
elaps:  writewave         2       0.010       0.020     0.12
elaps:  KSV_init          1       0.000       0.000     0.00
elaps:  IterMD            1      15.686      15.686    97.68
elaps:  hsparse           1       0.000       0.000     0.00
elaps:  overlap           1       0.198       0.198     1.23
elaps:  IterSCF          20       0.701      14.013    87.26
elaps:  kinefsm           2       0.091       0.183     1.14
elaps:  nlefsm            2       0.376       0.753     4.69
elaps:  DHSCF            21       0.658      13.812    86.01
elaps:  DHSCF1            1       0.106       0.106     0.66
elaps:  DHSCF2            1       0.883       0.883     5.50
elaps:  REORD           170       0.000       0.056     0.35
elaps:  POISON           22       0.054       1.179     7.34
elaps:  DHSCF3           21       0.570      11.971    74.54
elaps:  rhoofd           21       0.325       6.822    42.48
elaps:  cellXC           21       0.028       0.583     3.63
elaps:  vmat             21       0.154       3.226    20.09
elaps:  MolMec            2       0.000       0.000     0.00
elaps:  diagon           20       0.030       0.608     3.79
elaps:  c-eigval        100       0.003       0.281     1.75
elaps:  c-buildHS       100       0.000       0.022     0.14
elaps:  cdiag           210       0.003       0.546     3.40
elaps:  cdiag1          210       0.000       0.027     0.17
elaps:  cdiag2          210       0.000       0.025     0.16
elaps:  cdiag3          210       0.002       0.446     2.78
elaps:  cdiag4          210       0.000       0.015     0.09
elaps:  c-eigvec        105       0.003       0.295     1.84
elaps:  c-buildD        100       0.000       0.035     0.22
elaps:  DHSCF4            1       0.819       0.819     5.10
elaps:  dfscf             1       0.726       0.726     4.52
elaps:  overfsm           1       0.003       0.003     0.02
elaps:  pdos              1       0.161       0.161     1.00
elaps:  optical           1       0.000       0.000     0.00
  
>> End of run:  30-JUN-2010  11:57:04
