Siesta Version: siesta-trunk-479
Architecture  : atto-intel12-openmpi
Compiler flags: /share/apps/openmpi-1.6.5-intel/bin/mpif90 -w  -O2 -mp
PP flags      : -DCDF -DMPI 
PARALLEL version
NetCDF support

* Running on    4 nodes in parallel
>> Start of run:  29-SEP-2015  15:43:27

                           ***********************       
                           *  WELCOME TO SIESTA  *       
                           ***********************       

reinit: Reading from standard input
************************** Dump of input data file ****************************
SystemName          H-SiC surface
SystemLabel         sic-slab
NumberOfAtoms        78
NumberOfSpecies       3
%block ChemicalSpeciesLabel
  1  14  Si.pbe
  2   6  C.pbe
  3   1  H.pbe
%endblock ChemicalSpeciesLabel
XC.functional GGA
XC.authors PBE
######################################
NetCharge -1
SlabDipoleCorrection .true.
SimulateDoping       .true.
######################################
PAO.BasisType    split
%block PAO.Basis
Si.pbe     2  0.3305                    # Species label, number of l-shells
n=3   0   1   E   175.7234 6.2327
     6.2845
     1.0000
 n=3   1   1   E   27.01148 6.3612
     7.4564
     1.0000
C.pbe     2  -0.2034                 # Species label, number of l-shell
n=2    0   1   E   166.5952 6.0853
     6.1031
     1.0000
 n=2   1   1   E   92.8959 8.1457
     8.2107
     1.0000
%endblock PAOBasis
#####################################################
LatticeConstant     4.41 Ang
%block LatticeVectors
   2.1213  0.000   0.000
   0.000   1.4142  0.000
   0.000   0.000   6.000
%endblock LatticeVectors
%block kgrid_Monkhorst_Pack
   2 0 0  0.5
   0 2 0  0.5
   0 0 1  0.5
%endblock Kgrid_Monkhorst_Pack
MeshCutoff          150.0 Ry
MaxSCFIterations    1000
DM.MixingWeight      0.01
DM.MixSCF1           true
DM.NumberPulay       3
DM.Tolerance         1.d-3
Diag.ParallelOverK .false.
SolutionMethod       diagon
Diag.DivideandConquer .false.
MD.TypeOfRun         cg
MD.NumCGsteps       0
UseSaveData    true
AtomicCoordinatesFormat Ang
%block AtomicCoordinatesAndAtomicSpecies
   0.00000000    0.00000000    1.10867100 1
   0.00000000    3.11831100    1.10867100 1
   3.11831100    0.00000000    1.10867100 1
   3.11831100    3.11831100    1.10867100 1
   6.23662200    0.00000000    1.10867100 1
   6.23662200    3.11831100    1.10867100 1
   1.55915550    1.55915550    3.32601240 1
   1.55915550    4.67746650    3.32601240 1
   4.67746650    1.55915550    3.32601240 1
   4.67746650    4.67746650    3.32601240 1
   7.79577750    1.55915550    3.32601240 1
   7.79577750    4.67746650    3.32601240 1
   0.01027940    0.00664970    5.52302280 1
   0.01060850    3.11373910    5.52300540 1
   3.11458540    0.00550670    5.55345380 1
   3.11432280    3.11491680    5.55344830 1
   6.21927560    0.00802080    5.52490330 1
   6.21927070    3.11221930    5.52519910 1
   1.53746550    1.56090880    7.79610790 1
   1.53912180    4.67933110    7.75737400 1
   4.67580380    1.56044320    7.80269800 1
   4.69155670    4.67867200    7.75674950 1
   7.79257630    1.56066510    7.68854410 1
   7.79713220    4.67880950    7.65962760 1
  -0.33280770   -0.01336080    9.92270830 1
  -0.33242730    3.13658110    9.92293350 1
   3.08498250   -0.05468280    9.99183650 1
   3.08472280    3.17626970    9.99165200 1
   6.58190510   -0.01079790    9.90436510 1
   6.58215340    3.13279030    9.90477480 1
   1.32297380   -0.31629120   11.58010590 1
   4.92684820   -0.33978750   11.55125900 1
   1.32312360    3.44028980   11.58008110 1
   4.92654070    3.45989040   11.55135850 1
   1.68230240    1.56163700   13.12703150 1
   3.93025970    1.56016040   12.52144840 1
   0.00000000    1.55915550    0.00000000 2
   0.00000000    4.67746650    0.00000000 2
   3.11831100    1.55915550    0.00000000 2
   3.11831100    4.67746650    0.00000000 2
   6.23662200    1.55915550    0.00000000 2
   6.23662200    4.67746650    0.00000000 2
   1.55915550    0.00000000    2.21734150 2
   1.55915550    3.11831100    2.21734150 2
   4.67746650    0.00000000    2.21734150 2
   4.67746650    3.11831100    2.21734150 2
   7.79577750    0.00000000    2.21734150 2
   7.79577750    3.11831100    2.21734150 2
   0.00531870    1.55987010    4.41991710 2
   0.00620000    4.67832990    4.42719290 2
   3.11734330    1.55994490    4.43660560 2
   3.11751020    4.67818500    4.44245880 2
   6.22983140    1.55995350    4.42029700 2
   6.22768100    4.67819940    4.42927320 2
   1.54987200    0.01038930    6.66089170 2
   1.54989930    3.11111970    6.66082310 2
   4.67705400    0.01173830    6.66325450 2
   4.67674840    3.10875430    6.66327630 2
   7.79169160    0.00862610    6.59215330 2
   7.79170900    3.11240310    6.59204890 2
  -0.04591870    1.56135990    8.85207770 2
  -0.04873180    4.67963390    8.80706140 2
   3.09699940    1.56106940    8.93969330 2
   3.12217110    4.67917250    8.81700870 2
   6.26457750    1.56075320    8.84988940 2
   6.27978670    4.67918460    8.80346650 2
   0.79289900    1.55919600   -0.70000000 3
  -0.90452600    1.55914300   -0.70000000 3
   0.87543500    4.67746100   -0.70000000 3
  -0.82520000    4.67745700   -0.70000000 3
   3.91123500    1.55915500   -0.70000000 3
   2.21388900    1.55909500   -0.70000000 3
   3.99394100    4.67746400   -0.70000000 3
   2.29330300    4.67744400   -0.70000000 3
   7.02960600    1.55915400   -0.70000000 3
   5.33218600    1.55915100   -0.70000000 3
   7.11239100    4.67746100   -0.70000000 3
   5.41177000    4.67745900   -0.70000000 3
%endblock AtomicCoordinatesAndAtomicSpecies
##########################################################
SaveTotalPotential .true.
SaveElectrostaticPotential .true.
SaveRho .true.
SaveDeltarho .true.
************************** End of input data file *****************************

reinit: -----------------------------------------------------------------------
reinit: System Name: H-SiC surface
reinit: -----------------------------------------------------------------------
reinit: System Label: sic-slab                                                    
reinit: -----------------------------------------------------------------------

initatom: Reading input for the pseudopotentials and atomic orbitals ----------
 Species number:            1  Label: Si.pbe Atomic number:          14
 Species number:            2  Label: C.pbe Atomic number:           6
 Species number:            3  Label: H.pbe Atomic number:           1
Ground state valence configuration:   3s02  3p02
Reading pseudopotential information in formatted form from Si.pbe.psf

Valence configuration for pseudopotential generation:
3s( 2.00) rc: 1.89
3p( 2.00) rc: 1.89
3d( 0.00) rc: 1.89
4f( 0.00) rc: 1.89
Ground state valence configuration:   2s02  2p02
Reading pseudopotential information in formatted form from C.pbe.psf

Valence configuration for pseudopotential generation:
2s( 2.00) rc: 1.49
2p( 2.00) rc: 1.52
3d( 0.00) rc: 1.52
Ground state valence configuration:   1s01
Reading pseudopotential information in formatted form from H.pbe.psf

Valence configuration for pseudopotential generation:
1s( 1.00) rc: 1.43
2p( 0.00) rc: 1.25
3d( 0.00) rc: 1.25
4f( 0.00) rc: 1.25
For Si.pbe, standard SIESTA heuristics set lmxkb to 2
 (one more than the basis l, including polarization orbitals).
Use PS.lmax or PS.KBprojectors blocks to override.
For C.pbe, standard SIESTA heuristics set lmxkb to 2
 (one more than the basis l, including polarization orbitals).
Use PS.lmax or PS.KBprojectors blocks to override.
For H.pbe, standard SIESTA heuristics set lmxkb to 2
 (one more than the basis l, including polarization orbitals).
Use PS.lmax or PS.KBprojectors blocks to override.

<basis_specs>
===============================================================================
Si.pbe               Z=  14    Mass=  28.090        Charge= 0.33050    
Lmxo=1 Lmxkb= 2    BasisType=split      Semic=F
L=0  Nsemic=0  Cnfigmx=3
          n=1  nzeta=1  polorb=0
            splnorm:   0.15000    
               vcte:    175.72    
               rinn:    6.2327    
               qcoe:    0.0000    
               qyuk:    0.0000    
               qwid:   0.10000E-01
                rcs:    6.2845    
            lambdas:   1.00000    
L=1  Nsemic=0  Cnfigmx=3
          n=1  nzeta=1  polorb=0
            splnorm:   0.15000    
               vcte:    27.011    
               rinn:    6.3612    
               qcoe:    0.0000    
               qyuk:    0.0000    
               qwid:   0.10000E-01
                rcs:    7.4564    
            lambdas:   1.00000    
-------------------------------------------------------------------------------
L=0  Nkbl=1  erefs: 0.17977+309
L=1  Nkbl=1  erefs: 0.17977+309
L=2  Nkbl=1  erefs: 0.17977+309
===============================================================================
</basis_specs>

atom: Called for Si.pbe                (Z =  14)

read_vps: Pseudopotential generation method:
read_vps: ATM3      Troullier-Martins                       
Total valence charge:    4.00000

xc_check: Exchange-correlation functional:
xc_check: GGA Perdew, Burke & Ernzerhof 1996
V l=0 = -2*Zval/r beyond r=  2.7826
V l=1 = -2*Zval/r beyond r=  2.7826
V l=2 = -2*Zval/r beyond r=  2.7826
All V_l potentials equal beyond r=  1.8652
This should be close to max(r_c) in ps generation
All pots = -2*Zval/r beyond r=  2.7826
Using large-core scheme for Vlocal

atom: Estimated core radius    2.78258

atom: Including non-local core corrections could be a good idea
atom: Maximum radius for 4*pi*r*r*local-pseudopot. charge    3.07525
atom: Maximum radius for r*vlocal+2*Zval:    2.81758
GHOST: No ghost state for L =  0
GHOST: No ghost state for L =  1
GHOST: No ghost state for L =  2

KBgen: Kleinman-Bylander projectors: 
   l= 0   rc=  1.936440   el= -0.791474   Ekb=  4.527346   kbcos=  0.300929
   l= 1   rc=  1.936440   el= -0.300649   Ekb=  1.471620   kbcos=  0.304055
   l= 2   rc=  1.936440   el=  0.001958   Ekb= -2.865202   kbcos= -0.050894

KBgen: Total number of  Kleinman-Bylander projectors:    9
atom: -------------------------------------------------------------------------

atom: SANKEY-TYPE ORBITALS:

atom: basis set generated (by rescaling the valence charge)
atom: for a cation of charge   0.3305

SPLIT: Orbitals with angular momentum L= 0

SPLIT: Basis orbitals for state 3s

   izeta = 1
                 lambda =    1.000000
                     rc =    6.270866
                 energy =   -1.030900
                kinetic =    0.542146
    potential(screened) =   -1.573046
       potential(ionic) =   -3.777459

SPLIT: Orbitals with angular momentum L= 1

SPLIT: Basis orbitals for state 3p

   izeta = 1
                 lambda =    1.000000
                     rc =    7.470179
                 energy =   -0.513956
                kinetic =    0.889669
    potential(screened) =   -1.403625
       potential(ionic) =   -3.442715
atom: Total number of Sankey-type orbitals:  4

atm_pop: Valence configuration (for local Pseudopot. screening):
 3s( 2.00)                                                            
 3p( 2.00)                                                            
Vna: chval, zval:    4.00000   4.00000

Vna:  Cut-off radius for the neutral-atom potential:   7.470179

atom: _________________________________________________________________________

<basis_specs>
===============================================================================
C.pbe                Z=   6    Mass=  12.010        Charge=-0.20340    
Lmxo=1 Lmxkb= 2    BasisType=split      Semic=F
L=0  Nsemic=0  Cnfigmx=2
          n=1  nzeta=1  polorb=0
            splnorm:   0.15000    
               vcte:    166.60    
               rinn:    6.0853    
               qcoe:    0.0000    
               qyuk:    0.0000    
               qwid:   0.10000E-01
                rcs:    6.1031    
            lambdas:   1.00000    
L=1  Nsemic=0  Cnfigmx=2
          n=1  nzeta=1  polorb=0
            splnorm:   0.15000    
               vcte:    92.896    
               rinn:    8.1457    
               qcoe:    0.0000    
               qyuk:    0.0000    
               qwid:   0.10000E-01
                rcs:    8.2107    
            lambdas:   1.00000    
-------------------------------------------------------------------------------
L=0  Nkbl=1  erefs: 0.17977+309
L=1  Nkbl=1  erefs: 0.17977+309
L=2  Nkbl=1  erefs: 0.17977+309
===============================================================================
</basis_specs>

atom: Called for C.pbe                 (Z =   6)

read_vps: Pseudopotential generation method:
read_vps: ATM 3.2.2 Troullier-Martins                       
Total valence charge:    4.00000

read_vps: Pseudopotential includes a core correction:
read_vps: Pseudo-core for xc-correction

xc_check: Exchange-correlation functional:
xc_check: GGA Perdew, Burke & Ernzerhof 1996
V l=0 = -2*Zval/r beyond r=  1.4666
V l=1 = -2*Zval/r beyond r=  1.5038
V l=2 = -2*Zval/r beyond r=  1.5038
All V_l potentials equal beyond r=  1.5038
This should be close to max(r_c) in ps generation
All pots = -2*Zval/r beyond r=  1.5038

VLOCAL1: 99.0% of the norm of Vloc inside     19.196 Ry
VLOCAL1: 99.9% of the norm of Vloc inside     43.748 Ry
atom: Maximum radius for 4*pi*r*r*local-pseudopot. charge    1.81396
atom: Maximum radius for r*vlocal+2*Zval:    1.56123
GHOST: No ghost state for L =  0
GHOST: No ghost state for L =  1
GHOST: No ghost state for L =  2

KBgen: Kleinman-Bylander projectors: 
   l= 0   rc=  1.682861   el= -1.009802   Ekb=  5.530688   kbcos=  0.309203
   l= 1   rc=  1.682861   el= -0.388707   Ekb= -3.901042   kbcos= -0.358653
   l= 2   rc=  1.769164   el=  0.001971   Ekb= -0.965319   kbcos= -0.008918

KBgen: Total number of  Kleinman-Bylander projectors:    9
atom: -------------------------------------------------------------------------

atom: SANKEY-TYPE ORBITALS:

atom: basis set generated (by rescaling the valence charge)
atom: for an anion of charge  -0.2034

SPLIT: Orbitals with angular momentum L= 0

SPLIT: Basis orbitals for state 2s

   izeta = 1
                 lambda =    1.000000
                     rc =    6.099293
                 energy =   -1.008072
                kinetic =    0.786791
    potential(screened) =   -1.794863
       potential(ionic) =   -5.296547

SPLIT: Orbitals with angular momentum L= 1

SPLIT: Basis orbitals for state 2p

   izeta = 1
                 lambda =    1.000000
                     rc =    8.233328
                 energy =   -0.384246
                kinetic =    2.061715
    potential(screened) =   -2.445961
       potential(ionic) =   -5.701979
atom: Total number of Sankey-type orbitals:  4

atm_pop: Valence configuration (for local Pseudopot. screening):
 2s( 2.00)                                                            
 2p( 2.00)                                                            
Vna: chval, zval:    4.00000   4.00000

Vna:  Cut-off radius for the neutral-atom potential:   8.233328
comcore: Pseudo-core radius Rcore=  1.791422

atom: _________________________________________________________________________

<basis_specs>
===============================================================================
H.pbe                Z=   1    Mass=  1.0100        Charge= 0.17977+309
Lmxo=0 Lmxkb= 2    BasisType=split      Semic=F
L=0  Nsemic=0  Cnfigmx=1
          n=1  nzeta=2  polorb=1
            splnorm:   0.15000    
               vcte:    0.0000    
               rinn:    0.0000    
               qcoe:    0.0000    
               qyuk:    0.0000    
               qwid:   0.10000E-01
                rcs:    0.0000      0.0000    
            lambdas:   1.00000     1.00000    
-------------------------------------------------------------------------------
L=0  Nkbl=1  erefs: 0.17977+309
L=1  Nkbl=1  erefs: 0.17977+309
L=2  Nkbl=1  erefs: 0.17977+309
===============================================================================
</basis_specs>

atom: Called for H.pbe                 (Z =   1)

read_vps: Pseudopotential generation method:
read_vps: ATM 3.2.2 Troullier-Martins                       
Total valence charge:    1.00000

xc_check: Exchange-correlation functional:
xc_check: GGA Perdew, Burke & Ernzerhof 1996
V l=0 = -2*Zval/r beyond r=  1.4166
V l=1 = -2*Zval/r beyond r=  1.3816
V l=2 = -2*Zval/r beyond r=  1.3816
All V_l potentials equal beyond r=  1.4166
This should be close to max(r_c) in ps generation
All pots = -2*Zval/r beyond r=  1.4166

VLOCAL1: 99.0% of the norm of Vloc inside     21.631 Ry
VLOCAL1: 99.9% of the norm of Vloc inside     49.298 Ry
atom: Maximum radius for 4*pi*r*r*local-pseudopot. charge    1.66698
atom: Maximum radius for r*vlocal+2*Zval:    1.39896
GHOST: No ghost state for L =  0
GHOST: No ghost state for L =  1
GHOST: No ghost state for L =  2

KBgen: Kleinman-Bylander projectors: 
   l= 0   rc=  1.565833   el= -0.477200   Ekb= -1.851072   kbcos= -0.391986
   l= 1   rc=  1.646243   el=  0.001076   Ekb= -0.560969   kbcos= -0.025747
   l= 2   rc=  1.687980   el=  0.002010   Ekb= -0.184546   kbcos= -0.003662

KBgen: Total number of  Kleinman-Bylander projectors:    9
atom: -------------------------------------------------------------------------

atom: SANKEY-TYPE ORBITALS:
atom: Selected multiple-zeta basis: split     

SPLIT: Orbitals with angular momentum L= 0

SPLIT: Basis orbitals for state 1s

SPLIT: PAO cut-off radius determined from an
SPLIT: energy shift=  0.020000 Ry

   izeta = 1
                 lambda =    1.000000
                     rc =    4.708991
                 energy =   -0.457754
                kinetic =    0.969078
    potential(screened) =   -1.426832
       potential(ionic) =   -1.954497

   izeta = 2
                 rmatch =    3.759707
              splitnorm =    0.150000
                 energy =   -0.338955
                kinetic =    1.561908
    potential(screened) =   -1.900862
       potential(ionic) =   -2.450466

POLgen: Perturbative polarization orbital with L=  1

POLgen: Polarization orbital for state 1s

   izeta = 1
                     rc =    4.708991
                 energy =    0.764844
                kinetic =    1.483543
    potential(screened) =   -0.718699
       potential(ionic) =   -1.210766
atom: Total number of Sankey-type orbitals:  5

atm_pop: Valence configuration (for local Pseudopot. screening):
 1s( 1.00)                                                            
Vna: chval, zval:    1.00000   1.00000

Vna:  Cut-off radius for the neutral-atom potential:   4.708991

atom: _________________________________________________________________________

prinput: Basis input ----------------------------------------------------------

PAO.BasisType split     

%block ChemicalSpeciesLabel
    1   14 Si.pbe                  # Species index, atomic number, species label
    2    6 C.pbe                   # Species index, atomic number, species label
    3    1 H.pbe                   # Species index, atomic number, species label
%endblock ChemicalSpeciesLabel

%block PAO.Basis                 # Define Basis set
Si.pbe                2   0.331            # Label, l-shells, ionic net charge
 n=3   0   1                         # n, l, Nzeta 
   6.271   
   1.000   
 n=3   1   1                         # n, l, Nzeta 
   7.470   
   1.000   
C.pbe                 2  -0.203            # Label, l-shells, ionic net charge
 n=2   0   1                         # n, l, Nzeta 
   6.099   
   1.000   
 n=2   1   1                         # n, l, Nzeta 
   8.233   
   1.000   
H.pbe                 1                    # Species label, number of l-shells
 n=1   0   2 P   1                   # n, l, Nzeta, Polarization, NzetaPol
   4.709      3.760   
   1.000      1.000   
%endblock PAO.Basis

prinput: ----------------------------------------------------------------------

Dumping basis to NetCDF file Si.pbe.ion.nc
Dumping basis to NetCDF file C.pbe.ion.nc
Dumping basis to NetCDF file H.pbe.ion.nc
coor:   Atomic-coordinates input format  =     Cartesian coordinates
coor:                                          (in Angstroms)

siesta: WARNING: XV file not found

siesta: Atomic coordinates (Bohr) and species
siesta:      0.00000   0.00000   2.09509  1        1
siesta:      0.00000   5.89276   2.09509  1        2
siesta:      5.89276   0.00000   2.09509  1        3
siesta:      5.89276   5.89276   2.09509  1        4
siesta:     11.78551   0.00000   2.09509  1        5
siesta:     11.78551   5.89276   2.09509  1        6
siesta:      2.94638   2.94638   6.28526  1        7
siesta:      2.94638   8.83913   6.28526  1        8
siesta:      8.83913   2.94638   6.28526  1        9
siesta:      8.83913   8.83913   6.28526  1       10
siesta:     14.73189   2.94638   6.28526  1       11
siesta:     14.73189   8.83913   6.28526  1       12
siesta:      0.01943   0.01257  10.43700  1       13
siesta:      0.02005   5.88412  10.43697  1       14
siesta:      5.88572   0.01041  10.49451  1       15
siesta:      5.88522   5.88634  10.49450  1       16
siesta:     11.75273   0.01516  10.44056  1       17
siesta:     11.75272   5.88124  10.44112  1       18
siesta:      2.90539   2.94969  14.73251  1       19
siesta:      2.90852   8.84266  14.65932  1       20
siesta:      8.83599   2.94881  14.74497  1       21
siesta:      8.86576   8.84141  14.65814  1       22
siesta:     14.72584   2.94923  14.52925  1       23
siesta:     14.73445   8.84167  14.47460  1       24
siesta:     -0.62892  -0.02525  18.75121  1       25
siesta:     -0.62820   5.92728  18.75163  1       26
siesta:      5.82977  -0.10334  18.88184  1       27
siesta:      5.82928   6.00228  18.88149  1       28
siesta:     12.43800  -0.02041  18.71654  1       29
siesta:     12.43847   5.92012  18.71732  1       30
siesta:      2.50006  -0.59770  21.88324  1       31
siesta:      9.31040  -0.64211  21.82872  1       32
siesta:      2.50034   6.50121  21.88319  1       33
siesta:      9.30982   6.53825  21.82891  1       34
siesta:      3.17909   2.95107  24.80650  1       35
siesta:      7.42712   2.94828  23.66212  1       36
siesta:      0.00000   2.94638   0.00000  2       37
siesta:      0.00000   8.83913   0.00000  2       38
siesta:      5.89276   2.94638   0.00000  2       39
siesta:      5.89276   8.83913   0.00000  2       40
siesta:     11.78551   2.94638   0.00000  2       41
siesta:     11.78551   8.83913   0.00000  2       42
siesta:      2.94638   0.00000   4.19017  2       43
siesta:      2.94638   5.89276   4.19017  2       44
siesta:      8.83913   0.00000   4.19017  2       45
siesta:      8.83913   5.89276   4.19017  2       46
siesta:     14.73189   0.00000   4.19017  2       47
siesta:     14.73189   5.89276   4.19017  2       48
siesta:      0.01005   2.94773   8.35244  2       49
siesta:      0.01172   8.84077   8.36619  2       50
siesta:      5.89093   2.94787   8.38397  2       51
siesta:      5.89124   8.84049   8.39503  2       52
siesta:     11.77268   2.94789   8.35315  2       53
siesta:     11.76862   8.84052   8.37012  2       54
siesta:      2.92883   0.01963  12.58727  2       55
siesta:      2.92889   5.87917  12.58714  2       56
siesta:      8.83835   0.02218  12.59173  2       57
siesta:      8.83778   5.87470  12.59177  2       58
siesta:     14.72417   0.01630  12.45737  2       59
siesta:     14.72420   5.88159  12.45717  2       60
siesta:     -0.08677   2.95054  16.72801  2       61
siesta:     -0.09209   8.84323  16.64294  2       62
siesta:      5.85248   2.94999  16.89358  2       63
siesta:      5.90005   8.84236  16.66174  2       64
siesta:     11.83834   2.94940  16.72387  2       65
siesta:     11.86708   8.84238  16.63615  2       66
siesta:      1.49836   2.94645  -1.32281  3       67
siesta:     -1.70931   2.94635  -1.32281  3       68
siesta:      1.65433   8.83912  -1.32281  3       69
siesta:     -1.55940   8.83912  -1.32281  3       70
siesta:      7.39117   2.94638  -1.32281  3       71
siesta:      4.18365   2.94626  -1.32281  3       72
siesta:      7.54746   8.83913  -1.32281  3       73
siesta:      4.33372   8.83909  -1.32281  3       74
siesta:     13.28404   2.94638  -1.32281  3       75
siesta:     10.07638   2.94637  -1.32281  3       76
siesta:     13.44048   8.83912  -1.32281  3       77
siesta:     10.22677   8.83912  -1.32281  3       78

siesta: System type = slab      

initatomlists: Number of atoms, orbitals, and projectors:     78   324   702

siesta: ******************** Simulation parameters ****************************
siesta:
siesta: The following are some of the parameters of the simulation.
siesta: A complete list of the parameters used, including default values,
siesta: can be found in file out.fdf
siesta:
redata: Non-Collinear-spin run           =     F
redata: SpinPolarized (Up/Down) run      =     F
redata: Number of spin components        =     1
redata: Long output                      =     F
redata: Number of Atomic Species         =        3
redata: Charge density info will appear in .RHO file
redata: Write Mulliken Pop.              =     NO
redata: Mesh Cutoff                      =   150.0000  Ry
redata: Net charge of the system         =    -1.0000 |e|
redata: Min. number of SCF Iter          =        0
redata: Max. number of SCF Iter          =     1000
redata: Mix DM or H after convergence    =     F
redata: Recompute H after scf cycle      =     F
redata: Performing Pulay mixing using    =     3 iterations
redata: Mix DM in first SCF step ?       =     T
redata: Write Pulay info on disk?        =     F
redata: Discard 1st Pulay DM after  kick =     F
redata: New DM Mixing Weight             =     0.0100
redata: New DM Occupancy tolerance       = 0.000000000001
redata: No kicks to SCF
redata: DM Mixing Weight for Kicks       =     0.5000
redata: DM Tolerance for SCF             =     0.001000
redata: Require (free) Energy convergence in SCF =     F
redata: DM (free)Energy tolerance for SCF =     0.000010 eV
redata: Require Harris convergence for SCF =     F
redata: DM Harris energy tolerance for SCF =     0.000010 eV
redata: Using Saved Data (generic)   =     T
redata: Use continuation files for DM    =     T
redata: Neglect nonoverlap interactions  =     F
redata: Method of Calculation            =     Diagonalization
redata: Divide and Conquer               =     F
redata: Electronic Temperature           =     0.0019  Ry
redata: Fix the spin of the system       =     F
redata: Dynamics option                  =     Single-point calculation
redata: ***********************************************************************
Total number of electrons:   277.000000
Total ionic charge:   276.000000
madelung: WARNING: Charged system, but not an atom or molecule.
madelung: WARNING: Energy correction terms can not be applied. 
madelung: WARNING: Continue only if you really know what you are doing.

* ProcessorY, Blocksize:    2  24


* Orbital distribution balance (max,min):    96    72

k-point displ. along   3 input, could be:     0.50    0.00
 Kpoints in:            2 . Kpoints trimmed:            2

siesta: k-grid: Number of k-points =     2
siesta: k-grid: Cutoff (effective) =     6.237 Ang
siesta: k-grid: Supercell and displacements
siesta: k-grid:    2   0   0      0.500
siesta: k-grid:    0   2   0      0.500
siesta: k-grid:    0   0   1      0.500
Naive supercell factors:     3    4    1

superc: Internal auxiliary supercell:     3 x     4 x     1  =      12
superc: Number of atoms, orbitals, and projectors:    936   3888   8424

                     ====================================
                        Single-point calculation
                     ====================================

superc: Internal auxiliary supercell:     3 x     4 x     1  =      12
superc: Number of atoms, orbitals, and projectors:    936   3888   8424

outcell: Unit cell vectors (Ang):
        9.354933    0.000000    0.000000
        0.000000    6.236622    0.000000
        0.000000    0.000000   26.460000

outcell: Cell vector modules (Ang)   :    9.354933    6.236622   26.460000
outcell: Cell angles (23,13,12) (deg):     90.0000     90.0000     90.0000
outcell: Cell volume (Ang**3)        :   1543.7606
New_DM. Step:     1
Initializing Density Matrix...
Note: For starting DM, Qtot, Tr[D*S] =        277.00000000        276.00000207
New grid distribution:   1
           1       1:   36    1:   12    1:   50
           2       1:   36    1:   12   51:  100
           3       1:   36   13:   24    1:   50
           4       1:   36   13:   24   51:  100

InitMesh: MESH =    72 x    48 x   200 =      691200
InitMesh: (bp) =    36 x    24 x   100 =       86400
InitMesh: Mesh cutoff (required, used) =   150.000   157.900 Ry
ExtMesh (bp) on 0 =   104 x    80 x   118 =      981760
New grid distribution:   2
           1       1:   36    1:   24    1:   12
           2       1:   36    1:   24   34:  100
           3       1:   36    1:   24   23:   33
           4       1:   36    1:   24   13:   22
New grid distribution:   3
           1       1:   36    1:   24   39:   57
           2       1:   36    1:   24   58:  100
           3       1:   36    1:   24    1:   19
           4       1:   36    1:   24   20:   38
Setting up quadratic distribution...
ExtMesh (bp) on 0 =   104 x    92 x    80 =      765440
PhiOnMesh: Number of (b)points on node 0 =                10368
PhiOnMesh: nlist on node 0 =               983134

doping: SimulateDoping = .true. in input file
doping: Neutralizing background will be added to points
doping: other than vacuum, to simulate doping

efield: SlabDipoleCorrection = .true. in input file
efield: A dipole layer will be introduced in the vacuum
efield: region to compensate the system dipole
Dipole moment in unit cell   =      0.0000     -0.0000      1.8475 D
Electric field for dipole correction =    0.000000    0.000000   -0.001754 Ry/Bohr/e

stepf: Fermi-Dirac step function

siesta: Program's energy decomposition (eV):
siesta: Ebs     =     -3840.063915
siesta: Eions   =     14694.110283
siesta: Ena     =      3895.775417
siesta: Ekin    =      3900.433705
siesta: Enl     =       741.280612
siesta: DEna    =       -18.708477
siesta: DUscf   =         0.033660
siesta: DUext   =         0.017342
siesta: Exc     =     -2742.912351
siesta: eta*DQ  =         0.000000
siesta: Emadel  =         0.000000
siesta: Emeta   =         0.000000
siesta: Emolmec =         0.000000
siesta: Ekinion =         0.000000
siesta: Eharris =     -8823.697999
siesta: Etot    =     -8918.190374
siesta: FreeEng =     -8918.226211

   scf: iscf   Eharris(eV)      E_KS(eV)   FreeEng(eV)    dDmax  Ef(eV)
   scf:    1    -8823.6980    -8918.1904    -8918.2262  1.74602 -3.8236
timer: Routine,Calls,Time,% =    IterSCF     1       3.659  35.70
Dipole moment in unit cell   =      0.0000     -0.0000      1.6334 D
Electric field for dipole correction =    0.000000    0.000000   -0.001550 Ry/Bohr/e
   scf:    2    -8819.1600    -8917.2244    -8917.2602  1.72135 -3.7849
Dipole moment in unit cell   =      0.0000      0.0000     -8.9575 D
Electric field for dipole correction =    0.000000   -0.000000    0.008502 Ry/Bohr/e
   scf:    3    -8727.4709    -8811.9683    -8812.0086  0.77932 -2.2576
Dipole moment in unit cell   =      0.0000      0.0000     -7.6531 D
Electric field for dipole correction =    0.000000   -0.000000    0.007264 Ry/Bohr/e
   scf:    4    -8724.8309    -8819.9376    -8819.9760  0.73197 -2.1633
Dipole moment in unit cell   =      0.0000      0.0000     -7.9451 D
Electric field for dipole correction =    0.000000   -0.000000    0.007541 Ry/Bohr/e
   scf:    5    -8726.4590    -8808.5644    -8808.6022  0.74571 -2.1288
Dipole moment in unit cell   =      0.0000      0.0000     -8.0510 D
Electric field for dipole correction =    0.000000   -0.000000    0.007642 Ry/Bohr/e
   scf:    6    -8731.5131    -8781.9357    -8781.9716  0.73828 -2.1700
Dipole moment in unit cell   =      0.0000      0.0000     -4.5121 D
Electric field for dipole correction =    0.000000   -0.000000    0.004283 Ry/Bohr/e
   scf:    7    -8725.2000    -8765.2420    -8765.2779  0.47990 -3.0571
Dipole moment in unit cell   =      0.0000      0.0000     -0.5614 D
Electric field for dipole correction =    0.000000   -0.000000    0.000533 Ry/Bohr/e
   scf:    8    -8727.7454    -8730.5233    -8730.5592  0.35249 -4.0974
Dipole moment in unit cell   =      0.0000      0.0000     -1.2051 D
Electric field for dipole correction =    0.000000   -0.000000    0.001144 Ry/Bohr/e
   scf:    9    -8727.8827    -8721.2079    -8721.2437  0.33729 -3.9654
Dipole moment in unit cell   =      0.0000      0.0000     -2.1508 D
Electric field for dipole correction =    0.000000   -0.000000    0.002041 Ry/Bohr/e
   scf:   10    -8728.0002    -8710.8519    -8710.8878  0.30982 -3.7574
Dipole moment in unit cell   =      0.0000      0.0000     -7.9316 D
Electric field for dipole correction =    0.000000   -0.000000    0.007528 Ry/Bohr/e
   scf:   11    -8722.3192    -8710.7689    -8710.8048  0.07750 -2.2570
Dipole moment in unit cell   =      0.0000      0.0000     -8.2156 D
Electric field for dipole correction =    0.000000   -0.000000    0.007798 Ry/Bohr/e
   scf:   12    -8722.2787    -8710.6649    -8710.7009  0.08725 -2.1997
Dipole moment in unit cell   =      0.0000      0.0000     -8.1377 D
Electric field for dipole correction =    0.000000   -0.000000    0.007724 Ry/Bohr/e
   scf:   13    -8722.2712    -8710.7971    -8710.8331  0.07293 -2.2157
Dipole moment in unit cell   =      0.0000      0.0000     -8.2132 D
Electric field for dipole correction =    0.000000   -0.000000    0.007795 Ry/Bohr/e
   scf:   14    -8722.2156    -8711.4586    -8711.4946  0.07381 -2.2118
Dipole moment in unit cell   =      0.0000      0.0000     -8.1449 D
Electric field for dipole correction =    0.000000   -0.000000    0.007731 Ry/Bohr/e
   scf:   15    -8722.2056    -8711.8732    -8711.9091  0.07090 -2.2341
Dipole moment in unit cell   =      0.0000      0.0000     -7.9633 D
Electric field for dipole correction =    0.000000   -0.000000    0.007558 Ry/Bohr/e
   scf:   16    -8722.1802    -8712.2086    -8712.2445  0.06869 -2.2787
Dipole moment in unit cell   =      0.0000      0.0000     -7.7236 D
Electric field for dipole correction =    0.000000   -0.000000    0.007331 Ry/Bohr/e
   scf:   17    -8722.1580    -8712.6185    -8712.6543  0.06870 -2.3363
Dipole moment in unit cell   =      0.0000      0.0000     -7.5775 D
Electric field for dipole correction =    0.000000   -0.000000    0.007192 Ry/Bohr/e
   scf:   18    -8722.1618    -8712.8846    -8712.9204  0.06724 -2.3673
Dipole moment in unit cell   =      0.0000      0.0000     -7.5834 D
Electric field for dipole correction =    0.000000   -0.000000    0.007198 Ry/Bohr/e
   scf:   19    -8722.1534    -8712.9592    -8712.9950  0.06676 -2.3695
Dipole moment in unit cell   =      0.0000      0.0000     -7.1523 D
Electric field for dipole correction =    0.000000   -0.000000    0.006789 Ry/Bohr/e
   scf:   20    -8722.1360    -8714.8392    -8714.8750  0.05947 -2.4985
Dipole moment in unit cell   =      0.0000      0.0000     -6.9790 D
Electric field for dipole correction =    0.000000   -0.000000    0.006624 Ry/Bohr/e
   scf:   21    -8722.1453    -8715.7806    -8715.8164  0.06157 -2.5474
Dipole moment in unit cell   =      0.0000      0.0000     -6.9865 D
Electric field for dipole correction =    0.000000   -0.000000    0.006631 Ry/Bohr/e
   scf:   22    -8722.1489    -8716.4990    -8716.5349  0.04679 -2.5362
Dipole moment in unit cell   =      0.0000      0.0000     -6.9950 D
Electric field for dipole correction =    0.000000   -0.000000    0.006639 Ry/Bohr/e
   scf:   23    -8722.1459    -8716.5185    -8716.5543  0.04953 -2.5361
Dipole moment in unit cell   =      0.0000      0.0000     -7.1382 D
Electric field for dipole correction =    0.000000   -0.000000    0.006775 Ry/Bohr/e
   scf:   24    -8722.1454    -8718.4124    -8718.4482  0.04322 -2.4985
Dipole moment in unit cell   =      0.0000      0.0000     -7.1865 D
Electric field for dipole correction =    0.000000   -0.000000    0.006821 Ry/Bohr/e
   scf:   25    -8722.1435    -8718.7157    -8718.7516  0.04494 -2.4840
Dipole moment in unit cell   =      0.0000      0.0000     -7.6179 D
Electric field for dipole correction =    0.000000   -0.000000    0.007230 Ry/Bohr/e
   scf:   26    -8722.1177    -8720.1928    -8720.2286  0.04443 -2.3509
Dipole moment in unit cell   =      0.0000      0.0000     -7.5493 D
Electric field for dipole correction =    0.000000   -0.000000    0.007165 Ry/Bohr/e
   scf:   27    -8722.1164    -8719.7934    -8719.8292  0.03983 -2.3702
Dipole moment in unit cell   =      0.0000      0.0000     -7.5821 D
Electric field for dipole correction =    0.000000   -0.000000    0.007196 Ry/Bohr/e
   scf:   28    -8722.1126    -8719.7746    -8719.8105  0.03341 -2.3591
Dipole moment in unit cell   =      0.0000      0.0000     -7.5989 D
Electric field for dipole correction =    0.000000   -0.000000    0.007212 Ry/Bohr/e
   scf:   29    -8722.1101    -8719.7415    -8719.7773  0.02509 -2.3525
Dipole moment in unit cell   =      0.0000      0.0000     -7.4763 D
Electric field for dipole correction =    0.000000   -0.000000    0.007096 Ry/Bohr/e
   scf:   30    -8722.1086    -8719.6532    -8719.6891  0.01916 -2.3889
Dipole moment in unit cell   =      0.0000      0.0000     -7.4659 D
Electric field for dipole correction =    0.000000   -0.000000    0.007086 Ry/Bohr/e
   scf:   31    -8722.1084    -8719.6704    -8719.7063  0.01922 -2.3926
Dipole moment in unit cell   =      0.0000      0.0000     -7.4918 D
Electric field for dipole correction =    0.000000   -0.000000    0.007111 Ry/Bohr/e
   scf:   32    -8722.1073    -8720.0981    -8720.1339  0.01869 -2.3924
Dipole moment in unit cell   =      0.0000      0.0000     -7.4990 D
Electric field for dipole correction =    0.000000   -0.000000    0.007118 Ry/Bohr/e
   scf:   33    -8722.1064    -8720.0883    -8720.1241  0.01692 -2.3895
Dipole moment in unit cell   =      0.0000      0.0000     -7.7037 D
Electric field for dipole correction =    0.000000   -0.000000    0.007312 Ry/Bohr/e
   scf:   34    -8722.0988    -8720.7100    -8720.7458  0.01266 -2.3285
Dipole moment in unit cell   =      0.0000      0.0000     -7.6754 D
Electric field for dipole correction =    0.000000   -0.000000    0.007285 Ry/Bohr/e
   scf:   35    -8722.0995    -8720.6852    -8720.7211  0.01231 -2.3367
Dipole moment in unit cell   =      0.0000      0.0000     -7.6934 D
Electric field for dipole correction =    0.000000   -0.000000    0.007302 Ry/Bohr/e
   scf:   36    -8722.1001    -8721.9145    -8721.9504  0.00962 -2.3279
Dipole moment in unit cell   =      0.0000      0.0000     -7.6109 D
Electric field for dipole correction =    0.000000   -0.000000    0.007224 Ry/Bohr/e
   scf:   37    -8722.1026    -8721.8566    -8721.8924  0.00606 -2.3517
Dipole moment in unit cell   =      0.0000      0.0000     -7.5978 D
Electric field for dipole correction =    0.000000   -0.000000    0.007211 Ry/Bohr/e
   scf:   38    -8722.1030    -8721.8563    -8721.8922  0.00587 -2.3553
Dipole moment in unit cell   =      0.0000      0.0000     -7.5017 D
Electric field for dipole correction =    0.000000   -0.000000    0.007120 Ry/Bohr/e
   scf:   39    -8722.1045    -8722.1000    -8722.1358  0.00253 -2.3779
Dipole moment in unit cell   =      0.0000      0.0000     -7.5304 D
Electric field for dipole correction =    0.000000   -0.000000    0.007147 Ry/Bohr/e
   scf:   40    -8722.1034    -8722.1258    -8722.1617  0.00216 -2.3695
Dipole moment in unit cell   =      0.0000      0.0000     -7.5347 D
Electric field for dipole correction =    0.000000   -0.000000    0.007151 Ry/Bohr/e
   scf:   41    -8722.1032    -8722.1308    -8722.1666  0.00217 -2.3683
Dipole moment in unit cell   =      0.0000      0.0000     -7.5469 D
Electric field for dipole correction =    0.000000   -0.000000    0.007163 Ry/Bohr/e
   scf:   42    -8722.1025    -8722.1669    -8722.2027  0.00084 -2.3657

SCF Convergence by dMax criterion
max |DM_out - DM_in|:     0.00083859
SCF cycle converged after   42 iterations

Using DM_out to compute the final energy and forces
Dipole moment in unit cell   =      0.0000      0.0000     -7.5843 D
Electric field for dipole correction =    0.000000   -0.000000    0.007199 Ry/Bohr/e

siesta: E_KS(eV) =            -8722.1011

siesta: E_KS - E_eggbox =     -8722.1011

siesta: Atomic forces (eV/Ang):
----------------------------------------
   Tot   -0.001620    0.003463   -0.328302
----------------------------------------
   Max    2.412956
   Res    0.556664    sqrt( Sum f_i^2 / 3N )
----------------------------------------
   Max    2.412956    constrained

Stress-tensor-Voigt (kbar):      -76.53      -69.52      -64.50       -0.01        0.19        2.47
(Free)E + p*V (eV/cell)    -8654.5148
Target enthalpy (eV/cell)    -8722.1369

siesta: Program's energy decomposition (eV):
siesta: Ebs     =     -3426.766170
siesta: Eions   =     14694.110283
siesta: Ena     =      3895.775417
siesta: Ekin    =      4991.975050
siesta: Enl     =       133.187770
siesta: DEna    =      -260.413489
siesta: DUscf   =        63.581568
siesta: DUext   =         0.292251
siesta: Exc     =     -2852.389349
siesta: eta*DQ  =         0.000000
siesta: Emadel  =         0.000000
siesta: Emeta   =         0.000000
siesta: Emolmec =         0.000000
siesta: Ekinion =         0.000000
siesta: Eharris =     -8722.102537
siesta: Etot    =     -8722.101065
siesta: FreeEng =     -8722.136902

siesta: Final energy (eV):
siesta:  Band Struct. =   -3426.766170
siesta:       Kinetic =    4991.975050
siesta:       Hartree =   66137.065296
siesta:    Ext. field =       0.292251
siesta:   Exch.-corr. =   -2852.389349
siesta:  Ion-electron = -137037.882677
siesta:       Ion-ion =   60038.838364
siesta:       Ekinion =       0.000000
siesta:         Total =   -8722.101065

siesta: Atomic forces (eV/Ang):
siesta:      1    0.006271    0.002246   -0.553898
siesta:      2    0.006019   -0.001362   -0.553897
siesta:      3    0.001399    0.002515   -0.555081
siesta:      4    0.001504   -0.001538   -0.555073
siesta:      5   -0.003347    0.000487   -0.552572
siesta:      6   -0.003415    0.000476   -0.552416
siesta:      7    0.151491    0.004065    0.240450
siesta:      8    0.157919    0.006161    0.335344
siesta:      9   -0.185180    0.006303    0.248683
siesta:     10   -0.178711    0.004225    0.335293
siesta:     11   -0.017187    0.005927    0.341442
siesta:     12   -0.037409    0.004426    0.460776
siesta:     13   -0.050531    0.016278    0.578693
siesta:     14   -0.060834   -0.022058    0.576567
siesta:     15   -0.001332    0.003612    0.687451
siesta:     16    0.005759   -0.012064    0.686272
siesta:     17    0.035035   -0.003161    0.580588
siesta:     18    0.031419   -0.002404    0.572599
siesta:     19    0.192326   -0.002202    0.817570
siesta:     20    0.225058   -0.005463    0.865980
siesta:     21   -0.231791   -0.000711    0.814168
siesta:     22   -0.140746    0.000601    0.878040
siesta:     23   -0.043441    0.000179    0.076280
siesta:     24   -0.013346    0.003112    0.095783
siesta:     25   -0.008161    0.081254    1.061231
siesta:     26   -0.013020   -0.096133    1.057329
siesta:     27    0.285617   -0.020058    0.718879
siesta:     28    0.287378    0.027591    0.724457
siesta:     29   -0.047091    0.075126    1.231730
siesta:     30   -0.048611   -0.084247    1.224113
siesta:     31   -0.351999   -0.266380    0.089213
siesta:     32    0.013082    0.083644    0.172270
siesta:     33   -0.348881    0.258967    0.095081
siesta:     34    0.014971   -0.077797    0.168802
siesta:     35   -0.709367    0.002131    1.674145
siesta:     36    1.049732   -0.000269    1.381896
siesta:     37   -2.412956    0.000007    0.325773
siesta:     38    1.082513   -0.000042    0.052741
siesta:     39   -2.409575   -0.000176    0.320402
siesta:     40    1.089719   -0.000012    0.047986
siesta:     41   -2.408830   -0.000006    0.325244
siesta:     42    1.097379   -0.000014    0.052768
siesta:     43    0.039762   -0.000245   -0.432366
siesta:     44    0.039309    0.000940   -0.431963
siesta:     45   -0.034114    0.000509   -0.431700
siesta:     46   -0.034115    0.000156   -0.432194
siesta:     47    0.000207   -0.000869   -0.427383
siesta:     48    0.000599    0.001612   -0.427519
siesta:     49   -0.041769    0.003377   -0.542787
siesta:     50   -0.026992   -0.001248   -0.512165
siesta:     51    0.004309    0.001160   -0.515407
siesta:     52   -0.004739    0.002948   -0.502713
siesta:     53    0.017059    0.000812   -0.536336
siesta:     54    0.042109   -0.000481   -0.527685
siesta:     55   -0.058875    0.013824   -0.754073
siesta:     56   -0.059209   -0.012815   -0.748736
siesta:     57    0.088436   -0.003154   -0.751789
siesta:     58    0.093198    0.007055   -0.752979
siesta:     59    0.018042    0.000924   -0.732184
siesta:     60    0.021483   -0.003326   -0.730882
siesta:     61   -0.196730    0.002814   -0.852603
siesta:     62   -0.211200    0.001857   -0.845019
siesta:     63    0.244744   -0.009484   -0.940767
siesta:     64   -0.344209   -0.000623   -0.967522
siesta:     65    0.220903    0.007008   -0.900300
siesta:     66    0.255074   -0.003232   -0.818561
siesta:     67    1.568883   -0.000120   -1.171168
siesta:     68    0.808684    0.000050    0.805601
siesta:     69   -0.267031    0.000079    0.388714
siesta:     70   -0.795034    0.000032   -0.489084
siesta:     71    1.567176    0.000071   -1.172726
siesta:     72    0.808475    0.000335    0.804359
siesta:     73   -0.272429    0.000036    0.390234
siesta:     74   -0.798840    0.000041   -0.493838
siesta:     75    1.567627    0.000038   -1.170430
siesta:     76    0.807270    0.000042    0.805396
siesta:     77   -0.274575    0.000062    0.393061
siesta:     78   -0.803937    0.000043   -0.495887
siesta: ----------------------------------------
siesta:    Tot   -0.001620    0.003463   -0.328302

siesta: Stress tensor (static) (eV/Ang**3):
siesta:    -0.047766   -0.000005    0.001540
siesta:    -0.000005   -0.043389    0.000121
siesta:     0.001540    0.000121   -0.040256

siesta: Cell volume =       1543.760568 Ang**3

siesta: Pressure (static):
siesta:                Solid            Molecule  Units
siesta:           0.00047708          0.00031444  Ry/Bohr**3
siesta:           0.04380347          0.02887058  eV/Ang**3
siesta:          70.18165100         46.25626613  kBar
(Free)E+ p_basis*V_orbitals  =       -8682.946877
(Free)Eharris+ p_basis*V_orbitals  =       -8682.948348

siesta: Electric dipole (a.u.)  =    0.000000    0.000000   -2.983900
siesta: Electric dipole (Debye) =    0.000000    0.000000   -7.584323
Dipole moment in unit cell   =      0.0000      0.0000     -7.5843 D
Electric field for dipole correction =    0.000000   -0.000000    0.007199 Ry/Bohr/e

dhscf: Vacuum level (max, mean) =    2.203490   -0.038347 eV
>> End of run:  29-SEP-2015  15:46:18
