Siesta Version:                                        siesta-3.0-rc2
Architecture  : macosx-openmpi
Compiler flags: /opt/openmpi.gcc.gfortran/bin/mpif90 -O2
PARALLEL version

* Running on    2 nodes in parallel
>> Start of run:  30-JUN-2010  16:29:28

                           ***********************       
                           *  WELCOME TO SIESTA  *       
                           ***********************       

reinit: Reading from standard input
************************** Dump of input data file ****************************
SystemName          H-SiC surface
SystemLabel         sic-slab
NumberOfAtoms        78
NumberOfSpecies       3
%block ChemicalSpeciesLabel
  1  14  Si.pbe
  2   6  C.pbe
  3   1  H.pbe
%endblock ChemicalSpeciesLabel
XC.functional GGA
XC.authors PBE
######################################
NetCharge -1
SlabDipoleCorrection .true.
SimulateDoping       .true.
######################################
PAO.BasisType    split
%block PAO.Basis
Si.pbe     2  0.3305                    # Species label, number of l-shells
n=3   0   1   E   175.7234 6.2327
     6.2845
     1.0000
 n=3   1   1   E   27.01148 6.3612
     7.4564
     1.0000
C.pbe     2  -0.2034                 # Species label, number of l-shell
n=2    0   1   E   166.5952 6.0853
     6.1031
     1.0000
 n=2   1   1   E   92.8959 8.1457
     8.2107
     1.0000
%endblock PAOBasis
#####################################################
LatticeConstant     4.41 Ang
%block LatticeVectors
   2.1213  0.000   0.000
   0.000   1.4142  0.000
   0.000   0.000   6.000
%endblock LatticeVectors
%block kgrid_Monkhorst_Pack
   2 0 0  0.5
   0 2 0  0.5
   0 0 1  0.5
%endblock Kgrid_Monkhorst_Pack
MeshCutoff          150.0 Ry
MaxSCFIterations    1000
DM.MixingWeight      0.01
DM.MixSCF1           true
DM.NumberPulay       3
DM.Tolerance         1.d-3
Diag.ParallelOverK .false.
SolutionMethod       diagon
Diag.DivideandConquer .false.
MD.TypeOfRun         cg
MD.NumCGsteps       0
UseSaveData    true
AtomicCoordinatesFormat Ang
%block AtomicCoordinatesAndAtomicSpecies
   0.00000000    0.00000000    1.10867100 1
   0.00000000    3.11831100    1.10867100 1
   3.11831100    0.00000000    1.10867100 1
   3.11831100    3.11831100    1.10867100 1
   6.23662200    0.00000000    1.10867100 1
   6.23662200    3.11831100    1.10867100 1
   1.55915550    1.55915550    3.32601240 1
   1.55915550    4.67746650    3.32601240 1
   4.67746650    1.55915550    3.32601240 1
   4.67746650    4.67746650    3.32601240 1
   7.79577750    1.55915550    3.32601240 1
   7.79577750    4.67746650    3.32601240 1
   0.01027940    0.00664970    5.52302280 1
   0.01060850    3.11373910    5.52300540 1
   3.11458540    0.00550670    5.55345380 1
   3.11432280    3.11491680    5.55344830 1
   6.21927560    0.00802080    5.52490330 1
   6.21927070    3.11221930    5.52519910 1
   1.53746550    1.56090880    7.79610790 1
   1.53912180    4.67933110    7.75737400 1
   4.67580380    1.56044320    7.80269800 1
   4.69155670    4.67867200    7.75674950 1
   7.79257630    1.56066510    7.68854410 1
   7.79713220    4.67880950    7.65962760 1
  -0.33280770   -0.01336080    9.92270830 1
  -0.33242730    3.13658110    9.92293350 1
   3.08498250   -0.05468280    9.99183650 1
   3.08472280    3.17626970    9.99165200 1
   6.58190510   -0.01079790    9.90436510 1
   6.58215340    3.13279030    9.90477480 1
   1.32297380   -0.31629120   11.58010590 1
   4.92684820   -0.33978750   11.55125900 1
   1.32312360    3.44028980   11.58008110 1
   4.92654070    3.45989040   11.55135850 1
   1.68230240    1.56163700   13.12703150 1
   3.93025970    1.56016040   12.52144840 1
   0.00000000    1.55915550    0.00000000 2
   0.00000000    4.67746650    0.00000000 2
   3.11831100    1.55915550    0.00000000 2
   3.11831100    4.67746650    0.00000000 2
   6.23662200    1.55915550    0.00000000 2
   6.23662200    4.67746650    0.00000000 2
   1.55915550    0.00000000    2.21734150 2
   1.55915550    3.11831100    2.21734150 2
   4.67746650    0.00000000    2.21734150 2
   4.67746650    3.11831100    2.21734150 2
   7.79577750    0.00000000    2.21734150 2
   7.79577750    3.11831100    2.21734150 2
   0.00531870    1.55987010    4.41991710 2
   0.00620000    4.67832990    4.42719290 2
   3.11734330    1.55994490    4.43660560 2
   3.11751020    4.67818500    4.44245880 2
   6.22983140    1.55995350    4.42029700 2
   6.22768100    4.67819940    4.42927320 2
   1.54987200    0.01038930    6.66089170 2
   1.54989930    3.11111970    6.66082310 2
   4.67705400    0.01173830    6.66325450 2
   4.67674840    3.10875430    6.66327630 2
   7.79169160    0.00862610    6.59215330 2
   7.79170900    3.11240310    6.59204890 2
  -0.04591870    1.56135990    8.85207770 2
  -0.04873180    4.67963390    8.80706140 2
   3.09699940    1.56106940    8.93969330 2
   3.12217110    4.67917250    8.81700870 2
   6.26457750    1.56075320    8.84988940 2
   6.27978670    4.67918460    8.80346650 2
   0.79289900    1.55919600   -0.70000000 3
  -0.90452600    1.55914300   -0.70000000 3
   0.87543500    4.67746100   -0.70000000 3
  -0.82520000    4.67745700   -0.70000000 3
   3.91123500    1.55915500   -0.70000000 3
   2.21388900    1.55909500   -0.70000000 3
   3.99394100    4.67746400   -0.70000000 3
   2.29330300    4.67744400   -0.70000000 3
   7.02960600    1.55915400   -0.70000000 3
   5.33218600    1.55915100   -0.70000000 3
   7.11239100    4.67746100   -0.70000000 3
   5.41177000    4.67745900   -0.70000000 3
%endblock AtomicCoordinatesAndAtomicSpecies
##########################################################
SaveTotalPotential .true.
SaveElectrostaticPotential .true.
SaveRho .true.
SaveDeltarho .true.
************************** End of input data file *****************************

reinit: -----------------------------------------------------------------------
reinit: System Name: H-SiC surface
reinit: -----------------------------------------------------------------------
reinit: System Label: sic-slab                                                    
reinit: -----------------------------------------------------------------------

initatom: Reading input for the pseudopotentials and atomic orbitals ----------
 Species number:            1  Label: Si.pbe Atomic number:          14
 Species number:            2  Label: C.pbe Atomic number:           6
 Species number:            3  Label: H.pbe Atomic number:           1
Ground state valence configuration:   3s02  3p02
Reading pseudopotential information in formatted form from Si.pbe.psf

Valence configuration for pseudopotential generation:
3s( 2.00) rc: 1.89
3p( 2.00) rc: 1.89
3d( 0.00) rc: 1.89
4f( 0.00) rc: 1.89
Ground state valence configuration:   2s02  2p02
Reading pseudopotential information in formatted form from C.pbe.psf

Valence configuration for pseudopotential generation:
2s( 2.00) rc: 1.49
2p( 2.00) rc: 1.52
3d( 0.00) rc: 1.52
Ground state valence configuration:   1s01
Reading pseudopotential information in formatted form from H.pbe.psf

Valence configuration for pseudopotential generation:
1s( 1.00) rc: 1.43
2p( 0.00) rc: 1.25
3d( 0.00) rc: 1.25
4f( 0.00) rc: 1.25
For Si.pbe, standard SIESTA heuristics set lmxkb to 2
 (one more than the basis l, including polarization orbitals).
Use PS.lmax or PS.KBprojectors blocks to override.
For C.pbe, standard SIESTA heuristics set lmxkb to 2
 (one more than the basis l, including polarization orbitals).
Use PS.lmax or PS.KBprojectors blocks to override.
For H.pbe, standard SIESTA heuristics set lmxkb to 2
 (one more than the basis l, including polarization orbitals).
Use PS.lmax or PS.KBprojectors blocks to override.

<basis_specs>
===============================================================================
Si.pbe               Z=  14    Mass=  28.090        Charge= 0.33050    
Lmxo=1 Lmxkb=2     BasisType=split      Semic=F
L=0  Nsemic=0  Cnfigmx=3
          n=1  nzeta=1  polorb=0
            splnorm:   0.15000    
               vcte:    175.72    
               rinn:    6.2327    
                rcs:    6.2845    
            lambdas:    1.0000    
L=1  Nsemic=0  Cnfigmx=3
          n=1  nzeta=1  polorb=0
            splnorm:   0.15000    
               vcte:    27.011    
               rinn:    6.3612    
                rcs:    7.4564    
            lambdas:    1.0000    
-------------------------------------------------------------------------------
L=0  Nkbl=1  erefs: 0.17977+309
L=1  Nkbl=1  erefs: 0.17977+309
L=2  Nkbl=1  erefs: 0.17977+309
===============================================================================
</basis_specs>

atom: Called for Si.pbe                (Z =  14)

read_vps: Pseudopotential generation method:
read_vps: ATM3      Troullier-Martins                       
Total valence charge:    4.00000

xc_check: Exchange-correlation functional:
xc_check: GGA Perdew, Burke & Ernzerhof 1996
V l=0 = -2*Zval/r beyond r=  2.7826
V l=1 = -2*Zval/r beyond r=  2.7826
V l=2 = -2*Zval/r beyond r=  2.7826
All V_l potentials equal beyond r=  1.8652
This should be close to max(r_c) in ps generation
All pots = -2*Zval/r beyond r=  2.7826
Using large-core scheme for Vlocal

atom: Estimated core radius    2.78258

atom: Including non-local core corrections could be a good idea
atom: Maximum radius for 4*pi*r*r*local-pseudopot. charge    3.07525
atom: Maximum radius for r*vlocal+2*Zval:    2.81758
GHOST: No ghost state for L =  0
GHOST: No ghost state for L =  1
GHOST: No ghost state for L =  2

KBgen: Kleinman-Bylander projectors: 
   l= 0   rc=  1.936440   el= -0.791474   Ekb=  4.527346   kbcos=  0.300929
   l= 1   rc=  1.936440   el= -0.300649   Ekb=  1.471620   kbcos=  0.304055
   l= 2   rc=  1.936440   el=  0.001958   Ekb= -2.865202   kbcos= -0.050894

KBgen: Total number of  Kleinman-Bylander projectors:    9
atom: -------------------------------------------------------------------------

atom: SANKEY-TYPE ORBITALS:

atom: basis set generated (by rescaling the valence charge)
atom: for a cation of charge   0.3305

SPLIT: Orbitals with angular momentum L= 0

SPLIT: Basis orbitals for state 3s

   izeta = 1
                 lambda =    1.000000
                     rc =    6.270866
                 energy =   -1.030900
                kinetic =    0.542146
    potential(screened) =   -1.573046
       potential(ionic) =   -3.777459

SPLIT: Orbitals with angular momentum L= 1

SPLIT: Basis orbitals for state 3p

   izeta = 1
                 lambda =    1.000000
                     rc =    7.470179
                 energy =   -0.513956
                kinetic =    0.889669
    potential(screened) =   -1.403625
       potential(ionic) =   -3.442715
atom: Total number of Sankey-type orbitals:  4

atm_pop: Valence configuration (for local Pseudopot. screening):
 3s( 2.00)                                                            
 3p( 2.00)                                                            
Vna: chval, zval:    4.00000   4.00000

Vna:  Cut-off radius for the neutral-atom potential:   7.470179

atom: _________________________________________________________________________

<basis_specs>
===============================================================================
C.pbe                Z=   6    Mass=  12.010        Charge=-0.20340    
Lmxo=1 Lmxkb=2     BasisType=split      Semic=F
L=0  Nsemic=0  Cnfigmx=2
          n=1  nzeta=1  polorb=0
            splnorm:   0.15000    
               vcte:    166.60    
               rinn:    6.0853    
                rcs:    6.1031    
            lambdas:    1.0000    
L=1  Nsemic=0  Cnfigmx=2
          n=1  nzeta=1  polorb=0
            splnorm:   0.15000    
               vcte:    92.896    
               rinn:    8.1457    
                rcs:    8.2107    
            lambdas:    1.0000    
-------------------------------------------------------------------------------
L=0  Nkbl=1  erefs: 0.17977+309
L=1  Nkbl=1  erefs: 0.17977+309
L=2  Nkbl=1  erefs: 0.17977+309
===============================================================================
</basis_specs>

atom: Called for C.pbe                 (Z =   6)

read_vps: Pseudopotential generation method:
read_vps: ATM 3.2.2 Troullier-Martins                       
Total valence charge:    4.00000

read_vps: Pseudopotential includes a core correction:
read_vps: Pseudo-core for xc-correction

xc_check: Exchange-correlation functional:
xc_check: GGA Perdew, Burke & Ernzerhof 1996
V l=0 = -2*Zval/r beyond r=  1.4666
V l=1 = -2*Zval/r beyond r=  1.5038
V l=2 = -2*Zval/r beyond r=  1.5038
All V_l potentials equal beyond r=  1.5038
This should be close to max(r_c) in ps generation
All pots = -2*Zval/r beyond r=  1.5038

VLOCAL1: 99.0% of the norm of Vloc inside     19.196 Ry
VLOCAL1: 99.9% of the norm of Vloc inside     43.748 Ry
atom: Maximum radius for 4*pi*r*r*local-pseudopot. charge    1.81396
atom: Maximum radius for r*vlocal+2*Zval:    1.56123
GHOST: No ghost state for L =  0
GHOST: No ghost state for L =  1
GHOST: No ghost state for L =  2

KBgen: Kleinman-Bylander projectors: 
   l= 0   rc=  1.682861   el= -1.009802   Ekb=  5.530688   kbcos=  0.309203
   l= 1   rc=  1.682861   el= -0.388707   Ekb= -3.901042   kbcos= -0.358653
   l= 2   rc=  1.769164   el=  0.001971   Ekb= -0.965319   kbcos= -0.008918

KBgen: Total number of  Kleinman-Bylander projectors:    9
atom: -------------------------------------------------------------------------

atom: SANKEY-TYPE ORBITALS:

atom: basis set generated (by rescaling the valence charge)
atom: for an anion of charge  -0.2034

SPLIT: Orbitals with angular momentum L= 0

SPLIT: Basis orbitals for state 2s

   izeta = 1
                 lambda =    1.000000
                     rc =    6.099293
                 energy =   -1.008072
                kinetic =    0.786791
    potential(screened) =   -1.794863
       potential(ionic) =   -5.296547

SPLIT: Orbitals with angular momentum L= 1

SPLIT: Basis orbitals for state 2p

   izeta = 1
                 lambda =    1.000000
                     rc =    8.233328
                 energy =   -0.384246
                kinetic =    2.061715
    potential(screened) =   -2.445961
       potential(ionic) =   -5.701979
atom: Total number of Sankey-type orbitals:  4

atm_pop: Valence configuration (for local Pseudopot. screening):
 2s( 2.00)                                                            
 2p( 2.00)                                                            
Vna: chval, zval:    4.00000   4.00000

Vna:  Cut-off radius for the neutral-atom potential:   8.233328
comcore: Pseudo-core radius Rcore=  1.791422

atom: _________________________________________________________________________

<basis_specs>
===============================================================================
H.pbe                Z=   1    Mass=  1.0100        Charge= 0.17977+309
Lmxo=0 Lmxkb=2     BasisType=split      Semic=F
L=0  Nsemic=0  Cnfigmx=1
          n=1  nzeta=2  polorb=1
            splnorm:   0.15000    
               vcte:    0.0000    
               rinn:    0.0000    
                rcs:    0.0000      0.0000    
            lambdas:    1.0000      1.0000    
-------------------------------------------------------------------------------
L=0  Nkbl=1  erefs: 0.17977+309
L=1  Nkbl=1  erefs: 0.17977+309
L=2  Nkbl=1  erefs: 0.17977+309
===============================================================================
</basis_specs>

atom: Called for H.pbe                 (Z =   1)

read_vps: Pseudopotential generation method:
read_vps: ATM 3.2.2 Troullier-Martins                       
Total valence charge:    1.00000

xc_check: Exchange-correlation functional:
xc_check: GGA Perdew, Burke & Ernzerhof 1996
V l=0 = -2*Zval/r beyond r=  1.4166
V l=1 = -2*Zval/r beyond r=  1.3816
V l=2 = -2*Zval/r beyond r=  1.3816
All V_l potentials equal beyond r=  1.4166
This should be close to max(r_c) in ps generation
All pots = -2*Zval/r beyond r=  1.4166

VLOCAL1: 99.0% of the norm of Vloc inside     21.631 Ry
VLOCAL1: 99.9% of the norm of Vloc inside     49.298 Ry
atom: Maximum radius for 4*pi*r*r*local-pseudopot. charge    1.66698
atom: Maximum radius for r*vlocal+2*Zval:    1.39896
GHOST: No ghost state for L =  0
GHOST: No ghost state for L =  1
GHOST: No ghost state for L =  2

KBgen: Kleinman-Bylander projectors: 
   l= 0   rc=  1.565833   el= -0.477200   Ekb= -1.851072   kbcos= -0.391986
   l= 1   rc=  1.646243   el=  0.001076   Ekb= -0.560969   kbcos= -0.025747
   l= 2   rc=  1.687980   el=  0.002010   Ekb= -0.184546   kbcos= -0.003662

KBgen: Total number of  Kleinman-Bylander projectors:    9
atom: -------------------------------------------------------------------------

atom: SANKEY-TYPE ORBITALS:
atom: Selected multiple-zeta basis: split     

SPLIT: Orbitals with angular momentum L= 0

SPLIT: Basis orbitals for state 1s

SPLIT: PAO cut-off radius determined from an
SPLIT: energy shift=  0.020000 Ry

   izeta = 1
                 lambda =    1.000000
                     rc =    4.708991
                 energy =   -0.457754
                kinetic =    0.969078
    potential(screened) =   -1.426832
       potential(ionic) =   -1.954497

   izeta = 2
                 rmatch =    3.759707
              splitnorm =    0.150000
                 energy =   -0.338955
                kinetic =    1.561908
    potential(screened) =   -1.900862
       potential(ionic) =   -2.450466

POLgen: Perturbative polarization orbital with L=  1

POLgen: Polarization orbital for state 1s

   izeta = 1
                     rc =    4.708991
                 energy =    0.764844
                kinetic =    1.483543
    potential(screened) =   -0.718699
       potential(ionic) =   -1.210766
atom: Total number of Sankey-type orbitals:  5

atm_pop: Valence configuration (for local Pseudopot. screening):
 1s( 1.00)                                                            
Vna: chval, zval:    1.00000   1.00000

Vna:  Cut-off radius for the neutral-atom potential:   4.708991

atom: _________________________________________________________________________

prinput: Basis input ----------------------------------------------------------

PAO.BasisType split     

%block ChemicalSpeciesLabel
    1   14 Si.pbe                  # Species index, atomic number, species label
    2    6 C.pbe                   # Species index, atomic number, species label
    3    1 H.pbe                   # Species index, atomic number, species label
%endblock ChemicalSpeciesLabel

%block PAO.Basis                 # Define Basis set
Si.pbe                2   0.331            # Label, l-shells, ionic net charge
 n=3   0   1                         # n, l, Nzeta 
   6.271   
   1.000   
 n=3   1   1                         # n, l, Nzeta 
   7.470   
   1.000   
C.pbe                 2  -0.203            # Label, l-shells, ionic net charge
 n=2   0   1                         # n, l, Nzeta 
   6.099   
   1.000   
 n=2   1   1                         # n, l, Nzeta 
   8.233   
   1.000   
H.pbe                 1                    # Species label, number of l-shells
 n=1   0   2 P   1                   # n, l, Nzeta, Polarization, NzetaPol
   4.709      3.760   
   1.000      1.000   
%endblock PAO.Basis

prinput: ----------------------------------------------------------------------

coor:   Atomic-coordinates input format  =     Cartesian coordinates
coor:                                          (in Angstroms)

siesta: WARNING: XV file not found

siesta: Atomic coordinates (Bohr) and species
siesta:      0.00000   0.00000   2.09509  1        1
siesta:      0.00000   5.89276   2.09509  1        2
siesta:      5.89276   0.00000   2.09509  1        3
siesta:      5.89276   5.89276   2.09509  1        4
siesta:     11.78551   0.00000   2.09509  1        5
siesta:     11.78551   5.89276   2.09509  1        6
siesta:      2.94638   2.94638   6.28526  1        7
siesta:      2.94638   8.83913   6.28526  1        8
siesta:      8.83913   2.94638   6.28526  1        9
siesta:      8.83913   8.83913   6.28526  1       10
siesta:     14.73189   2.94638   6.28526  1       11
siesta:     14.73189   8.83913   6.28526  1       12
siesta:      0.01943   0.01257  10.43700  1       13
siesta:      0.02005   5.88412  10.43697  1       14
siesta:      5.88572   0.01041  10.49451  1       15
siesta:      5.88522   5.88634  10.49450  1       16
siesta:     11.75273   0.01516  10.44056  1       17
siesta:     11.75272   5.88124  10.44112  1       18
siesta:      2.90539   2.94969  14.73251  1       19
siesta:      2.90852   8.84266  14.65932  1       20
siesta:      8.83599   2.94881  14.74497  1       21
siesta:      8.86576   8.84141  14.65814  1       22
siesta:     14.72584   2.94923  14.52925  1       23
siesta:     14.73445   8.84167  14.47460  1       24
siesta:     -0.62892  -0.02525  18.75121  1       25
siesta:     -0.62820   5.92728  18.75163  1       26
siesta:      5.82977  -0.10334  18.88184  1       27
siesta:      5.82928   6.00228  18.88149  1       28
siesta:     12.43800  -0.02041  18.71654  1       29
siesta:     12.43847   5.92012  18.71732  1       30
siesta:      2.50006  -0.59770  21.88324  1       31
siesta:      9.31040  -0.64211  21.82872  1       32
siesta:      2.50034   6.50121  21.88319  1       33
siesta:      9.30982   6.53825  21.82891  1       34
siesta:      3.17909   2.95107  24.80650  1       35
siesta:      7.42712   2.94828  23.66212  1       36
siesta:      0.00000   2.94638   0.00000  2       37
siesta:      0.00000   8.83913   0.00000  2       38
siesta:      5.89276   2.94638   0.00000  2       39
siesta:      5.89276   8.83913   0.00000  2       40
siesta:     11.78551   2.94638   0.00000  2       41
siesta:     11.78551   8.83913   0.00000  2       42
siesta:      2.94638   0.00000   4.19017  2       43
siesta:      2.94638   5.89276   4.19017  2       44
siesta:      8.83913   0.00000   4.19017  2       45
siesta:      8.83913   5.89276   4.19017  2       46
siesta:     14.73189   0.00000   4.19017  2       47
siesta:     14.73189   5.89276   4.19017  2       48
siesta:      0.01005   2.94773   8.35244  2       49
siesta:      0.01172   8.84077   8.36619  2       50
siesta:      5.89093   2.94787   8.38397  2       51
siesta:      5.89124   8.84049   8.39503  2       52
siesta:     11.77268   2.94789   8.35315  2       53
siesta:     11.76862   8.84052   8.37012  2       54
siesta:      2.92883   0.01963  12.58727  2       55
siesta:      2.92889   5.87917  12.58714  2       56
siesta:      8.83835   0.02218  12.59173  2       57
siesta:      8.83778   5.87470  12.59177  2       58
siesta:     14.72417   0.01630  12.45737  2       59
siesta:     14.72420   5.88159  12.45717  2       60
siesta:     -0.08677   2.95054  16.72801  2       61
siesta:     -0.09209   8.84323  16.64294  2       62
siesta:      5.85248   2.94999  16.89358  2       63
siesta:      5.90005   8.84236  16.66174  2       64
siesta:     11.83834   2.94940  16.72387  2       65
siesta:     11.86708   8.84238  16.63615  2       66
siesta:      1.49836   2.94645  -1.32281  3       67
siesta:     -1.70931   2.94635  -1.32281  3       68
siesta:      1.65433   8.83912  -1.32281  3       69
siesta:     -1.55940   8.83912  -1.32281  3       70
siesta:      7.39117   2.94638  -1.32281  3       71
siesta:      4.18365   2.94626  -1.32281  3       72
siesta:      7.54746   8.83913  -1.32281  3       73
siesta:      4.33372   8.83909  -1.32281  3       74
siesta:     13.28404   2.94638  -1.32281  3       75
siesta:     10.07638   2.94637  -1.32281  3       76
siesta:     13.44048   8.83912  -1.32281  3       77
siesta:     10.22677   8.83912  -1.32281  3       78

siesta: System type = slab      

initatomlists: Number of atoms, orbitals, and projectors:     78   324   702

siesta: ******************** Simulation parameters ****************************
siesta:
siesta: The following are some of the parameters of the simulation.
siesta: A complete list of the parameters used, including default values,
siesta: can be found in file out.fdf
siesta:
redata: Non-Collinear-spin run           =     F
redata: SpinPolarized (Up/Down) run      =     F
redata: Number of spin components        =     1
redata: Long output                      =     F
redata: Number of Atomic Species         =        3
redata: Charge density info will appear in .RHO file
redata: Write Mulliken Pop.              =     NO
redata: Mesh Cutoff                      =   150.0000  Ry
redata: Net charge of the system         =    -1.0000 |e|
redata: Max. number of SCF Iter          =     1000
redata: Performing Pulay mixing using    =     3 iterations
redata: Mix DM in first SCF step ?       =     T
redata: Write Pulay info on disk?        =     F
redata: Discard 1st Pulay DM after  kick =     F
redata: New DM Mixing Weight             =     0.0100
redata: New DM Occupancy tolerance       = 0.000000000001
redata: No kicks to SCF
redata: DM Mixing Weight for Kicks       =     0.5000
redata: DM Tolerance for SCF             =     0.001000
redata: Require Energy convergence for SCF =     F
redata: DM Energy tolerance for SCF      =     0.000100 eV
redata: Require Harris convergence for SCF =     F
redata: DM Harris energy tolerance for SCF =     0.000100 eV
redata: Using Saved Data (generic)   =     T
redata: Use continuation files for DM    =     T
redata: Neglect nonoverlap interactions  =     F
redata: Method of Calculation            =     Diagonalization
redata: Divide and Conquer               =     F
redata: Electronic Temperature           =     0.0019  Ry
redata: Fix the spin of the system       =     F
redata: Dynamics option                  =     CG coord. optimization
redata: Variable cell                    =     F
redata: Use continuation files for CG    =     T
redata: Max atomic displ per move        =     0.2000  Bohr
redata: Maximum number of CG moves       =        0
redata: Force tolerance                  =     0.0016  Ry/Bohr
redata: ***********************************************************************
Total number of electrons:   277.000000
Total ionic charge:   276.000000
madelung: WARNING: Charged system, but not an atom or molecule.
madelung: WARNING: Energy correction terms can not be applied. 
madelung: WARNING: Continue only if you really know what you are doing.

* ProcessorY, Blocksize:    1  24

k-point displ. along   3 input, could be:     0.50    0.00
 Kpoints in:            2 . Kpoints trimmed:            2

siesta: k-grid: Number of k-points =     2
siesta: k-grid: Cutoff (effective) =     6.237 Ang
siesta: k-grid: Supercell and displacements
siesta: k-grid:    2   0   0      0.500
siesta: k-grid:    0   2   0      0.500
siesta: k-grid:    0   0   1      0.500
Naive supercell factors:     3    4    1

superc: Internal auxiliary supercell:     3 x     4 x     1  =      12
superc: Number of atoms, orbitals, and projectors:    936   3888   8424

* Maximum dynamic memory allocated =     3 MB

siesta:                 ==============================
                            Begin CG move =      0
                        ==============================

superc: Internal auxiliary supercell:     3 x     4 x     1  =      12
superc: Number of atoms, orbitals, and projectors:    936   3888   8424

outcell: Unit cell vectors (Ang):
        9.354933    0.000000    0.000000
        0.000000    6.236622    0.000000
        0.000000    0.000000   26.460000

outcell: Cell vector modules (Ang)   :    9.354933    6.236622   26.460000
outcell: Cell angles (23,13,12) (deg):     90.0000     90.0000     90.0000
outcell: Cell volume (Ang**3)        :   1543.7606
New_DM. Step:     1
Initializing Density Matrix...

InitMesh: MESH =    72 x    48 x   200 =      691200
InitMesh: Mesh cutoff (required, used) =   150.000   157.900 Ry

doping: SimulateDoping = .true. in input file
doping: Neutralizing background will be added to points
doping: other than vacuum, to simulate doping

efield: SlabDipoleCorrection = .true. in input file
efield: A dipole layer will be introduced in the vacuum
efield: region to compensate the system dipole
Dipole moment in unit cell   =      0.0000     -0.0000      1.8475 D
Electric field for dipole correction =   -0.000000    0.000000   -0.001754 Ry/Bohr/e

* Maximum dynamic memory allocated =   204 MB

stepf: Fermi-Dirac step function

siesta: Program's energy decomposition (eV):
siesta: Ebs     =     -3840.063933
siesta: Eions   =     14694.110283
siesta: Ena     =      3895.775417
siesta: Ekin    =      3900.433705
siesta: Enl     =       741.280612
siesta: DEna    =       -18.708474
siesta: DUscf   =         0.033660
siesta: DUext   =         0.017342
siesta: Exc     =     -2742.912273
siesta: eta*DQ  =         0.000000
siesta: Emadel  =         0.000000
siesta: Emeta   =         0.000000
siesta: Emolmec =         0.000000
siesta: Ekinion =         0.000000
siesta: Eharris =     -8823.697910
siesta: Etot    =     -8918.190293
siesta: FreeEng =     -8918.190293

siesta: iscf   Eharris(eV)      E_KS(eV)   FreeEng(eV)   dDmax  Ef(eV)
siesta:    1    -8823.6979    -8918.1903    -8918.1903  1.7460 -3.8236
timer: Routine,Calls,Time,% = IterSCF        1      82.716  97.13
elaps: Routine,Calls,Wall,% = IterSCF        1      42.677  97.08
Dipole moment in unit cell   =      0.0000     -0.0000      1.6331 D
Electric field for dipole correction =   -0.000000    0.000000   -0.001550 Ry/Bohr/e
siesta:    2    -8819.1670    -8917.2319    -8917.2678  1.7213 -3.7851
Dipole moment in unit cell   =     -0.0000      0.0000     -8.9550 D
Electric field for dipole correction =    0.000000   -0.000000    0.008500 Ry/Bohr/e
siesta:    3    -8727.4559    -8812.0475    -8812.0833  0.7790 -2.2578
Dipole moment in unit cell   =     -0.0000      0.0000     -7.6536 D
Electric field for dipole correction =    0.000000   -0.000000    0.007264 Ry/Bohr/e
siesta:    4    -8724.8332    -8819.9531    -8819.9933  0.7319 -2.1632
Dipole moment in unit cell   =     -0.0000      0.0000     -7.9430 D
Electric field for dipole correction =    0.000000   -0.000000    0.007539 Ry/Bohr/e
siesta:    5    -8726.4630    -8808.5505    -8808.5889  0.7456 -2.1291
Dipole moment in unit cell   =     -0.0000      0.0000     -8.0595 D
Electric field for dipole correction =    0.000000   -0.000000    0.007650 Ry/Bohr/e
siesta:    6    -8731.4820    -8782.1463    -8782.1841  0.7387 -2.1671
Dipole moment in unit cell   =     -0.0000      0.0000     -4.2691 D
Electric field for dipole correction =    0.000000   -0.000000    0.004052 Ry/Bohr/e
siesta:    7    -8724.9858    -8764.0844    -8764.1203  0.4667 -3.1162
Dipole moment in unit cell   =     -0.0000      0.0000     -0.5960 D
Electric field for dipole correction =    0.000000   -0.000000    0.000566 Ry/Bohr/e
siesta:    8    -8727.7464    -8730.3960    -8730.4319  0.3534 -4.0871
Dipole moment in unit cell   =     -0.0000      0.0000     -1.2412 D
Electric field for dipole correction =    0.000000   -0.000000    0.001178 Ry/Bohr/e
siesta:    9    -8727.8849    -8721.0650    -8721.1009  0.3380 -3.9551
Dipole moment in unit cell   =     -0.0000      0.0000     -2.1660 D
Electric field for dipole correction =    0.000000   -0.000000    0.002056 Ry/Bohr/e
siesta:   10    -8727.9839    -8711.1057    -8711.1415  0.3105 -3.7515
Dipole moment in unit cell   =     -0.0000      0.0000     -8.0090 D
Electric field for dipole correction =    0.000000   -0.000000    0.007602 Ry/Bohr/e
siesta:   11    -8722.3247    -8711.4700    -8711.5058  0.0733 -2.2404
Dipole moment in unit cell   =     -0.0000      0.0000     -8.2832 D
Electric field for dipole correction =    0.000000   -0.000000    0.007862 Ry/Bohr/e
siesta:   12    -8722.2865    -8711.4476    -8711.4835  0.0992 -2.1872
Dipole moment in unit cell   =     -0.0000      0.0000     -8.2265 D
Electric field for dipole correction =    0.000000   -0.000000    0.007808 Ry/Bohr/e
siesta:   13    -8722.2804    -8711.5310    -8711.5672  0.0738 -2.1979
Dipole moment in unit cell   =     -0.0000      0.0000     -8.2837 D
Electric field for dipole correction =    0.000000   -0.000000    0.007862 Ry/Bohr/e
siesta:   14    -8722.2240    -8712.2632    -8712.2992  0.0728 -2.1970
Dipole moment in unit cell   =     -0.0000      0.0000     -8.2054 D
Electric field for dipole correction =    0.000000   -0.000000    0.007788 Ry/Bohr/e
siesta:   15    -8722.2141    -8712.7388    -8712.7748  0.0705 -2.2215
Dipole moment in unit cell   =     -0.0000      0.0000     -8.0257 D
Electric field for dipole correction =    0.000000   -0.000000    0.007618 Ry/Bohr/e
siesta:   16    -8722.1860    -8712.9697    -8713.0055  0.0664 -2.2640
Dipole moment in unit cell   =     -0.0000      0.0000     -7.8261 D
Electric field for dipole correction =    0.000000   -0.000000    0.007428 Ry/Bohr/e
siesta:   17    -8722.1639    -8713.2058    -8713.2416  0.0673 -2.3106
Dipole moment in unit cell   =     -0.0000      0.0000     -7.6656 D
Electric field for dipole correction =    0.000000   -0.000000    0.007276 Ry/Bohr/e
siesta:   18    -8722.1644    -8713.4015    -8713.4373  0.0659 -2.3442
Dipole moment in unit cell   =     -0.0000      0.0000     -7.7326 D
Electric field for dipole correction =    0.000000   -0.000000    0.007339 Ry/Bohr/e
siesta:   19    -8722.1593    -8713.3996    -8713.4354  0.0651 -2.3282
Dipole moment in unit cell   =     -0.0000      0.0000     -8.1672 D
Electric field for dipole correction =    0.000000   -0.000000    0.007752 Ry/Bohr/e
siesta:   20    -8722.1404    -8714.2209    -8714.2567  0.0618 -2.2188
Dipole moment in unit cell   =     -0.0000      0.0000     -7.9486 D
Electric field for dipole correction =    0.000000   -0.000000    0.007544 Ry/Bohr/e
siesta:   21    -8722.1394    -8714.0164    -8714.0523  0.0502 -2.2712
Dipole moment in unit cell   =     -0.0000      0.0000     -8.3264 D
Electric field for dipole correction =    0.000000   -0.000000    0.007903 Ry/Bohr/e
siesta:   22    -8722.1371    -8716.3229    -8716.3588  0.1505 -2.1916
Dipole moment in unit cell   =     -0.0000      0.0000     -7.5760 D
Electric field for dipole correction =    0.000000   -0.000000    0.007191 Ry/Bohr/e
siesta:   23    -8722.1277    -8717.4610    -8717.4972  0.0303 -2.3751
Dipole moment in unit cell   =     -0.0000      0.0000     -7.6182 D
Electric field for dipole correction =    0.000000   -0.000000    0.007231 Ry/Bohr/e
siesta:   24    -8722.1277    -8717.6966    -8717.7324  0.0333 -2.3634
Dipole moment in unit cell   =     -0.0000      0.0000     -7.6795 D
Electric field for dipole correction =    0.000000   -0.000000    0.007289 Ry/Bohr/e
siesta:   25    -8722.1252    -8717.8528    -8717.8886  0.0337 -2.3462
Dipole moment in unit cell   =     -0.0000      0.0000     -7.8145 D
Electric field for dipole correction =    0.000000   -0.000000    0.007417 Ry/Bohr/e
siesta:   26    -8722.1136    -8717.8674    -8717.9033  0.0251 -2.3083
Dipole moment in unit cell   =     -0.0000      0.0000     -7.8042 D
Electric field for dipole correction =    0.000000   -0.000000    0.007407 Ry/Bohr/e
siesta:   27    -8722.1102    -8717.7705    -8717.8063  0.0192 -2.3104
Dipole moment in unit cell   =     -0.0000      0.0000     -7.7600 D
Electric field for dipole correction =    0.000000   -0.000000    0.007365 Ry/Bohr/e
siesta:   28    -8722.1069    -8717.6521    -8717.6879  0.0199 -2.3213
Dipole moment in unit cell   =     -0.0000      0.0000     -7.6181 D
Electric field for dipole correction =    0.000000   -0.000000    0.007231 Ry/Bohr/e
siesta:   29    -8722.1103    -8717.9425    -8717.9784  0.0200 -2.3601
Dipole moment in unit cell   =     -0.0000      0.0000     -7.5583 D
Electric field for dipole correction =    0.000000   -0.000000    0.007174 Ry/Bohr/e
siesta:   30    -8722.1121    -8718.1271    -8718.1630  0.0192 -2.3765
Dipole moment in unit cell   =     -0.0000      0.0000     -7.4307 D
Electric field for dipole correction =    0.000000   -0.000000    0.007053 Ry/Bohr/e
siesta:   31    -8722.1160    -8719.7505    -8719.7863  0.0229 -2.4081
Dipole moment in unit cell   =     -0.0000      0.0000     -7.5879 D
Electric field for dipole correction =    0.000000   -0.000000    0.007202 Ry/Bohr/e
siesta:   32    -8722.1077    -8720.2859    -8720.3217  0.0231 -2.3620
Dipole moment in unit cell   =     -0.0000      0.0000     -7.6125 D
Electric field for dipole correction =    0.000000   -0.000000    0.007225 Ry/Bohr/e
siesta:   33    -8722.1063    -8720.3736    -8720.4094  0.0220 -2.3548
Dipole moment in unit cell   =     -0.0000      0.0000     -7.5775 D
Electric field for dipole correction =    0.000000   -0.000000    0.007192 Ry/Bohr/e
siesta:   34    -8722.1035    -8720.3624    -8720.3982  0.0080 -2.3637
Dipole moment in unit cell   =     -0.0000      0.0000     -7.6274 D
Electric field for dipole correction =    0.000000   -0.000000    0.007239 Ry/Bohr/e
siesta:   35    -8722.1015    -8720.5663    -8720.6022  0.0061 -2.3490
Dipole moment in unit cell   =     -0.0000      0.0000     -7.6320 D
Electric field for dipole correction =    0.000000   -0.000000    0.007244 Ry/Bohr/e
siesta:   36    -8722.1013    -8720.6211    -8720.6570  0.0057 -2.3474
Dipole moment in unit cell   =     -0.0000      0.0000     -7.5429 D
Electric field for dipole correction =    0.000000   -0.000000    0.007159 Ry/Bohr/e
siesta:   37    -8722.1042    -8721.3665    -8721.4023  0.0022 -2.3690
Dipole moment in unit cell   =     -0.0000      0.0000     -7.5506 D
Electric field for dipole correction =    0.000000   -0.000000    0.007167 Ry/Bohr/e
siesta:   38    -8722.1039    -8721.3904    -8721.4262  0.0020 -2.3667
Dipole moment in unit cell   =     -0.0000      0.0000     -7.5545 D
Electric field for dipole correction =    0.000000   -0.000000    0.007170 Ry/Bohr/e
siesta:   39    -8722.1038    -8721.4254    -8721.4613  0.0018 -2.3655
Dipole moment in unit cell   =     -0.0000      0.0000     -7.5409 D
Electric field for dipole correction =    0.000000   -0.000000    0.007157 Ry/Bohr/e
siesta:   40    -8722.1043    -8721.7228    -8721.7586  0.0019 -2.3680
Dipole moment in unit cell   =     -0.0000      0.0000     -7.5403 D
Electric field for dipole correction =    0.000000   -0.000000    0.007157 Ry/Bohr/e
siesta:   41    -8722.1043    -8721.7485    -8721.7843  0.0019 -2.3681
Dipole moment in unit cell   =     -0.0000      0.0000     -7.5526 D
Electric field for dipole correction =    0.000000   -0.000000    0.007168 Ry/Bohr/e
siesta:   42    -8722.1038    -8721.9681    -8722.0039  0.0007 -2.3644
Dipole moment in unit cell   =     -0.0000      0.0000     -7.5527 D
Electric field for dipole correction =    0.000000   -0.000000    0.007169 Ry/Bohr/e

siesta: E_KS(eV) =            -8721.9698

siesta: E_KS - E_eggbox =     -8721.9698

siesta: Atomic forces (eV/Ang):
----------------------------------------
   Tot   -0.001692    0.003624   -0.326503
----------------------------------------
   Max    2.412432
   Res    0.556779    sqrt( Sum f_i^2 / 3N )
----------------------------------------
   Max    2.412432    constrained

Stress-tensor-Voigt (kbar):      -76.75      -69.72      -64.72       -0.01        0.19        2.46
(Free)E + p*V (eV/cell)    -8654.1780
Target enthalpy (eV/cell)    -8722.0056

* Maximum dynamic memory allocated =   211 MB

siesta: Program's energy decomposition (eV):
siesta: Ebs     =     -3426.793015
siesta: Eions   =     14694.110283
siesta: Ena     =      3895.775417
siesta: Ekin    =      4992.270533
siesta: Enl     =       133.059440
siesta: DEna    =      -260.442646
siesta: DUscf   =        63.589483
siesta: DUext   =         0.289822
siesta: Exc     =     -2852.401535
siesta: eta*DQ  =         0.000000
siesta: Emadel  =         0.000000
siesta: Emeta   =         0.000000
siesta: Emolmec =         0.000000
siesta: Ekinion =         0.000000
siesta: Eharris =     -8722.103787
siesta: Etot    =     -8721.969770
siesta: FreeEng =     -8722.005607

siesta: Final energy (eV):
siesta:  Band Struct. =   -3426.793015
siesta:       Kinetic =    4992.270533
siesta:       Hartree =   66137.439272
siesta:    Ext. field =       0.289822
siesta:   Exch.-corr. =   -2852.401535
siesta:  Ion-electron = -137038.402903
siesta:       Ion-ion =   60038.835042
siesta:       Ekinion =       0.000000
siesta:         Total =   -8721.969770

siesta: Atomic forces (eV/Ang):
siesta:      1    0.006316    0.002228   -0.555447
siesta:      2    0.006067   -0.001363   -0.555447
siesta:      3    0.001309    0.002498   -0.556768
siesta:      4    0.001410   -0.001538   -0.556764
siesta:      5   -0.003323    0.000499   -0.554213
siesta:      6   -0.003388    0.000454   -0.554063
siesta:      7    0.151299    0.004069    0.237987
siesta:      8    0.157717    0.006165    0.332855
siesta:      9   -0.185155    0.006308    0.246172
siesta:     10   -0.178696    0.004232    0.332771
siesta:     11   -0.017055    0.005927    0.339130
siesta:     12   -0.037209    0.004431    0.458435
siesta:     13   -0.051014    0.016282    0.573070
siesta:     14   -0.061313   -0.022057    0.570934
siesta:     15   -0.001610    0.003592    0.681516
siesta:     16    0.005480   -0.012044    0.680335
siesta:     17    0.035781   -0.003152    0.574922
siesta:     18    0.032164   -0.002410    0.566934
siesta:     19    0.191350   -0.002205    0.813902
siesta:     20    0.224301   -0.005463    0.862569
siesta:     21   -0.230960   -0.000707    0.811486
siesta:     22   -0.140378    0.000612    0.875446
siesta:     23   -0.043340    0.000181    0.070895
siesta:     24   -0.013046    0.003112    0.090910
siesta:     25   -0.010228    0.081001    1.069044
siesta:     26   -0.015083   -0.095887    1.065141
siesta:     27    0.286287   -0.020955    0.724333
siesta:     28    0.288049    0.028495    0.729917
siesta:     29   -0.045178    0.075060    1.240056
siesta:     30   -0.046699   -0.084187    1.232439
siesta:     31   -0.354589   -0.267462    0.089691
siesta:     32    0.013424    0.084639    0.173152
siesta:     33   -0.351469    0.260031    0.095560
siesta:     34    0.015318   -0.078784    0.169682
siesta:     35   -0.707317    0.002130    1.674751
siesta:     36    1.051555   -0.000262    1.385921
siesta:     37   -2.412432    0.000016    0.329959
siesta:     38    1.082242   -0.000024    0.056949
siesta:     39   -2.409007   -0.000165    0.324670
siesta:     40    1.089514    0.000004    0.052260
siesta:     41   -2.408286    0.000003    0.329466
siesta:     42    1.097126   -0.000014    0.057021
siesta:     43    0.039760   -0.000205   -0.430828
siesta:     44    0.039294    0.000903   -0.430415
siesta:     45   -0.034119    0.000529   -0.430163
siesta:     46   -0.034116    0.000151   -0.430653
siesta:     47    0.000169   -0.000850   -0.425845
siesta:     48    0.000571    0.001579   -0.425969
siesta:     49   -0.041576    0.003378   -0.540975
siesta:     50   -0.026860   -0.001231   -0.510293
siesta:     51    0.004336    0.001178   -0.513322
siesta:     52   -0.004713    0.002942   -0.500647
siesta:     53    0.016910    0.000810   -0.534483
siesta:     54    0.041915   -0.000480   -0.525797
siesta:     55   -0.058878    0.013939   -0.752107
siesta:     56   -0.059218   -0.012891   -0.746788
siesta:     57    0.088373   -0.002972   -0.749939
siesta:     58    0.093135    0.006890   -0.751140
siesta:     59    0.018057    0.001055   -0.730464
siesta:     60    0.021503   -0.003392   -0.729158
siesta:     61   -0.194812    0.002814   -0.852926
siesta:     62   -0.209986    0.001843   -0.846833
siesta:     63    0.244799   -0.009496   -0.939365
siesta:     64   -0.344369   -0.000632   -0.967794
siesta:     65    0.218981    0.006998   -0.900990
siesta:     66    0.253677   -0.003239   -0.820570
siesta:     67    1.570569   -0.000121   -1.172958
siesta:     68    0.806598    0.000050    0.803939
siesta:     69   -0.265016    0.000080    0.387022
siesta:     70   -0.796843    0.000030   -0.490841
siesta:     71    1.568849    0.000071   -1.174535
siesta:     72    0.806343    0.000335    0.802668
siesta:     73   -0.270418    0.000038    0.388521
siesta:     74   -0.800685    0.000040   -0.495612
siesta:     75    1.569316    0.000040   -1.172229
siesta:     76    0.805147    0.000041    0.803712
siesta:     77   -0.272548    0.000064    0.391351
siesta:     78   -0.805775    0.000043   -0.497656
siesta: ----------------------------------------
siesta:    Tot   -0.001692    0.003624   -0.326503

siesta: Stress tensor (static) (eV/Ang**3):
siesta:    -0.047901   -0.000005    0.001536
siesta:    -0.000005   -0.043516    0.000121
siesta:     0.001536    0.000121   -0.040392

siesta: Cell volume =       1543.760568 Ang**3

siesta: Pressure (static):
siesta:                Solid            Molecule  Units
siesta:           0.00047853          0.00031526  Ry/Bohr**3
siesta:           0.04393659          0.02894647  eV/Ang**3
siesta:          70.39493124         46.37786579  kBar
(Free)E+ p_basis*V_orbitals  =       -8682.815581
(Free)Eharris+ p_basis*V_orbitals  =       -8682.951300

siesta: Electric dipole (a.u.)  =   -0.000000    0.000000   -2.971476
siesta: Electric dipole (Debye) =   -0.000000    0.000000   -7.552743
Dipole moment in unit cell   =     -0.0000      0.0000     -7.5527 D
Electric field for dipole correction =    0.000000   -0.000000    0.007169 Ry/Bohr/e

* Maximum dynamic memory allocated : Node    0 =   211 MB
* Maximum dynamic memory allocated : Node    1 =    82 MB

* Maximum memory occured during redistribXZ                   

timer: CPU execution times:
timer:  Routine       Calls   Time/call    Tot.time        %
timer:  siesta            1    2401.390    2401.390   100.00
timer:  Setup             1       1.333       1.333     0.06
timer:  bands             1       0.002       0.002     0.00
timer:  writewave         1       0.006       0.006     0.00
timer:  KSV_init          1       0.001       0.001     0.00
timer:  IterMD            1    2371.416    2371.416    98.75
timer:  hsparse           1       0.582       0.582     0.02
timer:  overlap           1       0.358       0.358     0.01
timer:  IterSCF          42      53.044    2227.840    92.77
timer:  kinefsm           2       0.238       0.475     0.02
timer:  nlefsm            2       4.437       8.873     0.37
timer:  DHSCF            44      50.929    2240.857    93.31
timer:  DHSCF1            1       0.392       0.392     0.02
timer:  DHSCF2            1      24.978      24.978     1.04
timer:  REORD           450       0.003       1.159     0.05
timer:  POISON           45       0.532      23.960     1.00
timer:  DHSCF3           44      49.189    2164.334    90.13
timer:  rhoofd           44      13.393     589.278    24.54
timer:  cellXC           44       2.940     129.374     5.39
timer:  vmat             43      21.395     919.973    38.31
timer:  MolMec            2       0.000       0.000     0.00
timer:  diagon           42       2.496     104.841     4.37
timer:  c-eigval         84       0.410      34.435     1.43
timer:  c-buildHS        84       0.022       1.813     0.08
timer:  cdiag           168       0.433      72.725     3.03
timer:  cdiag1          168       0.040       6.649     0.28
timer:  cdiag2          168       0.117      19.736     0.82
timer:  cdiag3          168       0.222      37.292     1.55
timer:  cdiag4          168       0.027       4.565     0.19
timer:  c-eigvec         84       0.499      41.892     1.74
timer:  c-buildD         84       0.337      28.305     1.18
timer:  DHSCF4            1      50.541      50.541     2.10
timer:  dfscf             1      46.354      46.354     1.93
timer:  overfsm           1       0.133       0.133     0.01
timer:  optical           1       0.033       0.033     0.00
  

elaps: ELAPSED times:
elaps:  Routine       Calls   Time/call    Tot.time        %
elaps:  siesta            1    1241.778    1241.778   100.00
elaps:  Setup             1       0.718       0.718     0.06
elaps:  bands             1       0.001       0.001     0.00
elaps:  writewave         1       0.003       0.003     0.00
elaps:  KSV_init          1       0.001       0.001     0.00
elaps:  IterMD            1    1226.482    1226.482    98.77
elaps:  hsparse           1       0.309       0.309     0.02
elaps:  overlap           1       0.183       0.183     0.01
elaps:  IterSCF          42      27.425    1151.836    92.76
elaps:  kinefsm           2       0.123       0.247     0.02
elaps:  nlefsm            2       2.343       4.687     0.38
elaps:  DHSCF            44      26.749    1176.940    94.78
elaps:  DHSCF1            1       0.198       0.198     0.02
elaps:  DHSCF2            1      13.076      13.076     1.05
elaps:  REORD           450       0.001       0.595     0.05
elaps:  POISON           45       0.280      12.594     1.01
elaps:  DHSCF3           44      25.402    1117.678    90.01
elaps:  rhoofd           44      12.711     559.295    45.04
elaps:  cellXC           44       1.504      66.190     5.33
elaps:  vmat             43      11.094     477.062    38.42
elaps:  MolMec            2       0.000       0.000     0.00
elaps:  diagon           42       1.312      55.094     4.44
elaps:  c-eigval         84       0.213      17.932     1.44
elaps:  c-buildHS        84       0.012       1.014     0.08
elaps:  cdiag           168       0.225      37.717     3.04
elaps:  cdiag1          168       0.021       3.445     0.28
elaps:  cdiag2          168       0.061      10.178     0.82
elaps:  cdiag3          168       0.116      19.506     1.57
elaps:  cdiag4          168       0.015       2.446     0.20
elaps:  c-eigvec         84       0.260      21.815     1.76
elaps:  c-buildD         84       0.180      15.137     1.22
elaps:  DHSCF4            1      45.665      45.665     3.68
elaps:  dfscf             1      42.238      42.238     3.40
elaps:  overfsm           1       0.071       0.071     0.01
elaps:  optical           1       0.000       0.000     0.00
  
>> End of run:  30-JUN-2010  16:50:10
