Siesta Version:                                        trunk-296--slabs-p3
Architecture  : gfortran-nolibs-netcdf
Compiler flags: gfortran -O0
SERIAL version
NetCDF-capable

* Running in serial mode
>> Start of run:   2-SEP-2009  12:41:05

                           ***********************       
                           *  WELCOME TO SIESTA  *       
                           ***********************       

reinit: Reading from standard input
************************** Dump of input data file ****************************
SystemName          H-SiC surface
SystemLabel         sic-slab
NumberOfAtoms        78
NumberOfSpecies       3
%block ChemicalSpeciesLabel
  1  14  Si.pbe
  2   6  C.pbe
  3   1  H.pbe
%endblock ChemicalSpeciesLabel
XC.functional GGA
XC.authors PBE
######################################
NetCharge -1
SlabDipoleCorrection .true.
SimulateDoping       .true.
######################################
PAO.BasisType    split
%block PAO.Basis
Si.pbe     2  0.3305                    # Species label, number of l-shells
n=3   0   1   E   175.7234 6.2327
     6.2845
     1.0000
 n=3   1   1   E   27.01148 6.3612
     7.4564
     1.0000
C.pbe     2  -0.2034                 # Species label, number of l-shell
n=2    0   1   E   166.5952 6.0853
     6.1031
     1.0000
 n=2   1   1   E   92.8959 8.1457
     8.2107
     1.0000
%endblock PAOBasis
#####################################################
LatticeConstant     4.41 Ang
%block LatticeVectors
   2.1213  0.000   0.000
   0.000   1.4142  0.000
   0.000   0.000   6.000
%endblock LatticeVectors
%block kgrid_Monkhorst_Pack
   2 0 0  0.5
   0 2 0  0.5
   0 0 1  0.5
%endblock Kgrid_Monkhorst_Pack
MeshCutoff          150.0 Ry
MaxSCFIterations    1000
DM.MixingWeight      0.01
DM.MixSCF1           true
DM.NumberPulay       3
DM.Tolerance         1.d-3
Diag.ParallelOverK .false.
SolutionMethod       diagon
Diag.DivideandConquer .false.
MD.TypeOfRun         cg
MD.NumCGsteps       0
UseSaveData    true
AtomicCoordinatesFormat Ang
%block AtomicCoordinatesAndAtomicSpecies
   0.00000000    0.00000000    1.10867100 1
   0.00000000    3.11831100    1.10867100 1
   3.11831100    0.00000000    1.10867100 1
   3.11831100    3.11831100    1.10867100 1
   6.23662200    0.00000000    1.10867100 1
   6.23662200    3.11831100    1.10867100 1
   1.55915550    1.55915550    3.32601240 1
   1.55915550    4.67746650    3.32601240 1
   4.67746650    1.55915550    3.32601240 1
   4.67746650    4.67746650    3.32601240 1
   7.79577750    1.55915550    3.32601240 1
   7.79577750    4.67746650    3.32601240 1
   0.01027940    0.00664970    5.52302280 1
   0.01060850    3.11373910    5.52300540 1
   3.11458540    0.00550670    5.55345380 1
   3.11432280    3.11491680    5.55344830 1
   6.21927560    0.00802080    5.52490330 1
   6.21927070    3.11221930    5.52519910 1
   1.53746550    1.56090880    7.79610790 1
   1.53912180    4.67933110    7.75737400 1
   4.67580380    1.56044320    7.80269800 1
   4.69155670    4.67867200    7.75674950 1
   7.79257630    1.56066510    7.68854410 1
   7.79713220    4.67880950    7.65962760 1
  -0.33280770   -0.01336080    9.92270830 1
  -0.33242730    3.13658110    9.92293350 1
   3.08498250   -0.05468280    9.99183650 1
   3.08472280    3.17626970    9.99165200 1
   6.58190510   -0.01079790    9.90436510 1
   6.58215340    3.13279030    9.90477480 1
   1.32297380   -0.31629120   11.58010590 1
   4.92684820   -0.33978750   11.55125900 1
   1.32312360    3.44028980   11.58008110 1
   4.92654070    3.45989040   11.55135850 1
   1.68230240    1.56163700   13.12703150 1
   3.93025970    1.56016040   12.52144840 1
   0.00000000    1.55915550    0.00000000 2
   0.00000000    4.67746650    0.00000000 2
   3.11831100    1.55915550    0.00000000 2
   3.11831100    4.67746650    0.00000000 2
   6.23662200    1.55915550    0.00000000 2
   6.23662200    4.67746650    0.00000000 2
   1.55915550    0.00000000    2.21734150 2
   1.55915550    3.11831100    2.21734150 2
   4.67746650    0.00000000    2.21734150 2
   4.67746650    3.11831100    2.21734150 2
   7.79577750    0.00000000    2.21734150 2
   7.79577750    3.11831100    2.21734150 2
   0.00531870    1.55987010    4.41991710 2
   0.00620000    4.67832990    4.42719290 2
   3.11734330    1.55994490    4.43660560 2
   3.11751020    4.67818500    4.44245880 2
   6.22983140    1.55995350    4.42029700 2
   6.22768100    4.67819940    4.42927320 2
   1.54987200    0.01038930    6.66089170 2
   1.54989930    3.11111970    6.66082310 2
   4.67705400    0.01173830    6.66325450 2
   4.67674840    3.10875430    6.66327630 2
   7.79169160    0.00862610    6.59215330 2
   7.79170900    3.11240310    6.59204890 2
  -0.04591870    1.56135990    8.85207770 2
  -0.04873180    4.67963390    8.80706140 2
   3.09699940    1.56106940    8.93969330 2
   3.12217110    4.67917250    8.81700870 2
   6.26457750    1.56075320    8.84988940 2
   6.27978670    4.67918460    8.80346650 2
   0.79289900    1.55919600   -0.70000000 3
  -0.90452600    1.55914300   -0.70000000 3
   0.87543500    4.67746100   -0.70000000 3
  -0.82520000    4.67745700   -0.70000000 3
   3.91123500    1.55915500   -0.70000000 3
   2.21388900    1.55909500   -0.70000000 3
   3.99394100    4.67746400   -0.70000000 3
   2.29330300    4.67744400   -0.70000000 3
   7.02960600    1.55915400   -0.70000000 3
   5.33218600    1.55915100   -0.70000000 3
   7.11239100    4.67746100   -0.70000000 3
   5.41177000    4.67745900   -0.70000000 3
%endblock AtomicCoordinatesAndAtomicSpecies
##########################################################
SaveTotalPotential .true.
SaveElectrostaticPotential .true.
SaveRho .true.
SaveDeltarho .true.
************************** End of input data file *****************************

reinit: -----------------------------------------------------------------------
reinit: System Name: H-SiC surface
reinit: -----------------------------------------------------------------------
reinit: System Label: sic-slab                                                    
reinit: -----------------------------------------------------------------------

initatom: Reading input for the pseudopotentials and atomic orbitals ----------
 Species number:            1  Label: Si.pbe Atomic number:          14
 Species number:            2  Label: C.pbe Atomic number:           6
 Species number:            3  Label: H.pbe Atomic number:           1
Ground state valence configuration:   3s02  3p02
Reading pseudopotential information in formatted form from Si.pbe.psf

Valence configuration for pseudopotential generation:
3s( 2.00) rc: 1.89
3p( 2.00) rc: 1.89
3d( 0.00) rc: 1.89
4f( 0.00) rc: 1.89
Ground state valence configuration:   2s02  2p02
Reading pseudopotential information in formatted form from C.pbe.psf

Valence configuration for pseudopotential generation:
2s( 2.00) rc: 1.49
2p( 2.00) rc: 1.52
3d( 0.00) rc: 1.52
Ground state valence configuration:   1s01
Reading pseudopotential information in formatted form from H.pbe.psf

Valence configuration for pseudopotential generation:
1s( 1.00) rc: 1.43
2p( 0.00) rc: 1.25
3d( 0.00) rc: 1.25
4f( 0.00) rc: 1.25
For Si.pbe, standard SIESTA heuristics set lmxkb to 2
 (one more than the basis l, including polarization orbitals).
Use PS.lmax or PS.KBprojectors blocks to override.
For C.pbe, standard SIESTA heuristics set lmxkb to 2
 (one more than the basis l, including polarization orbitals).
Use PS.lmax or PS.KBprojectors blocks to override.
For H.pbe, standard SIESTA heuristics set lmxkb to 2
 (one more than the basis l, including polarization orbitals).
Use PS.lmax or PS.KBprojectors blocks to override.

<basis_specs>
===============================================================================
Si.pbe               Z=  14    Mass=  28.090        Charge= 0.33050    
Lmxo=1 Lmxkb=2     BasisType=split      Semic=F
L=0  Nsemic=0  Cnfigmx=3
          n=1  nzeta=1  polorb=0
            splnorm:   0.15000    
               vcte:    175.72    
               rinn:    6.2327    
                rcs:    6.2845    
            lambdas:    1.0000    
L=1  Nsemic=0  Cnfigmx=3
          n=1  nzeta=1  polorb=0
            splnorm:   0.15000    
               vcte:    27.011    
               rinn:    6.3612    
                rcs:    7.4564    
            lambdas:    1.0000    
-------------------------------------------------------------------------------
L=0  Nkbl=1  erefs: 0.17977+309
L=1  Nkbl=1  erefs: 0.17977+309
L=2  Nkbl=1  erefs: 0.17977+309
===============================================================================
</basis_specs>

atom: Called for Si.pbe                (Z =  14)

read_vps: Pseudopotential generation method:
read_vps: ATM3      Troullier-Martins                       
Total valence charge:    4.00000

xc_check: Exchange-correlation functional:
xc_check: GGA Perdew, Burke & Ernzerhof 1996
V l=0 = -2*Zval/r beyond r=  2.7826
V l=1 = -2*Zval/r beyond r=  2.7826
V l=2 = -2*Zval/r beyond r=  2.7826
All V_l potentials equal beyond r=  1.8652
This should be close to max(r_c) in ps generation
All pots = -2*Zval/r beyond r=  2.7826
Using large-core scheme for Vlocal

atom: Estimated core radius    2.78258

atom: Including non-local core corrections could be a good idea
atom: Maximum radius for 4*pi*r*r*local-pseudopot. charge    3.07525
atom: Maximum radius for r*vlocal+2*Zval:    2.81758
GHOST: No ghost state for L =  0
GHOST: No ghost state for L =  1
GHOST: No ghost state for L =  2

KBgen: Kleinman-Bylander projectors: 
   l= 0   rc=  1.936440   el= -0.791474   Ekb=  4.527346   kbcos=  0.300929
   l= 1   rc=  1.936440   el= -0.300649   Ekb=  1.471620   kbcos=  0.304055
   l= 2   rc=  1.936440   el=  0.001958   Ekb= -2.865202   kbcos= -0.050894

KBgen: Total number of  Kleinman-Bylander projectors:    9
atom: -------------------------------------------------------------------------

atom: SANKEY-TYPE ORBITALS:

atom: basis set generated (by rescaling the valence charge)
atom: for a cation of charge   0.3305

SPLIT: Orbitals with angular momentum L= 0

SPLIT: Basis orbitals for state 3s

   izeta = 1
                 lambda =    1.000000
                     rc =    6.270866
                 energy =   -1.030900
                kinetic =    0.542146
    potential(screened) =   -1.573046
       potential(ionic) =   -3.777459

SPLIT: Orbitals with angular momentum L= 1

SPLIT: Basis orbitals for state 3p

   izeta = 1
                 lambda =    1.000000
                     rc =    7.470179
                 energy =   -0.513956
                kinetic =    0.889669
    potential(screened) =   -1.403625
       potential(ionic) =   -3.442715
atom: Total number of Sankey-type orbitals:  4

atm_pop: Valence configuration (for local Pseudopot. screening):
 3s( 2.00)                                                            
 3p( 2.00)                                                            
Vna: chval, zval:    4.00000   4.00000

Vna:  Cut-off radius for the neutral-atom potential:   7.470179

atom: _________________________________________________________________________

<basis_specs>
===============================================================================
C.pbe                Z=   6    Mass=  12.010        Charge=-0.20340    
Lmxo=1 Lmxkb=2     BasisType=split      Semic=F
L=0  Nsemic=0  Cnfigmx=2
          n=1  nzeta=1  polorb=0
            splnorm:   0.15000    
               vcte:    166.60    
               rinn:    6.0853    
                rcs:    6.1031    
            lambdas:    1.0000    
L=1  Nsemic=0  Cnfigmx=2
          n=1  nzeta=1  polorb=0
            splnorm:   0.15000    
               vcte:    92.896    
               rinn:    8.1457    
                rcs:    8.2107    
            lambdas:    1.0000    
-------------------------------------------------------------------------------
L=0  Nkbl=1  erefs: 0.17977+309
L=1  Nkbl=1  erefs: 0.17977+309
L=2  Nkbl=1  erefs: 0.17977+309
===============================================================================
</basis_specs>

atom: Called for C.pbe                 (Z =   6)

read_vps: Pseudopotential generation method:
read_vps: ATM 3.2.2 Troullier-Martins                       
Total valence charge:    4.00000

read_vps: Pseudopotential includes a core correction:
read_vps: Pseudo-core for xc-correction

xc_check: Exchange-correlation functional:
xc_check: GGA Perdew, Burke & Ernzerhof 1996
V l=0 = -2*Zval/r beyond r=  1.4666
V l=1 = -2*Zval/r beyond r=  1.5038
V l=2 = -2*Zval/r beyond r=  1.5038
All V_l potentials equal beyond r=  1.5038
This should be close to max(r_c) in ps generation
All pots = -2*Zval/r beyond r=  1.5038

VLOCAL1: 99.0% of the norm of Vloc inside     19.196 Ry
VLOCAL1: 99.9% of the norm of Vloc inside     43.748 Ry
atom: Maximum radius for 4*pi*r*r*local-pseudopot. charge    1.81396
atom: Maximum radius for r*vlocal+2*Zval:    1.56123
GHOST: No ghost state for L =  0
GHOST: No ghost state for L =  1
GHOST: No ghost state for L =  2

KBgen: Kleinman-Bylander projectors: 
   l= 0   rc=  1.682861   el= -1.009802   Ekb=  5.530688   kbcos=  0.309203
   l= 1   rc=  1.682861   el= -0.388707   Ekb= -3.901042   kbcos= -0.358653
   l= 2   rc=  1.769164   el=  0.001971   Ekb= -0.965319   kbcos= -0.008918

KBgen: Total number of  Kleinman-Bylander projectors:    9
atom: -------------------------------------------------------------------------

atom: SANKEY-TYPE ORBITALS:

atom: basis set generated (by rescaling the valence charge)
atom: for an anion of charge  -0.2034

SPLIT: Orbitals with angular momentum L= 0

SPLIT: Basis orbitals for state 2s

   izeta = 1
                 lambda =    1.000000
                     rc =    6.099293
                 energy =   -1.008072
                kinetic =    0.786791
    potential(screened) =   -1.794863
       potential(ionic) =   -5.296547

SPLIT: Orbitals with angular momentum L= 1

SPLIT: Basis orbitals for state 2p

   izeta = 1
                 lambda =    1.000000
                     rc =    8.233328
                 energy =   -0.384246
                kinetic =    2.061715
    potential(screened) =   -2.445961
       potential(ionic) =   -5.701979
atom: Total number of Sankey-type orbitals:  4

atm_pop: Valence configuration (for local Pseudopot. screening):
 2s( 2.00)                                                            
 2p( 2.00)                                                            
Vna: chval, zval:    4.00000   4.00000

Vna:  Cut-off radius for the neutral-atom potential:   8.233328
comcore: Pseudo-core radius Rcore=  1.791422

atom: _________________________________________________________________________

<basis_specs>
===============================================================================
H.pbe                Z=   1    Mass=  1.0100        Charge= 0.17977+309
Lmxo=0 Lmxkb=2     BasisType=split      Semic=F
L=0  Nsemic=0  Cnfigmx=1
          n=1  nzeta=2  polorb=1
            splnorm:   0.15000    
               vcte:    0.0000    
               rinn:    0.0000    
                rcs:    0.0000      0.0000    
            lambdas:    1.0000      1.0000    
-------------------------------------------------------------------------------
L=0  Nkbl=1  erefs: 0.17977+309
L=1  Nkbl=1  erefs: 0.17977+309
L=2  Nkbl=1  erefs: 0.17977+309
===============================================================================
</basis_specs>

atom: Called for H.pbe                 (Z =   1)

read_vps: Pseudopotential generation method:
read_vps: ATM 3.2.2 Troullier-Martins                       
Total valence charge:    1.00000

xc_check: Exchange-correlation functional:
xc_check: GGA Perdew, Burke & Ernzerhof 1996
V l=0 = -2*Zval/r beyond r=  1.4166
V l=1 = -2*Zval/r beyond r=  1.3816
V l=2 = -2*Zval/r beyond r=  1.3816
All V_l potentials equal beyond r=  1.4166
This should be close to max(r_c) in ps generation
All pots = -2*Zval/r beyond r=  1.4166

VLOCAL1: 99.0% of the norm of Vloc inside     21.631 Ry
VLOCAL1: 99.9% of the norm of Vloc inside     49.298 Ry
atom: Maximum radius for 4*pi*r*r*local-pseudopot. charge    1.66698
atom: Maximum radius for r*vlocal+2*Zval:    1.39896
GHOST: No ghost state for L =  0
GHOST: No ghost state for L =  1
GHOST: No ghost state for L =  2

KBgen: Kleinman-Bylander projectors: 
   l= 0   rc=  1.565833   el= -0.477200   Ekb= -1.851072   kbcos= -0.391986
   l= 1   rc=  1.646243   el=  0.001076   Ekb= -0.560969   kbcos= -0.025747
   l= 2   rc=  1.687980   el=  0.002010   Ekb= -0.184546   kbcos= -0.003662

KBgen: Total number of  Kleinman-Bylander projectors:    9
atom: -------------------------------------------------------------------------

atom: SANKEY-TYPE ORBITALS:
atom: Selected multiple-zeta basis: split     

SPLIT: Orbitals with angular momentum L= 0

SPLIT: Basis orbitals for state 1s

SPLIT: PAO cut-off radius determined from an
SPLIT: energy shift=  0.020000 Ry

   izeta = 1
                 lambda =    1.000000
                     rc =    4.708991
                 energy =   -0.457754
                kinetic =    0.969078
    potential(screened) =   -1.426832
       potential(ionic) =   -1.954497

   izeta = 2
                 rmatch =    3.759707
              splitnorm =    0.150000
                 energy =   -0.338955
                kinetic =    1.561908
    potential(screened) =   -1.900862
       potential(ionic) =   -2.450466

POLgen: Perturbative polarization orbital with L=  1

POLgen: Polarization orbital for state 1s

   izeta = 1
                     rc =    4.708991
                 energy =    0.764844
                kinetic =    1.483543
    potential(screened) =   -0.718699
       potential(ionic) =   -1.210766
atom: Total number of Sankey-type orbitals:  5

atm_pop: Valence configuration (for local Pseudopot. screening):
 1s( 1.00)                                                            
Vna: chval, zval:    1.00000   1.00000

Vna:  Cut-off radius for the neutral-atom potential:   4.708991

atom: _________________________________________________________________________

prinput: Basis input ----------------------------------------------------------

PAO.BasisType split     

%block ChemicalSpeciesLabel
    1   14 Si.pbe                  # Species index, atomic number, species label
    2    6 C.pbe                   # Species index, atomic number, species label
    3    1 H.pbe                   # Species index, atomic number, species label
%endblock ChemicalSpeciesLabel

%block PAO.Basis                 # Define Basis set
Si.pbe                2   0.331            # Label, l-shells, ionic net charge
 n=3   0   1                         # n, l, Nzeta 
   6.271   
   1.000   
 n=3   1   1                         # n, l, Nzeta 
   7.470   
   1.000   
C.pbe                 2  -0.203            # Label, l-shells, ionic net charge
 n=2   0   1                         # n, l, Nzeta 
   6.099   
   1.000   
 n=2   1   1                         # n, l, Nzeta 
   8.233   
   1.000   
H.pbe                 1                    # Species label, number of l-shells
 n=1   0   2 P   1                   # n, l, Nzeta, Polarization, NzetaPol
   4.709      3.760   
   1.000      1.000   
%endblock PAO.Basis

prinput: ----------------------------------------------------------------------

Dumping basis to NetCDF file Si.pbe.ion.nc
Dumping basis to NetCDF file C.pbe.ion.nc
Dumping basis to NetCDF file H.pbe.ion.nc
coor:   Atomic-coordinates input format  =     Cartesian coordinates
coor:                                          (in Angstroms)

siesta: WARNING: XV file not found

siesta: Atomic coordinates (Bohr) and species
siesta:      0.00000   0.00000   2.09509  1        1
siesta:      0.00000   5.89276   2.09509  1        2
siesta:      5.89276   0.00000   2.09509  1        3
siesta:      5.89276   5.89276   2.09509  1        4
siesta:     11.78551   0.00000   2.09509  1        5
siesta:     11.78551   5.89276   2.09509  1        6
siesta:      2.94638   2.94638   6.28526  1        7
siesta:      2.94638   8.83913   6.28526  1        8
siesta:      8.83913   2.94638   6.28526  1        9
siesta:      8.83913   8.83913   6.28526  1       10
siesta:     14.73189   2.94638   6.28526  1       11
siesta:     14.73189   8.83913   6.28526  1       12
siesta:      0.01943   0.01257  10.43700  1       13
siesta:      0.02005   5.88412  10.43697  1       14
siesta:      5.88572   0.01041  10.49451  1       15
siesta:      5.88522   5.88634  10.49450  1       16
siesta:     11.75273   0.01516  10.44056  1       17
siesta:     11.75272   5.88124  10.44112  1       18
siesta:      2.90539   2.94969  14.73251  1       19
siesta:      2.90852   8.84266  14.65932  1       20
siesta:      8.83599   2.94881  14.74497  1       21
siesta:      8.86576   8.84141  14.65814  1       22
siesta:     14.72584   2.94923  14.52925  1       23
siesta:     14.73445   8.84167  14.47460  1       24
siesta:     -0.62892  -0.02525  18.75121  1       25
siesta:     -0.62820   5.92728  18.75163  1       26
siesta:      5.82977  -0.10334  18.88184  1       27
siesta:      5.82928   6.00228  18.88149  1       28
siesta:     12.43800  -0.02041  18.71654  1       29
siesta:     12.43847   5.92012  18.71732  1       30
siesta:      2.50006  -0.59770  21.88324  1       31
siesta:      9.31040  -0.64211  21.82872  1       32
siesta:      2.50034   6.50121  21.88319  1       33
siesta:      9.30982   6.53825  21.82891  1       34
siesta:      3.17909   2.95107  24.80650  1       35
siesta:      7.42712   2.94828  23.66212  1       36
siesta:      0.00000   2.94638   0.00000  2       37
siesta:      0.00000   8.83913   0.00000  2       38
siesta:      5.89276   2.94638   0.00000  2       39
siesta:      5.89276   8.83913   0.00000  2       40
siesta:     11.78551   2.94638   0.00000  2       41
siesta:     11.78551   8.83913   0.00000  2       42
siesta:      2.94638   0.00000   4.19017  2       43
siesta:      2.94638   5.89276   4.19017  2       44
siesta:      8.83913   0.00000   4.19017  2       45
siesta:      8.83913   5.89276   4.19017  2       46
siesta:     14.73189   0.00000   4.19017  2       47
siesta:     14.73189   5.89276   4.19017  2       48
siesta:      0.01005   2.94773   8.35244  2       49
siesta:      0.01172   8.84077   8.36619  2       50
siesta:      5.89093   2.94787   8.38397  2       51
siesta:      5.89124   8.84049   8.39503  2       52
siesta:     11.77268   2.94789   8.35315  2       53
siesta:     11.76862   8.84052   8.37012  2       54
siesta:      2.92883   0.01963  12.58727  2       55
siesta:      2.92889   5.87917  12.58714  2       56
siesta:      8.83835   0.02218  12.59173  2       57
siesta:      8.83778   5.87470  12.59177  2       58
siesta:     14.72417   0.01630  12.45737  2       59
siesta:     14.72420   5.88159  12.45717  2       60
siesta:     -0.08677   2.95054  16.72801  2       61
siesta:     -0.09209   8.84323  16.64294  2       62
siesta:      5.85248   2.94999  16.89358  2       63
siesta:      5.90005   8.84236  16.66174  2       64
siesta:     11.83834   2.94940  16.72387  2       65
siesta:     11.86708   8.84238  16.63615  2       66
siesta:      1.49836   2.94645  -1.32281  3       67
siesta:     -1.70931   2.94635  -1.32281  3       68
siesta:      1.65433   8.83912  -1.32281  3       69
siesta:     -1.55940   8.83912  -1.32281  3       70
siesta:      7.39117   2.94638  -1.32281  3       71
siesta:      4.18365   2.94626  -1.32281  3       72
siesta:      7.54746   8.83913  -1.32281  3       73
siesta:      4.33372   8.83909  -1.32281  3       74
siesta:     13.28404   2.94638  -1.32281  3       75
siesta:     10.07638   2.94637  -1.32281  3       76
siesta:     13.44048   8.83912  -1.32281  3       77
siesta:     10.22677   8.83912  -1.32281  3       78

siesta: System type = slab      

initatomlists: Number of atoms, orbitals, and projectors:     78   324   702

siesta: ******************** Simulation parameters ****************************
siesta:
siesta: The following are some of the parameters of the simulation.
siesta: A complete list of the parameters used, including default values,
siesta: can be found in file out.fdf
siesta:
redata: Non-Collinear-spin run           =     F
redata: SpinPolarized (Up/Down) run      =     F
redata: Number of spin components        =     1
redata: Long output                      =     F
redata: Number of Atomic Species         =        3
redata: Charge density info will appear in .RHO file
redata: Write Mulliken Pop.              =     NO
redata: Mesh Cutoff                      =   150.0000  Ry
redata: Net charge of the system         =    -1.0000 |e|
redata: Max. number of SCF Iter          =     1000
redata: Performing Pulay mixing using    =     3 iterations
redata: Mix DM in first SCF step ?       =     T
redata: Write Pulay info on disk?        =     F
redata: New DM Mixing Weight             =     0.0100
redata: New DM Occupancy tolerance       = 0.000000000001
redata: No kicks to SCF
redata: DM Mixing Weight for Kicks       =     0.5000
redata: DM Tolerance for SCF             =     0.001000
redata: Require Energy convergence for SCF =     F
redata: DM Energy tolerance for SCF      =     0.000100 eV
redata: Require Harris convergence for SCF =     F
redata: DM Harris energy tolerance for SCF =     0.000100 eV
redata: Using Saved Data (generic)   =     T
redata: Use continuation files for DM    =     T
redata: Neglect nonoverlap interactions  =     F
redata: Method of Calculation            =     Diagonalization
redata: Divide and Conquer               =     F
redata: Electronic Temperature           =     0.0019  Ry
redata: Fix the spin of the system       =     F
redata: Dynamics option                  =     CG coord. optimization
redata: Variable cell                    =     F
redata: Use continuation files for CG    =     T
redata: Max atomic displ per move        =     0.2000  Bohr
redata: Maximum number of CG moves       =        0
redata: Force tolerance                  =     0.0016  Ry/Bohr
redata: ***********************************************************************
Total number of electrons:   277.000000
Total ionic charge:   276.000000
madelung: WARNING: Charged system, but not an atom or molecule.
madelung: WARNING: Energy correction terms can not be applied. 
madelung: WARNING: Continue only if you really know what you are doing.
k-point displ. along   3 input, could be:     0.50    0.00
 Kpoints in:            2 . Kpoints trimmed:            2

siesta: k-grid: Number of k-points =     2
siesta: k-grid: Cutoff (effective) =     6.237 Ang
siesta: k-grid: Supercell and displacements
siesta: k-grid:    2   0   0      0.500
siesta: k-grid:    0   2   0      0.500
siesta: k-grid:    0   0   1      0.500
Naive supercell factors:     3    4    1

superc: Internal auxiliary supercell:     3 x     4 x     1  =      12
superc: Number of atoms, orbitals, and projectors:    936  3888  8424

* Maximum dynamic memory allocated =     3 MB

siesta:                 ==============================
                            Begin CG move =      0
                        ==============================

superc: Internal auxiliary supercell:     3 x     4 x     1  =      12
superc: Number of atoms, orbitals, and projectors:    936  3888  8424

outcell: Unit cell vectors (Ang):
        9.354933    0.000000    0.000000
        0.000000    6.236622    0.000000
        0.000000    0.000000   26.460000

outcell: Cell vector modules (Ang)   :    9.354933    6.236622   26.460000
outcell: Cell angles (23,13,12) (deg):     90.0000     90.0000     90.0000
outcell: Cell volume (Ang**3)        :   1543.7606
New_DM. Step:     1
Initializing Density Matrix...

InitMesh: MESH =    72 x    48 x   200 =      691200
InitMesh: Mesh cutoff (required, used) =   150.000   157.900 Ry
-- Node    1 :      691200      1:  72   1:  48   1: 200

doping: SimulateDoping = .true. in input file
doping: Neutralizing background will be added to points
doping: other than vacumm, to simulate doping

efield: SlabDipoleCorrection = .true. in input file
efield: A dipole layer will be introduced in the vacuum
efield: region to compensate the system dipole

efield: External electric field =    0.000000   -0.000000    0.003178 Ry/Bohr/e

* Maximum dynamic memory allocated =   244 MB

stepf: Fermi-Dirac step function

siesta: Program's energy decomposition (eV):
siesta: Eions   =     14694.110283
siesta: Ena     =      3895.775417
siesta: Ekin    =      3900.433705
siesta: Enl     =       741.280612
siesta: DEna    =       -18.708474
siesta: DUscf   =         0.862126
siesta: DUext   =         0.056943
siesta: Exc     =     -2742.912273
siesta: eta*DQ  =         0.000000
siesta: Emadel  =         0.000000
siesta: Emeta   =         0.000000
siesta: Emolmec =         0.000000
siesta: Ekinion =         0.000000
siesta: Eharris =     -8822.410905
siesta: Etot    =     -8917.322226
siesta: FreeEng =     -8917.322226

siesta: iscf   Eharris(eV)      E_KS(eV)   FreeEng(eV)   dDmax  Ef(eV)
siesta:    1    -8822.4109    -8917.3222    -8917.3222  1.7401 -2.8386
timer: Routine,Calls,Time,% = IterSCF        1     114.023  97.34
elaps: Routine,Calls,Wall,% = IterSCF        1     115.274  97.32
siesta:    2    -8817.9258    -8916.3538    -8916.3896  1.7156 -2.7942
siesta:    3    -8747.4587    -8809.2522    -8809.2881  1.1581 -3.8444
siesta:    4    -8743.2924    -8810.1471    -8810.1843  1.1406 -3.7470
siesta:    5    -8734.1676    -8851.8156    -8851.8552  1.0355 -3.3294
siesta:    6    -8729.5002    -8843.2568    -8843.2957  1.0006 -3.0139
siesta:    7    -8726.1177    -8810.2267    -8810.2653  0.6859 -3.3343
siesta:    8    -8726.9626    -8804.2223    -8804.2581  0.6819 -3.4345
siesta:    9    -8733.6442    -8770.6429    -8770.6788  0.6435 -3.5826
siesta:   10    -8758.8930    -8728.1120    -8728.1478  0.9100 -3.5311
siesta:   11    -8734.3272    -8752.0446    -8752.0922  0.5649 -3.1340
siesta:   12    -8737.4691    -8690.7119    -8690.7478  0.4818 -2.1092
siesta:   13    -8735.1895    -8703.0542    -8703.0901  0.3587 -2.0625
siesta:   14    -8731.7750    -8695.0156    -8695.0516  0.4356 -2.0704
siesta:   15    -8723.8282    -8705.6634    -8705.6993  0.1219 -2.6580
siesta:   16    -8723.7927    -8702.8324    -8702.8682  0.1241 -2.5673
siesta:   17    -8723.7685    -8703.7832    -8703.8190  0.1222 -2.5494
siesta:   18    -8723.7395    -8703.8910    -8703.9268  0.1206 -2.5351
siesta:   19    -8723.4571    -8710.6705    -8710.7063  0.3710 -2.2403
siesta:   20    -8723.4732    -8706.5243    -8706.5603  0.0861 -2.3197
siesta:   21    -8723.4405    -8707.3205    -8707.3564  0.0776 -2.2997
siesta:   22    -8723.3724    -8710.0013    -8710.0371  0.0711 -2.2629
siesta:   23    -8723.4117    -8708.8746    -8708.9106  0.0813 -2.3867
siesta:   24    -8723.3827    -8715.2572    -8715.2931  0.0660 -2.4151
siesta:   25    -8723.3622    -8715.2253    -8715.2611  0.0443 -2.3551
siesta:   26    -8723.3579    -8715.2629    -8715.2987  0.0432 -2.3485
siesta:   27    -8723.3322    -8716.9273    -8716.9631  0.0359 -2.3789
siesta:   28    -8723.3165    -8716.9668    -8717.0026  0.0279 -2.3157
siesta:   29    -8723.3152    -8717.0513    -8717.0871  0.0274 -2.3114
siesta:   30    -8723.3038    -8719.3559    -8719.3917  0.0170 -2.3153
siesta:   31    -8723.2959    -8719.8301    -8719.8659  0.0131 -2.2843
siesta:   32    -8723.2970    -8719.8110    -8719.8469  0.0128 -2.2890
siesta:   33    -8723.3003    -8721.5494    -8721.5852  0.0112 -2.2858
siesta:   34    -8723.3035    -8721.5234    -8721.5593  0.0086 -2.3022
siesta:   35    -8723.3035    -8721.5934    -8721.6292  0.0084 -2.3017
siesta:   36    -8723.3112    -8722.8555    -8722.8913  0.0077 -2.3073
siesta:   37    -8723.3115    -8722.8942    -8722.9301  0.0075 -2.3082
siesta:   38    -8723.3117    -8722.9517    -8722.9876  0.0070 -2.3100
siesta:   39    -8723.3066    -8722.4306    -8722.4664  0.0050 -2.3040
siesta:   40    -8723.3065    -8722.4308    -8722.4666  0.0042 -2.3022
siesta:   41    -8723.3052    -8722.3415    -8722.3774  0.0043 -2.2979
siesta:   42    -8723.3047    -8722.2986    -8722.3344  0.0042 -2.2967
siesta:   43    -8723.3044    -8722.2778    -8722.3137  0.0041 -2.2960
siesta:   44    -8723.3058    -8722.4811    -8722.5170  0.0036 -2.2993
siesta:   45    -8723.3071    -8722.6746    -8722.7104  0.0032 -2.3009
siesta:   46    -8723.3091    -8723.0680    -8723.1038  0.0030 -2.3024
siesta:   47    -8723.3089    -8723.0785    -8723.1143  0.0029 -2.3015
siesta:   48    -8723.3085    -8723.0460    -8723.0819  0.0026 -2.3002
siesta:   49    -8723.3078    -8722.9719    -8723.0078  0.0023 -2.2996
siesta:   50    -8723.3074    -8722.9561    -8722.9920  0.0022 -2.2991
siesta:   51    -8723.3068    -8722.9629    -8722.9987  0.0019 -2.2979
siesta:   52    -8723.3071    -8723.0360    -8723.0719  0.0019 -2.2977
siesta:   53    -8723.3076    -8723.1214    -8723.1572  0.0019 -2.2984
siesta:   54    -8723.3082    -8723.2095    -8723.2454  0.0018 -2.2994
siesta:   55    -8723.3083    -8723.2175    -8723.2534  0.0016 -2.3004
siesta:   56    -8723.3081    -8723.2005    -8723.2364  0.0016 -2.3001
siesta:   57    -8723.3073    -8723.1264    -8723.1623  0.0014 -2.2988
siesta:   58    -8723.3072    -8723.1274    -8723.1632  0.0013 -2.2992
siesta:   59    -8723.3071    -8723.1277    -8723.1635  0.0013 -2.2990
siesta:   60    -8723.3060    -8723.1400    -8723.1759  0.0016 -2.2962
siesta:   61    -8723.3062    -8723.1410    -8723.1769  0.0011 -2.2967
siesta:   62    -8723.3061    -8723.1464    -8723.1822  0.0010 -2.2970
siesta:   63    -8723.3060    -8723.1528    -8723.1886  0.0010 -2.2967

siesta: E_KS(eV) =            -8723.1626

siesta: E_KS - E_eggbox =     -8723.1626

siesta: Atomic forces (eV/Ang):
----------------------------------------
   Tot   -0.010833    0.003101   -0.160841
----------------------------------------
   Max    2.410442
   Res    0.569001    sqrt( Sum f_i^2 / 3N )
----------------------------------------
   Max    2.410442    constrained

Stress-tensor-Voigt (kbar):      -75.03      -67.98      -64.29       -0.01        0.19        2.53
(Free)E + p*V (eV/cell)    -8656.6185
Target enthalpy (eV/cell)    -8723.1985

* Maximum dynamic memory allocated =   251 MB

siesta: Program's energy decomposition (eV):
siesta: Eions   =     14694.110283
siesta: Ena     =      3895.775417
siesta: Ekin    =      4998.139462
siesta: Enl     =       131.949178
siesta: DEna    =      -264.692921
siesta: DUscf   =        63.178928
siesta: DUext   =         0.304712
siesta: Exc     =     -2853.707113
siesta: eta*DQ  =         0.000000
siesta: Emadel  =         0.000000
siesta: Emeta   =         0.000000
siesta: Emolmec =         0.000000
siesta: Ekinion =         0.000000
siesta: Eharris =     -8723.306025
siesta: Etot    =     -8723.162620
siesta: FreeEng =     -8723.198480

siesta: Final energy (eV):
siesta:       Kinetic =    4998.139462
siesta:       Hartree =   66119.333413
siesta:    Ext. field =       0.304712
siesta:   Exch.-corr. =   -2853.707113
siesta:  Ion-electron = -137026.068136
siesta:       Ion-ion =   60038.835042
siesta:       Ekinion =       0.000000
siesta:         Total =   -8723.162620

siesta: Atomic forces (eV/Ang):
siesta:      1    0.001741    0.002571   -0.611375
siesta:      2    0.001493   -0.001745   -0.611370
siesta:      3    0.000065    0.002858   -0.604893
siesta:      4    0.000150   -0.001918   -0.604924
siesta:      5   -0.002099   -0.000850   -0.607012
siesta:      6   -0.002171    0.001768   -0.606867
siesta:      7    0.156220    0.004010    0.247530
siesta:      8    0.160434    0.006098    0.347519
siesta:      9   -0.183256    0.006236    0.252708
siesta:     10   -0.176064    0.004218    0.337479
siesta:     11   -0.014239    0.005849    0.363793
siesta:     12   -0.037000    0.004391    0.473263
siesta:     13   -0.050682    0.014401    0.594933
siesta:     14   -0.060713   -0.020229    0.592808
siesta:     15   -0.004648    0.003131    0.721461
siesta:     16    0.002293   -0.011559    0.720291
siesta:     17    0.033905   -0.001745    0.603368
siesta:     18    0.030160   -0.004056    0.595359
siesta:     19    0.199944   -0.002245    0.912312
siesta:     20    0.230563   -0.005455    0.958160
siesta:     21   -0.231444   -0.000849    0.895855
siesta:     22   -0.152463    0.000645    0.971329
siesta:     23   -0.043795    0.000088    0.163375
siesta:     24   -0.009643    0.003166    0.187906
siesta:     25   -0.022263    0.088059    1.117812
siesta:     26   -0.027236   -0.102892    1.113759
siesta:     27    0.276731   -0.002653    0.763680
siesta:     28    0.278500    0.010142    0.769458
siesta:     29   -0.032716    0.079384    1.285861
siesta:     30   -0.034248   -0.088441    1.278196
siesta:     31   -0.354568   -0.249344    0.115224
siesta:     32    0.042466    0.039783    0.175307
siesta:     33   -0.351437    0.241986    0.121207
siesta:     34    0.044367   -0.033836    0.171747
siesta:     35   -0.710421    0.002177    1.639170
siesta:     36    0.994633   -0.000392    1.373285
siesta:     37   -2.410148    0.000007    0.356927
siesta:     38    1.082437   -0.000018    0.086652
siesta:     39   -2.408514   -0.000170    0.349681
siesta:     40    1.087341   -0.000006    0.079740
siesta:     41   -2.410442    0.000002    0.356718
siesta:     42    1.095536   -0.000054    0.084367
siesta:     43    0.041834   -0.000392   -0.419190
siesta:     44    0.041374    0.001058   -0.418665
siesta:     45   -0.032185    0.001019   -0.417815
siesta:     46   -0.032169   -0.000325   -0.418364
siesta:     47    0.003135   -0.001043   -0.419687
siesta:     48    0.003525    0.001758   -0.419786
siesta:     49   -0.053796    0.003358   -0.556981
siesta:     50   -0.029244   -0.001116   -0.526972
siesta:     51    0.001279    0.001277   -0.529728
siesta:     52   -0.008614    0.002824   -0.518730
siesta:     53    0.010802    0.000893   -0.546531
siesta:     54    0.040207   -0.000635   -0.548427
siesta:     55   -0.059508    0.011470   -0.810294
siesta:     56   -0.059785   -0.010516   -0.804740
siesta:     57    0.096628   -0.002959   -0.808475
siesta:     58    0.101525    0.006943   -0.809561
siesta:     59    0.019190    0.000671   -0.793730
siesta:     60    0.022787   -0.003005   -0.792515
siesta:     61   -0.200468    0.003193   -0.955740
siesta:     62   -0.202327    0.001415   -0.949344
siesta:     63    0.230184   -0.009010   -1.032995
siesta:     64   -0.322691   -0.000868   -1.088046
siesta:     65    0.221433    0.007118   -1.006718
siesta:     66    0.253953   -0.003193   -0.920893
siesta:     67    1.545771   -0.000130   -1.151848
siesta:     68    0.829244    0.000038    0.824295
siesta:     69   -0.288422    0.000083    0.406909
siesta:     70   -0.772971    0.000032   -0.469125
siesta:     71    1.544042    0.000065   -1.153509
siesta:     72    0.829830    0.000327    0.823016
siesta:     73   -0.294075    0.000040    0.408547
siesta:     74   -0.776435    0.000040   -0.474372
siesta:     75    1.545222    0.000041   -1.150657
siesta:     76    0.828644    0.000038    0.823413
siesta:     77   -0.295963    0.000057    0.411571
siesta:     78   -0.781561    0.000025   -0.476954
siesta: ----------------------------------------
siesta:    Tot   -0.010833    0.003101   -0.160841

siesta: Stress tensor (static) (eV/Ang**3):
siesta:    -0.046827   -0.000005    0.001577
siesta:    -0.000005   -0.042429    0.000119
siesta:     0.001577    0.000119   -0.040129

siesta: Cell volume =       1543.760568 Ang**3

siesta: Pressure (static):
siesta:                Solid            Molecule  Units
siesta:           0.00046972          0.00030915  Ry/Bohr**3
siesta:           0.04312844          0.02838501  eV/Ang**3
siesta:          69.10013048         45.47829776  kBar
(Free)E+ p_basis*V_orbitals  =       -8684.008454
(Free)Eharris+ p_basis*V_orbitals  =       -8684.161703

siesta: Electric dipole (a.u.)  =   -0.000000    0.000000   -3.046853
siesta: Electric dipole (Debye) =   -0.000000    0.000000   -7.744332

* Maximum dynamic memory allocated : Node    0 =   251 MB

* Maximum memory occured during poison                        

timer: CPU execution times:
timer:  Routine       Calls   Time/call    Tot.time        %
timer:  siesta            1    5161.116    5161.116   100.00
timer:  Setup             1       1.128       1.128     0.02
timer:  bands             1       0.004       0.004     0.00
timer:  writewave         1       0.009       0.009     0.00
timer:  KSV_init          1       0.001       0.001     0.00
timer:  IterMD            1    5114.614    5114.614    99.10
timer:  hsparse           1       1.288       1.288     0.02
timer:  overlap           1       0.485       0.485     0.01
timer:  IterSCF          63      78.926    4972.309    96.34
timer:  kinefsm           2       0.374       0.748     0.01
timer:  nlefsm            2       6.124      12.248     0.24
timer:  DHSCF            65      71.876    4671.928    90.52
timer:  DHSCF1            1       0.613       0.613     0.01
timer:  DHSCF2            1      28.385      28.385     0.55
timer:  REORD           660       0.010       6.277     0.12
timer:  POISON           66       0.352      23.226     0.45
timer:  DHSCF3           65      70.452    4579.367    88.73
timer:  rhoofd           65      39.206    2548.400    49.38
timer:  cellXC           65       5.000     324.987     6.30
timer:  vmat             64      26.002    1664.096    32.24
timer:  MolMec            2       0.000       0.000     0.00
timer:  diagon           63       7.301     459.967     8.91
timer:  c-eigval        126       1.109     139.674     2.71
timer:  c-buildHS       126       0.032       4.027     0.08
timer:  cdiag           252       1.318     332.015     6.43
timer:  cdiag1          252       0.121      30.563     0.59
timer:  cdiag2          252       0.430     108.242     2.10
timer:  cdiag3          252       0.682     171.927     3.33
timer:  cdiag4          252       0.084      21.174     0.41
timer:  c-eigvec        126       1.590     200.333     3.88
timer:  c-buildD        126       0.950     119.726     2.32
timer:  DHSCF4            1      62.519      62.519     1.21
timer:  dfscf             1      56.470      56.470     1.09
timer:  overfsm           1       0.245       0.245     0.00
timer:  optical           1       0.002       0.002     0.00
  

elaps: ELAPSED times:
elaps:  Routine       Calls   Time/call    Tot.time        %
elaps:  siesta            1    5203.956    5203.956   100.00
elaps:  Setup             1       1.183       1.183     0.02
elaps:  bands             1       0.004       0.004     0.00
elaps:  writewave         1       0.010       0.010     0.00
elaps:  KSV_init          1       0.001       0.001     0.00
elaps:  IterMD            1    5156.669    5156.669    99.09
elaps:  hsparse           1       1.289       1.289     0.02
elaps:  overlap           1       0.487       0.487     0.01
elaps:  IterSCF          63      79.576    5013.269    96.34
elaps:  kinefsm           2       0.375       0.750     0.01
elaps:  nlefsm            2       6.130      12.259     0.24
elaps:  DHSCF            65      72.450    4709.219    90.49
elaps:  DHSCF1            1       0.614       0.614     0.01
elaps:  DHSCF2            1      28.980      28.980     0.56
elaps:  REORD           660       0.010       6.361     0.12
elaps:  POISON           66       0.356      23.493     0.45
elaps:  DHSCF3           65      71.009    4615.581    88.69
elaps:  rhoofd           65      39.502    2567.656    49.34
elaps:  cellXC           65       5.063     329.081     6.32
elaps:  vmat             64      26.186    1675.935    32.21
elaps:  MolMec            2       0.000       0.000     0.00
elaps:  diagon           63       7.348     462.950     8.90
elaps:  c-eigval        126       1.114     140.339     2.70
elaps:  c-buildHS       126       0.032       4.059     0.08
elaps:  cdiag           252       1.325     333.931     6.42
elaps:  cdiag1          252       0.123      30.919     0.59
elaps:  cdiag2          252       0.432     108.860     2.09
elaps:  cdiag3          252       0.686     172.781     3.32
elaps:  cdiag4          252       0.084      21.258     0.41
elaps:  c-eigvec        126       1.601     201.684     3.88
elaps:  c-buildD        126       0.957     120.602     2.32
elaps:  DHSCF4            1      62.983      62.983     1.21
elaps:  dfscf             1      56.556      56.556     1.09
elaps:  overfsm           1       0.245       0.245     0.00
elaps:  optical           1       0.002       0.002     0.00
  
>> End of run:   2-SEP-2009  14:07:49
