
                           ***********************       
                           *  WELCOME TO SIESTA  *       
                           ***********************       

reinit: Reading from ../sic-slab.fdf

reinit: -----------------------------------------------------------------------
reinit: System Name: H-SiC surface
reinit: -----------------------------------------------------------------------
reinit: System Label: sic-slab
reinit: -----------------------------------------------------------------------
Siesta Version: siesta-4.1--731
Architecture  : x86_64-linux-n-62-18-14
Compiler flags: mpifort -m64 -fPIC -O3 -march=native -ftree-vectorize -fexpensive-optimizatioons -funroll-loops -fprefetch-loop-arrays -fno-second-underscore  -flto -fuse-linker-plugin
PP flags      : -I/zdata/groups/common/nicpa/2016-oct/generic/build-tools/1.0/include -I/zdatta/groups/common/nicpa/2016-oct/generic/gmp/6.1.0/include -I/zdata/groups/common/nicpa/2016-oct/generic/mpfr/3.1.4/include -I/zdata/groups/common/nicpa/2016-oct/generic/mpc/1.0.3/include -I/zdata/groups/common/nicpa/2016-oct/generic/isl/0.16.1/include -I/zdata/groups/common/nicpa/2016-oct/generic/gcc/6.2.0/include -I/zdata/groups/common/nicpa/2016-oct/generic/numactl/2.0.11/include -I/zdata/groups/common/nicpa/2016-oct/XeonE5-2665/zlib/1.2.8/gnu-6.2.0/include -I/zdata/groups/common/nicpa/2016-oct/XeonE5-2665/libxml2/2.9.4/gnu-6.2.0/include -I/zdata/groups/common/nicpa/2016-oct/XeonE5-2665/hwloc/1.11.4/gnu-6.2.0/include -I/zdata/groups/common/nicpa/2016-oct/XeonE5-2665/openmpi/2.0.1/gnu-6.2.0/include -I/zdata/groups/common/nicpa/2016-oct/XeonE5-2665/hdf5/1.8.17/gnu-6.2.0/include -I/zdata/groups/common/nicpa/2016-oct/XeonE5-2665/pnetcdf/1.7.0/gnu-6.2.0/include -I/zdata/groups/common/nicpa/2016-oct/XeonE5-2665/netcdf/4.4.1/gnu-6.2.0/include -I/zdata/groups/common/nicpa/2016-oct/XeonE5-2665/flook/0.7.0/gnu-6.2.0/include -I/zdata/groups/common/nicpa/2016-oct/XeonE5-2665/parmetis/4.0.3/gnu-6.2.0/include -I/zdata/groups/common/nicpa/2016-oct/XeonE5-2665/scalapack/204/gnu-6.2.0/include -I/zdata/groups/common/nicpa/2016-oct/XeonE5-2665/openblas/0.2.19/gnu-6.2.0/include -I/zdata/groups/common/nicpa/2016-oct/XeonE5-2665/mumps/5.0.2/gnu-6.2.0/include -I/zdata/groups/common/nicpa/2016-oct/XeonE5-2665/fftw/3.3.5/gnu-6.2.0/include -DMPI -DFC_HAVE_FLUSH -DFC_HAVE_ABORT -DCDF -DCDF4 -DSIESTA__METIS -DSIESTA__MUMPS -DTS_NOCHECKS -DNCDF -DNCDF_4 -DNCDF_PARALLEL -DSIESTA__FLOOK
Libraries     : -lnetcdff -lnetcdf -lpnetcdf -lhdf5_hl -lhdf5 -lz  -lzmumps -lmumps_common -llpord -lparmetis -lmetis -lscalapack -lopenblas  -lmetis -flto -fuse-linker-plugin  -L/zdata/groups/common/nicpa/2016-oct/XeonE5-2665/flook/0.7.0/gnu-6.2.0/lib -Wl,-rpath=/zdata/groups/common/nicpa/2016-oct/XeonE5-2665/flook/0.7.0/gnu-6.2.0/lib -lflookall -ldl
PARALLEL version
NetCDF support
NetCDF-4 support
NetCDF-4 MPI-IO support
METIS ordering support

* Running on 8 nodes in parallel
>> Start of run:   2-JUL-2017  11:59:16

initatom: Reading input for the pseudopotentials and atomic orbitals ----------
Species number:   1 Atomic number:   14 Label: Si.pbe
Species number:   2 Atomic number:    6 Label: C.pbe
Species number:   3 Atomic number:    1 Label: H.pbe

Ground state valence configuration:   3s02  3p02
Reading pseudopotential information in formatted form from Si.pbe.psf

Valence configuration for pseudopotential generation:
3s( 2.00) rc: 1.89
3p( 2.00) rc: 1.89
3d( 0.00) rc: 1.89
4f( 0.00) rc: 1.89
Ground state valence configuration:   2s02  2p02
Reading pseudopotential information in formatted form from C.pbe.psf

Valence configuration for pseudopotential generation:
2s( 2.00) rc: 1.49
2p( 2.00) rc: 1.52
3d( 0.00) rc: 1.52
Ground state valence configuration:   1s01
Reading pseudopotential information in formatted form from H.pbe.psf

Valence configuration for pseudopotential generation:
1s( 1.00) rc: 1.43
2p( 0.00) rc: 1.25
3d( 0.00) rc: 1.25
4f( 0.00) rc: 1.25
For Si.pbe, standard SIESTA heuristics set lmxkb to 2
 (one more than the basis l, including polarization orbitals).
Use PS.lmax or PS.KBprojectors blocks to override.
For C.pbe, standard SIESTA heuristics set lmxkb to 2
 (one more than the basis l, including polarization orbitals).
Use PS.lmax or PS.KBprojectors blocks to override.
For H.pbe, standard SIESTA heuristics set lmxkb to 2
 (one more than the basis l, including polarization orbitals).
Use PS.lmax or PS.KBprojectors blocks to override.

<basis_specs>
===============================================================================
Si.pbe               Z=  14    Mass=  28.090        Charge= 0.33050    
Lmxo=1 Lmxkb= 2    BasisType=split      Semic=F
L=0  Nsemic=0  Cnfigmx=3
          n=1  nzeta=1  polorb=0
            splnorm:   0.15000    
               vcte:    175.72    
               rinn:    6.2327    
               qcoe:    0.0000    
               qyuk:    0.0000    
               qwid:   0.10000E-01
                rcs:    6.2845    
            lambdas:    1.0000    
L=1  Nsemic=0  Cnfigmx=3
          n=1  nzeta=1  polorb=0
            splnorm:   0.15000    
               vcte:    27.011    
               rinn:    6.3612    
               qcoe:    0.0000    
               qyuk:    0.0000    
               qwid:   0.10000E-01
                rcs:    7.4564    
            lambdas:    1.0000    
-------------------------------------------------------------------------------
L=0  Nkbl=1  erefs: 0.17977+309
L=1  Nkbl=1  erefs: 0.17977+309
L=2  Nkbl=1  erefs: 0.17977+309
===============================================================================
</basis_specs>

atom: Called for Si.pbe                (Z =  14)

read_vps: Pseudopotential generation method:
read_vps: ATM3      Troullier-Martins                       
Total valence charge:    4.00000

xc_check: Exchange-correlation functional:
xc_check: GGA Perdew, Burke & Ernzerhof 1996
V l=0 = -2*Zval/r beyond r=  2.7826
V l=1 = -2*Zval/r beyond r=  2.7826
V l=2 = -2*Zval/r beyond r=  2.7826
All V_l potentials equal beyond r=  1.8652
This should be close to max(r_c) in ps generation
All pots = -2*Zval/r beyond r=  2.7826
Using large-core scheme for Vlocal

atom: Estimated core radius    2.78258

atom: Including non-local core corrections could be a good idea
atom: Maximum radius for 4*pi*r*r*local-pseudopot. charge    3.07525
atom: Maximum radius for r*vlocal+2*Zval:    2.81758
GHOST: No ghost state for L =  0
GHOST: No ghost state for L =  1
GHOST: No ghost state for L =  2

KBgen: Kleinman-Bylander projectors: 
   l= 0   rc=  1.936440   el= -0.791474   Ekb=  4.527346   kbcos=  0.300929
   l= 1   rc=  1.936440   el= -0.300649   Ekb=  1.471620   kbcos=  0.304055
   l= 2   rc=  1.936440   el=  0.001958   Ekb= -2.865202   kbcos= -0.050894

KBgen: Total number of  Kleinman-Bylander projectors:    9
atom: -------------------------------------------------------------------------

atom: SANKEY-TYPE ORBITALS:

atom: basis set generated (by rescaling the valence charge)
atom: for a cation of charge   0.3305

SPLIT: Orbitals with angular momentum L= 0

SPLIT: Basis orbitals for state 3s

   izeta = 1
                 lambda =    1.000000
                     rc =    6.270866
                 energy =   -1.030900
                kinetic =    0.542146
    potential(screened) =   -1.573046
       potential(ionic) =   -3.777459

SPLIT: Orbitals with angular momentum L= 1

SPLIT: Basis orbitals for state 3p

   izeta = 1
                 lambda =    1.000000
                     rc =    7.470179
                 energy =   -0.513956
                kinetic =    0.889669
    potential(screened) =   -1.403625
       potential(ionic) =   -3.442715
atom: Total number of Sankey-type orbitals:  4

atm_pop: Valence configuration (for local Pseudopot. screening):
 3s( 2.00)                                                            
 3p( 2.00)                                                            
Vna: chval, zval:    4.00000   4.00000

Vna:  Cut-off radius for the neutral-atom potential:   7.470179

atom: _________________________________________________________________________

<basis_specs>
===============================================================================
C.pbe                Z=   6    Mass=  12.010        Charge=-0.20340    
Lmxo=1 Lmxkb= 2    BasisType=split      Semic=F
L=0  Nsemic=0  Cnfigmx=2
          n=1  nzeta=1  polorb=0
            splnorm:   0.15000    
               vcte:    166.60    
               rinn:    6.0853    
               qcoe:    0.0000    
               qyuk:    0.0000    
               qwid:   0.10000E-01
                rcs:    6.1031    
            lambdas:    1.0000    
L=1  Nsemic=0  Cnfigmx=2
          n=1  nzeta=1  polorb=0
            splnorm:   0.15000    
               vcte:    92.896    
               rinn:    8.1457    
               qcoe:    0.0000    
               qyuk:    0.0000    
               qwid:   0.10000E-01
                rcs:    8.2107    
            lambdas:    1.0000    
-------------------------------------------------------------------------------
L=0  Nkbl=1  erefs: 0.17977+309
L=1  Nkbl=1  erefs: 0.17977+309
L=2  Nkbl=1  erefs: 0.17977+309
===============================================================================
</basis_specs>

atom: Called for C.pbe                 (Z =   6)

read_vps: Pseudopotential generation method:
read_vps: ATM 3.2.2 Troullier-Martins                       
Total valence charge:    4.00000

read_vps: Pseudopotential includes a core correction:
read_vps: Pseudo-core for xc-correction

xc_check: Exchange-correlation functional:
xc_check: GGA Perdew, Burke & Ernzerhof 1996
V l=0 = -2*Zval/r beyond r=  1.4666
V l=1 = -2*Zval/r beyond r=  1.5038
V l=2 = -2*Zval/r beyond r=  1.5038
All V_l potentials equal beyond r=  1.5038
This should be close to max(r_c) in ps generation
All pots = -2*Zval/r beyond r=  1.5038

VLOCAL1: 99.0% of the norm of Vloc inside     19.196 Ry
VLOCAL1: 99.9% of the norm of Vloc inside     43.748 Ry
atom: Maximum radius for 4*pi*r*r*local-pseudopot. charge    1.81396
atom: Maximum radius for r*vlocal+2*Zval:    1.56123
GHOST: No ghost state for L =  0
GHOST: No ghost state for L =  1
GHOST: No ghost state for L =  2

KBgen: Kleinman-Bylander projectors: 
   l= 0   rc=  1.682861   el= -1.009802   Ekb=  5.530688   kbcos=  0.309203
   l= 1   rc=  1.682861   el= -0.388707   Ekb= -3.901042   kbcos= -0.358653
   l= 2   rc=  1.769164   el=  0.001971   Ekb= -0.965319   kbcos= -0.008918

KBgen: Total number of  Kleinman-Bylander projectors:    9
atom: -------------------------------------------------------------------------

atom: SANKEY-TYPE ORBITALS:

atom: basis set generated (by rescaling the valence charge)
atom: for an anion of charge  -0.2034

SPLIT: Orbitals with angular momentum L= 0

SPLIT: Basis orbitals for state 2s

   izeta = 1
                 lambda =    1.000000
                     rc =    6.099293
                 energy =   -1.008072
                kinetic =    0.786791
    potential(screened) =   -1.794863
       potential(ionic) =   -5.296547

SPLIT: Orbitals with angular momentum L= 1

SPLIT: Basis orbitals for state 2p

   izeta = 1
                 lambda =    1.000000
                     rc =    8.233328
                 energy =   -0.384246
                kinetic =    2.061715
    potential(screened) =   -2.445961
       potential(ionic) =   -5.701979
atom: Total number of Sankey-type orbitals:  4

atm_pop: Valence configuration (for local Pseudopot. screening):
 2s( 2.00)                                                            
 2p( 2.00)                                                            
Vna: chval, zval:    4.00000   4.00000

Vna:  Cut-off radius for the neutral-atom potential:   8.233328
comcore: Pseudo-core radius Rcore=  1.791422

atom: _________________________________________________________________________

<basis_specs>
===============================================================================
H.pbe                Z=   1    Mass=  1.0100        Charge= 0.17977+309
Lmxo=0 Lmxkb= 2    BasisType=split      Semic=F
L=0  Nsemic=0  Cnfigmx=1
          n=1  nzeta=2  polorb=1
            splnorm:   0.15000    
               vcte:    0.0000    
               rinn:    0.0000    
               qcoe:    0.0000    
               qyuk:    0.0000    
               qwid:   0.10000E-01
                rcs:    0.0000      0.0000    
            lambdas:    1.0000      1.0000    
-------------------------------------------------------------------------------
L=0  Nkbl=1  erefs: 0.17977+309
L=1  Nkbl=1  erefs: 0.17977+309
L=2  Nkbl=1  erefs: 0.17977+309
===============================================================================
</basis_specs>

atom: Called for H.pbe                 (Z =   1)

read_vps: Pseudopotential generation method:
read_vps: ATM 3.2.2 Troullier-Martins                       
Total valence charge:    1.00000

xc_check: Exchange-correlation functional:
xc_check: GGA Perdew, Burke & Ernzerhof 1996
V l=0 = -2*Zval/r beyond r=  1.4166
V l=1 = -2*Zval/r beyond r=  1.3816
V l=2 = -2*Zval/r beyond r=  1.3816
All V_l potentials equal beyond r=  1.4166
This should be close to max(r_c) in ps generation
All pots = -2*Zval/r beyond r=  1.4166

VLOCAL1: 99.0% of the norm of Vloc inside     21.631 Ry
VLOCAL1: 99.9% of the norm of Vloc inside     49.298 Ry
atom: Maximum radius for 4*pi*r*r*local-pseudopot. charge    1.66698
atom: Maximum radius for r*vlocal+2*Zval:    1.39896
GHOST: No ghost state for L =  0
GHOST: No ghost state for L =  1
GHOST: No ghost state for L =  2

KBgen: Kleinman-Bylander projectors: 
   l= 0   rc=  1.565833   el= -0.477200   Ekb= -1.851072   kbcos= -0.391986
   l= 1   rc=  1.646243   el=  0.001076   Ekb= -0.560969   kbcos= -0.025747
   l= 2   rc=  1.687980   el=  0.002010   Ekb= -0.184546   kbcos= -0.003662

KBgen: Total number of  Kleinman-Bylander projectors:    9
atom: -------------------------------------------------------------------------

atom: SANKEY-TYPE ORBITALS:
atom: Selected multiple-zeta basis: split     

SPLIT: Orbitals with angular momentum L= 0

SPLIT: Basis orbitals for state 1s

SPLIT: PAO cut-off radius determined from an
SPLIT: energy shift=  0.020000 Ry

   izeta = 1
                 lambda =    1.000000
                     rc =    4.708991
                 energy =   -0.457754
                kinetic =    0.969078
    potential(screened) =   -1.426832
       potential(ionic) =   -1.954497

   izeta = 2
                 rmatch =    3.759707
              splitnorm =    0.150000
                 energy =   -0.338955
                kinetic =    1.561908
    potential(screened) =   -1.900862
       potential(ionic) =   -2.450466

POLgen: Perturbative polarization orbital with L=  1

POLgen: Polarization orbital for state 1s

   izeta = 1
                     rc =    4.708991
                 energy =    0.764844
                kinetic =    1.483543
    potential(screened) =   -0.718699
       potential(ionic) =   -1.210766
atom: Total number of Sankey-type orbitals:  5

atm_pop: Valence configuration (for local Pseudopot. screening):
 1s( 1.00)                                                            
Vna: chval, zval:    1.00000   1.00000

Vna:  Cut-off radius for the neutral-atom potential:   4.708991

atom: _________________________________________________________________________

prinput: Basis input ----------------------------------------------------------

PAO.BasisType split     

%block ChemicalSpeciesLabel
    1   14 Si.pbe                  # Species index, atomic number, species label
    2    6 C.pbe                   # Species index, atomic number, species label
    3    1 H.pbe                   # Species index, atomic number, species label
%endblock ChemicalSpeciesLabel

%block PAO.Basis                 # Define Basis set
Si.pbe                2   0.331            # Label, l-shells, ionic net charge
 n=3   0   1                         # n, l, Nzeta 
   6.271   
   1.000   
 n=3   1   1                         # n, l, Nzeta 
   7.470   
   1.000   
C.pbe                 2  -0.203            # Label, l-shells, ionic net charge
 n=2   0   1                         # n, l, Nzeta 
   6.099   
   1.000   
 n=2   1   1                         # n, l, Nzeta 
   8.233   
   1.000   
H.pbe                 1                    # Species label, number of l-shells
 n=1   0   2 P   1                   # n, l, Nzeta, Polarization, NzetaPol
   4.709      3.760   
   1.000      1.000   
%endblock PAO.Basis

prinput: ----------------------------------------------------------------------

Dumping basis to NetCDF file Si.pbe.ion.nc
Dumping basis to NetCDF file C.pbe.ion.nc
Dumping basis to NetCDF file H.pbe.ion.nc
coor:   Atomic-coordinates input format  =     Cartesian coordinates
coor:                                          (in Angstroms)

siesta: Atomic coordinates (Bohr) and species
siesta:      0.00000   0.00000   2.09509  1        1
siesta:      0.00000   5.89276   2.09509  1        2
siesta:      5.89276   0.00000   2.09509  1        3
siesta:      5.89276   5.89276   2.09509  1        4
siesta:     11.78551   0.00000   2.09509  1        5
siesta:     11.78551   5.89276   2.09509  1        6
siesta:      2.94638   2.94638   6.28526  1        7
siesta:      2.94638   8.83913   6.28526  1        8
siesta:      8.83913   2.94638   6.28526  1        9
siesta:      8.83913   8.83913   6.28526  1       10
siesta:     14.73189   2.94638   6.28526  1       11
siesta:     14.73189   8.83913   6.28526  1       12
siesta:      0.01943   0.01257  10.43700  1       13
siesta:      0.02005   5.88412  10.43697  1       14
siesta:      5.88572   0.01041  10.49451  1       15
siesta:      5.88522   5.88634  10.49450  1       16
siesta:     11.75273   0.01516  10.44056  1       17
siesta:     11.75272   5.88124  10.44112  1       18
siesta:      2.90539   2.94969  14.73251  1       19
siesta:      2.90852   8.84266  14.65932  1       20
siesta:      8.83599   2.94881  14.74497  1       21
siesta:      8.86576   8.84141  14.65814  1       22
siesta:     14.72584   2.94923  14.52925  1       23
siesta:     14.73445   8.84167  14.47460  1       24
siesta:     -0.62892  -0.02525  18.75121  1       25
siesta:     -0.62820   5.92728  18.75163  1       26
siesta:      5.82977  -0.10334  18.88184  1       27
siesta:      5.82928   6.00228  18.88149  1       28
siesta:     12.43800  -0.02041  18.71654  1       29
siesta:     12.43847   5.92012  18.71732  1       30
siesta:      2.50006  -0.59770  21.88324  1       31
siesta:      9.31040  -0.64211  21.82872  1       32
siesta:      2.50034   6.50121  21.88319  1       33
siesta:      9.30982   6.53825  21.82891  1       34
siesta:      3.17909   2.95107  24.80650  1       35
siesta:      7.42712   2.94828  23.66212  1       36
siesta:      0.00000   2.94638   0.00000  2       37
siesta:      0.00000   8.83913   0.00000  2       38
siesta:      5.89276   2.94638   0.00000  2       39
siesta:      5.89276   8.83913   0.00000  2       40
siesta:     11.78551   2.94638   0.00000  2       41
siesta:     11.78551   8.83913   0.00000  2       42
siesta:      2.94638   0.00000   4.19017  2       43
siesta:      2.94638   5.89276   4.19017  2       44
siesta:      8.83913   0.00000   4.19017  2       45
siesta:      8.83913   5.89276   4.19017  2       46
siesta:     14.73189   0.00000   4.19017  2       47
siesta:     14.73189   5.89276   4.19017  2       48
siesta:      0.01005   2.94773   8.35244  2       49
siesta:      0.01172   8.84077   8.36619  2       50
siesta:      5.89093   2.94787   8.38397  2       51
siesta:      5.89124   8.84049   8.39503  2       52
siesta:     11.77268   2.94789   8.35315  2       53
siesta:     11.76862   8.84052   8.37012  2       54
siesta:      2.92883   0.01963  12.58727  2       55
siesta:      2.92889   5.87917  12.58714  2       56
siesta:      8.83835   0.02218  12.59173  2       57
siesta:      8.83778   5.87470  12.59177  2       58
siesta:     14.72417   0.01630  12.45737  2       59
siesta:     14.72420   5.88159  12.45717  2       60
siesta:     -0.08677   2.95054  16.72801  2       61
siesta:     -0.09209   8.84323  16.64294  2       62
siesta:      5.85248   2.94999  16.89358  2       63
siesta:      5.90005   8.84236  16.66174  2       64
siesta:     11.83834   2.94940  16.72387  2       65
siesta:     11.86708   8.84238  16.63615  2       66
siesta:      1.49836   2.94645  -1.32281  3       67
siesta:     -1.70931   2.94635  -1.32281  3       68
siesta:      1.65433   8.83912  -1.32281  3       69
siesta:     -1.55940   8.83912  -1.32281  3       70
siesta:      7.39117   2.94638  -1.32281  3       71
siesta:      4.18365   2.94626  -1.32281  3       72
siesta:      7.54746   8.83913  -1.32281  3       73
siesta:      4.33372   8.83909  -1.32281  3       74
siesta:     13.28404   2.94638  -1.32281  3       75
siesta:     10.07638   2.94637  -1.32281  3       76
siesta:     13.44048   8.83912  -1.32281  3       77
siesta:     10.22677   8.83912  -1.32281  3       78

siesta: System type = slab      

initatomlists: Number of atoms, orbitals, and projectors:     78   324   702

siesta: ******************** Simulation parameters ****************************
siesta:
siesta: The following are some of the parameters of the simulation.
siesta: A complete list of the parameters used, including default values,
siesta: can be found in file out.fdf
siesta:
redata: Spin configuration                          = none
redata: Number of spin components                   = 1
redata: Time-Reversal Symmetry                      = T
redata: Spin-spiral                                 = F
redata: Long output                                 =   F
redata: Number of Atomic Species                    =        3
redata: Charge density info will appear in .RHO file
redata: Write Mulliken Pop.                         = NO
redata: Mesh Cutoff                                 =   150.0000 Ry
redata: Net charge of the system                    =    -1.0000 |e|
redata: Min. number of SCF Iter                     =        0
redata: Max. number of SCF Iter                     =     1000
redata: SCF mix quantity                            = Hamiltonian
redata: Mix DM or H after convergence               =   F
redata: Recompute H after scf cycle                 =   F
redata: Mix DM in first SCF step                    =   T
redata: Write Pulay info on disk                    =   F
redata: New DM Mixing Weight                        =     0.0100
redata: New DM Occupancy tolerance                  = 0.000000000001
redata: No kicks to SCF
redata: DM Mixing Weight for Kicks                  =     0.5000
redata: Require Harris convergence for SCF          =   F
redata: Harris energy tolerance for SCF             =     0.000100 eV
redata: Require DM convergence for SCF              =   T
redata: DM tolerance for SCF                        =     0.0010
redata: Require EDM convergence for SCF             =   F
redata: EDM tolerance for SCF                       =     0.001000 eV
redata: Require H convergence for SCF               =   T
redata: Hamiltonian tolerance for SCF               =     0.001000 eV
redata: Require (free) Energy convergence for SCF   =   F
redata: (free) Energy tolerance for SCF             =     0.000100 eV
redata: Using Saved Data (generic)                  =   T
redata: Use continuation files for DM               =   T
redata: Neglect nonoverlap interactions             =   F
redata: Method of Calculation                       = Diagonalization
redata: Divide and Conquer                          =   F
redata: Electronic Temperature                      =   299.9869 K
redata: Fix the spin of the system                  =   F
redata: Dynamics option                             = Single-point calculation
mix.SCF: Pulay mixing                            = Pulay
mix.SCF:    Variant                              = stable
mix.SCF:    History steps                        = 3
mix.SCF:    Linear mixing weight                 =     0.010000
mix.SCF:    Mixing weight                        =     0.010000
mix.SCF:    SVD condition                        = 0.1000E-07
redata: Save all siesta data in one NC              =   F
redata: ***********************************************************************

%block SCF.Mixers
  Pulay
%endblock SCF.Mixers

%block SCF.Mixer.Pulay
  # Mixing method
  method pulay
  variant stable

  # Mixing options
  weight 0.0100
  weight.linear 0.0100
  history 3
%endblock SCF.Mixer.Pulay

DM_history_depth set to one: no extrapolation allowed by default for geometry relaxation
Size of DM history Fstack: 1
Total number of electrons:   277.000000
Total ionic charge:   276.000000
madelung: WARNING: Charged system, but not an atom or molecule.
madelung: WARNING: Energy correction terms can not be applied. 
madelung: WARNING: Continue only if you really know what you are doing.

* ProcessorY, Blocksize:    2  24


* Orbital distribution balance (max,min):    48    24

k-point displ. along   3 input, could be:     0.50    0.00
 Kpoints in:            2 . Kpoints trimmed:            2

siesta: k-grid: Number of k-points =     2
siesta: k-grid: Cutoff (effective) =     6.237 Ang
siesta: k-grid: Supercell and displacements
siesta: k-grid:    2   0   0      0.500
siesta: k-grid:    0   2   0      0.500
siesta: k-grid:    0   0   1      0.500

superc: Internal auxiliary supercell:     3 x     5 x     1  =      15
superc: Number of atoms, orbitals, and projectors:   1170   4860  10530


                     ====================================
                        Single-point calculation
                     ====================================

superc: Internal auxiliary supercell:     3 x     5 x     1  =      15
superc: Number of atoms, orbitals, and projectors:   1170   4860  10530

outcell: Unit cell vectors (Ang):
        9.354933    0.000000    0.000000
        0.000000    6.236622    0.000000
        0.000000    0.000000   26.460000

outcell: Cell vector modules (Ang)   :    9.354933    6.236622   26.460000
outcell: Cell angles (23,13,12) (deg):     90.0000     90.0000     90.0000
outcell: Cell volume (Ang**3)        :   1543.7606
<dSpData1D:S at geom step 0
  <sparsity:sparsity for geom step 0
    nrows_g=324 nrows=48 sparsity=.3980 nnzs=41779, refcount: 7>
  <dData1D:(new from dSpData1D) n=41779, refcount: 1>
refcount: 1>
new_DM -- step:     1
Initializing Density Matrix...

Attempting to read DM from file... Failed...
DM filled with atomic data:
<dSpData2D:DM initialized from atoms
  <sparsity:sparsity for geom step 0
    nrows_g=324 nrows=48 sparsity=.3980 nnzs=41779, refcount: 8>
  <dData2D:DM n=41779 m=1, refcount: 1>
refcount: 1>

Note: For starting DM, Qtot, Tr[D*S] =        277.00000000        276.00000207
No. of atoms with KB's overlaping orbs in proc 0. Max # of overlaps:     186     170
New grid distribution:   1
           1       1:   36    1:   12    1:   25
           2       1:   36    1:   12   26:   50
           3       1:   36    1:   12   51:   75
           4       1:   36    1:   12   76:  100
           5       1:   36   13:   24    1:   25
           6       1:   36   13:   24   26:   50
           7       1:   36   13:   24   51:   75
           8       1:   36   13:   24   76:  100

InitMesh: MESH =    72 x    48 x   200 =      691200
InitMesh: (bp) =    36 x    24 x   100 =       86400
InitMesh: Mesh cutoff (required, used) =   150.000   157.900 Ry
ExtMesh (bp) on 0 =   104 x    80 x    93 =      773760
New grid distribution:   2
           1      19:   36    1:   24    1:   12
           2      19:   36    1:   24   23:   33
           3      18:   36    1:   24   34:  100
           4       1:   18    1:   24   13:   22
           5       1:   18    1:   24    1:   12
           6       1:   18    1:   24   23:   33
           7       1:   17    1:   24   34:  100
           8      19:   36    1:   24   13:   22
New grid distribution:   3
           1      19:   36    1:   24    1:   19
           2       1:   18    1:   24   39:   57
           3      19:   36    1:   24   20:   38
           4      17:   36    1:   24   58:  100
           5       1:   18    1:   24    1:   19
           6      19:   36    1:   24   39:   57
           7       1:   18    1:   24   20:   38
           8       1:   16    1:   24   58:  100
Setting up quadratic distribution...
ExtMesh (bp) on 0 =    86 x    92 x    80 =      632960
PhiOnMesh: Number of (b)points on node 0 =                 5184
PhiOnMesh: nlist on node 0 =               491560

doping: SimulateDoping = .true. in input file
doping: Neutralizing background will be added to points
doping: other than vacuum, to simulate doping

efield: SlabDipoleCorrection enabled.
efield: A dipole layer will be introduced in the vacuum
efield: region to compensate the system dipole
Dipole moment in unit cell   =      0.0000     -0.0000      1.8475 D
Electric field for dipole correction =   -0.000000    0.000000   -0.045086 eV/Ang/e

stepf: Fermi-Dirac step function
Dipole moment in unit cell   =     -0.0000      0.0000    -19.5639 D
Electric field for dipole correction =    0.000000   -0.000000    0.477430 eV/Ang/e

siesta: Program's energy decomposition (eV):
siesta: Ebs     =     -2588.043492
siesta: Eions   =     14694.110283
siesta: Ena     =      3895.775417
siesta: Ekin    =      5738.875429
siesta: Enl     =      -159.657521
siesta: Eso     =         0.000000
siesta: Eldau   =         0.000000
siesta: DEna    =      -667.432760
siesta: DUscf   =       303.396321
siesta: DUext   =         0.972309
siesta: Exc     =     -3012.122003
siesta: eta*DQ  =         0.000000
siesta: Emadel  =         0.000000
siesta: Emeta   =         0.000000
siesta: Emolmec =         0.000000
siesta: Ekinion =         0.000000
siesta: Eharris =     -8043.560938
siesta: Etot    =     -8594.303092
siesta: FreeEng =     -8594.338929

        iscf     Eharris(eV)        E_KS(eV)     FreeEng(eV)     dDmax    Ef(eV) dHmax(eV)
   scf:    1    -8043.560938    -8594.303092    -8594.338929  1.746022 -3.823566 13.382497
timer: Routine,Calls,Time,% = IterSCF        1       2.391  49.39
Dipole moment in unit cell   =      0.0000     -0.0000    664.3273 D
Electric field for dipole correction =   -0.000000    0.000000  -16.211959 eV/Ang/e
   scf:    2      613.809517    -5635.297240    -5635.338774  1.567702 -2.083531235.236372
Dipole moment in unit cell   =     -0.0000      0.0000    -19.4745 D
Electric field for dipole correction =    0.000000   -0.000000    0.475247 eV/Ang/e
   scf:    3    -8313.216721    -8608.402904    -8608.438741  1.529648 -3.751938 12.384923
Dipole moment in unit cell   =     -0.0000      0.0000    -16.6392 D
Electric field for dipole correction =    0.000000   -0.000000    0.406057 eV/Ang/e
   scf:    4    -8770.328553    -8701.104200    -8701.140037  0.373180 -3.065359  4.173895
Dipole moment in unit cell   =     -0.0000      0.0000    -16.4296 D
Electric field for dipole correction =    0.000000   -0.000000    0.400941 eV/Ang/e
   scf:    5    -8699.735412    -8700.424108    -8700.459945  0.007342 -3.059948  4.045174
Dipole moment in unit cell   =     -0.0000      0.0000     -2.5113 D
Electric field for dipole correction =    0.000000   -0.000000    0.061286 eV/Ang/e
   scf:    6    -8732.785601    -8720.363469    -8720.399338  0.172628 -2.341208  2.787340
Dipole moment in unit cell   =     -0.0000      0.0000    -11.7516 D
Electric field for dipole correction =    0.000000   -0.000000    0.286780 eV/Ang/e
   scf:    7    -8703.303513    -8712.962125    -8712.997962  0.090613 -2.707307  1.831590
Dipole moment in unit cell   =      0.0000     -0.0000     38.1789 D
Electric field for dipole correction =   -0.000000    0.000000   -0.931702 eV/Ang/e
   scf:    8    -8686.906707    -8709.831521    -8709.867360  0.437920 -2.279882 17.163459
Dipole moment in unit cell   =      0.0000     -0.0000      3.4640 D
Electric field for dipole correction =   -0.000000    0.000000   -0.084533 eV/Ang/e
   scf:    9    -8723.612751    -8720.520730    -8720.556878  0.319609 -2.281044  4.523810
Dipole moment in unit cell   =     -0.0000      0.0000     -7.9707 D
Electric field for dipole correction =    0.000000   -0.000000    0.194513 eV/Ang/e
   scf:   10    -8715.198407    -8718.508710    -8718.544547  0.106441 -2.477720  1.627648
Dipole moment in unit cell   =     -0.0000      0.0000     -7.2917 D
Electric field for dipole correction =    0.000000   -0.000000    0.177943 eV/Ang/e
   scf:   11    -8719.626173    -8719.077023    -8719.112860  0.008842 -2.446296  1.756056
Dipole moment in unit cell   =     -0.0000      0.0000     -9.5608 D
Electric field for dipole correction =    0.000000   -0.000000    0.233318 eV/Ang/e
   scf:   12    -8713.887081    -8716.617144    -8716.652981  0.034164 -2.567647  1.341336
Dipole moment in unit cell   =     -0.0000      0.0000     -9.9135 D
Electric field for dipole correction =    0.000000   -0.000000    0.241924 eV/Ang/e
   scf:   13    -8715.669042    -8716.147632    -8716.183469  0.007208 -2.591288  1.250363
Dipole moment in unit cell   =     -0.0000      0.0000     -9.5081 D
Electric field for dipole correction =    0.000000   -0.000000    0.232032 eV/Ang/e
   scf:   14    -8718.645320    -8717.426278    -8717.462115  0.017980 -2.570457  1.297005
Dipole moment in unit cell   =     -0.0000      0.0000     -8.1513 D
Electric field for dipole correction =    0.000000   -0.000000    0.198922 eV/Ang/e
   scf:   15    -8721.471646    -8719.540211    -8719.576049  0.030491 -2.496137  1.058074
Dipole moment in unit cell   =     -0.0000      0.0000     -8.3583 D
Electric field for dipole correction =    0.000000   -0.000000    0.203971 eV/Ang/e
   scf:   16    -8719.289597    -8719.415431    -8719.451268  0.001923 -2.505093  1.095036
Dipole moment in unit cell   =     -0.0000      0.0000     -7.9300 D
Electric field for dipole correction =    0.000000   -0.000000    0.193521 eV/Ang/e
   scf:   17    -8723.138578    -8721.471570    -8721.507407  0.047434 -2.460223  1.018204
Dipole moment in unit cell   =     -0.0000      0.0000     -8.2256 D
Electric field for dipole correction =    0.000000   -0.000000    0.200734 eV/Ang/e
   scf:   18    -8721.526458    -8721.499379    -8721.535216  0.002532 -2.468656  1.030110
Dipole moment in unit cell   =     -0.0000      0.0000     -8.5348 D
Electric field for dipole correction =    0.000000   -0.000000    0.208279 eV/Ang/e
   scf:   19    -8721.346127    -8721.423947    -8721.459784  0.003352 -2.479293  1.008364
Dipole moment in unit cell   =     -0.0000      0.0000     -8.8011 D
Electric field for dipole correction =    0.000000   -0.000000    0.214777 eV/Ang/e
   scf:   20    -8720.642388    -8721.047244    -8721.083081  0.012329 -2.490962  0.862448
Dipole moment in unit cell   =     -0.0000      0.0000     -8.7505 D
Electric field for dipole correction =    0.000000   -0.000000    0.213543 eV/Ang/e
   scf:   21    -8721.060345    -8721.053867    -8721.089704  0.000888 -2.487676  0.814527
Dipole moment in unit cell   =     -0.0000      0.0000     -8.0193 D
Electric field for dipole correction =    0.000000   -0.000000    0.195699 eV/Ang/e
   scf:   22    -8722.005001    -8721.549365    -8721.585202  0.013288 -2.448001  0.585185
Dipole moment in unit cell   =     -0.0000      0.0000     -8.0196 D
Electric field for dipole correction =    0.000000   -0.000000    0.195707 eV/Ang/e
   scf:   23    -8721.620750    -8721.585195    -8721.621032  0.001240 -2.447168  0.581989
Dipole moment in unit cell   =     -0.0000      0.0000     -7.5763 D
Electric field for dipole correction =    0.000000   -0.000000    0.184889 eV/Ang/e
   scf:   24    -8722.582325    -8722.219063    -8722.254900  0.037930 -2.403393  0.378163
Dipole moment in unit cell   =     -0.0000      0.0000     -7.5650 D
Electric field for dipole correction =    0.000000   -0.000000    0.184612 eV/Ang/e
   scf:   25    -8722.232193    -8722.225874    -8722.261711  0.001498 -2.401035  0.353115
Dipole moment in unit cell   =     -0.0000      0.0000     -7.5818 D
Electric field for dipole correction =    0.000000   -0.000000    0.185023 eV/Ang/e
   scf:   26    -8722.217410    -8722.234576    -8722.270413  0.010341 -2.379696  0.070450
Dipole moment in unit cell   =     -0.0000      0.0000     -7.5809 D
Electric field for dipole correction =    0.000000   -0.000000    0.185001 eV/Ang/e
   scf:   27    -8722.235377    -8722.234978    -8722.270815  0.000103 -2.379548  0.068959
Dipole moment in unit cell   =     -0.0000      0.0000     -7.5554 D
Electric field for dipole correction =    0.000000   -0.000000    0.184380 eV/Ang/e
   scf:   28    -8722.241508    -8722.238413    -8722.274250  0.004687 -2.368794  0.035590
Dipole moment in unit cell   =     -0.0000      0.0000     -7.5555 D
Electric field for dipole correction =    0.000000   -0.000000    0.184382 eV/Ang/e
   scf:   29    -8722.239146    -8722.238781    -8722.274618  0.000133 -2.368524  0.035248
Dipole moment in unit cell   =     -0.0000      0.0000     -7.5773 D
Electric field for dipole correction =    0.000000   -0.000000    0.184913 eV/Ang/e
   scf:   30    -8722.251870    -8722.246784    -8722.282621  0.003694 -2.366061  0.013876
Dipole moment in unit cell   =     -0.0000      0.0000     -7.5753 D
Electric field for dipole correction =    0.000000   -0.000000    0.184863 eV/Ang/e
   scf:   31    -8722.246938    -8722.246862    -8722.282699  0.000101 -2.365867  0.012987
Dipole moment in unit cell   =     -0.0000      0.0000     -7.5535 D
Electric field for dipole correction =    0.000000   -0.000000    0.184334 eV/Ang/e
   scf:   32    -8722.247356    -8722.247146    -8722.282983  0.000562 -2.364329  0.006525
Dipole moment in unit cell   =     -0.0000      0.0000     -7.5534 D
Electric field for dipole correction =    0.000000   -0.000000    0.184330 eV/Ang/e
   scf:   33    -8722.247142    -8722.247144    -8722.282981  0.000014 -2.364347  0.006471
Dipole moment in unit cell   =     -0.0000      0.0000     -7.5544 D
Electric field for dipole correction =    0.000000   -0.000000    0.184354 eV/Ang/e
   scf:   34    -8722.247079    -8722.247114    -8722.282951  0.000146 -2.364626  0.005810
Dipole moment in unit cell   =     -0.0000      0.0000     -7.5557 D
Electric field for dipole correction =    0.000000   -0.000000    0.184387 eV/Ang/e
   scf:   35    -8722.247104    -8722.247109    -8722.282946  0.000021 -2.364719  0.005548
Dipole moment in unit cell   =     -0.0000      0.0000     -7.5574 D
Electric field for dipole correction =    0.000000   -0.000000    0.184428 eV/Ang/e
   scf:   36    -8722.247109    -8722.247109    -8722.282946  0.000027 -2.364827  0.005161
Dipole moment in unit cell   =     -0.0000      0.0000     -7.5586 D
Electric field for dipole correction =    0.000000   -0.000000    0.184457 eV/Ang/e
   scf:   37    -8722.247190    -8722.247152    -8722.282989  0.000151 -2.364842  0.004451
Dipole moment in unit cell   =     -0.0000      0.0000     -7.5587 D
Electric field for dipole correction =    0.000000   -0.000000    0.184460 eV/Ang/e
   scf:   38    -8722.247167    -8722.247159    -8722.282997  0.000035 -2.364850  0.004267
Dipole moment in unit cell   =     -0.0000      0.0000     -7.5575 D
Electric field for dipole correction =    0.000000   -0.000000    0.184429 eV/Ang/e
   scf:   39    -8722.247222    -8722.247194    -8722.283032  0.000215 -2.364937  0.004035
Dipole moment in unit cell   =     -0.0000      0.0000     -7.5573 D
Electric field for dipole correction =    0.000000   -0.000000    0.184426 eV/Ang/e
   scf:   40    -8722.247195    -8722.247195    -8722.283032  0.000005 -2.364929  0.003996
Dipole moment in unit cell   =     -0.0000      0.0000     -7.5526 D
Electric field for dipole correction =    0.000000   -0.000000    0.184312 eV/Ang/e
   scf:   41    -8722.247194    -8722.247195    -8722.283033  0.000269 -2.364342  0.003142
Dipole moment in unit cell   =     -0.0000      0.0000     -7.5528 D
Electric field for dipole correction =    0.000000   -0.000000    0.184315 eV/Ang/e
   scf:   42    -8722.247195    -8722.247195    -8722.283032  0.000008 -2.364334  0.003122
Dipole moment in unit cell   =     -0.0000      0.0000     -7.5554 D
Electric field for dipole correction =    0.000000   -0.000000    0.184380 eV/Ang/e
   scf:   43    -8722.247197    -8722.247196    -8722.283033  0.000044 -2.364446  0.002730
Dipole moment in unit cell   =     -0.0000      0.0000     -7.5557 D
Electric field for dipole correction =    0.000000   -0.000000    0.184385 eV/Ang/e
   scf:   44    -8722.247198    -8722.247197    -8722.283034  0.000009 -2.364468  0.002654
Dipole moment in unit cell   =     -0.0000      0.0000     -7.5565 D
Electric field for dipole correction =    0.000000   -0.000000    0.184406 eV/Ang/e
   scf:   45    -8722.247206    -8722.247202    -8722.283039  0.000066 -2.364600  0.002166
Dipole moment in unit cell   =     -0.0000      0.0000     -7.5563 D
Electric field for dipole correction =    0.000000   -0.000000    0.184402 eV/Ang/e
   scf:   46    -8722.247203    -8722.247202    -8722.283040  0.000006 -2.364598  0.002135
Dipole moment in unit cell   =     -0.0000      0.0000     -7.5556 D
Electric field for dipole correction =    0.000000   -0.000000    0.184383 eV/Ang/e
   scf:   47    -8722.247204    -8722.247203    -8722.283040  0.000015 -2.364558  0.002146
Dipole moment in unit cell   =     -0.0000      0.0000     -7.5552 D
Electric field for dipole correction =    0.000000   -0.000000    0.184373 eV/Ang/e
   scf:   48    -8722.247203    -8722.247203    -8722.283040  0.000017 -2.364514  0.002222
Dipole moment in unit cell   =     -0.0000      0.0000     -7.5549 D
Electric field for dipole correction =    0.000000   -0.000000    0.184368 eV/Ang/e
   scf:   49    -8722.247202    -8722.247203    -8722.283040  0.000017 -2.364477  0.002281
Dipole moment in unit cell   =     -0.0000      0.0000     -7.5555 D
Electric field for dipole correction =    0.000000   -0.000000    0.184382 eV/Ang/e
   scf:   50    -8722.247203    -8722.247203    -8722.283040  0.000007 -2.364489  0.002203
Dipole moment in unit cell   =     -0.0000      0.0000     -7.5558 D
Electric field for dipole correction =    0.000000   -0.000000    0.184388 eV/Ang/e
   scf:   51    -8722.247204    -8722.247203    -8722.283040  0.000007 -2.364503  0.002121
Dipole moment in unit cell   =     -0.0000      0.0000     -7.5566 D
Electric field for dipole correction =    0.000000   -0.000000    0.184407 eV/Ang/e
   scf:   52    -8722.247210    -8722.247207    -8722.283044  0.000068 -2.364606  0.001647
Dipole moment in unit cell   =     -0.0000      0.0000     -7.5565 D
Electric field for dipole correction =    0.000000   -0.000000    0.184407 eV/Ang/e
   scf:   53    -8722.247208    -8722.247207    -8722.283044  0.000007 -2.364610  0.001645
Dipole moment in unit cell   =     -0.0000      0.0000     -7.5546 D
Electric field for dipole correction =    0.000000   -0.000000    0.184359 eV/Ang/e
   scf:   54    -8722.247212    -8722.247210    -8722.283047  0.000053 -2.364514  0.001161
Dipole moment in unit cell   =     -0.0000      0.0000     -7.5545 D
Electric field for dipole correction =    0.000000   -0.000000    0.184356 eV/Ang/e
   scf:   55    -8722.247210    -8722.247210    -8722.283047  0.000006 -2.364505  0.001132
Dipole moment in unit cell   =     -0.0000      0.0000     -7.5539 D
Electric field for dipole correction =    0.000000   -0.000000    0.184343 eV/Ang/e
   scf:   56    -8722.247211    -8722.247211    -8722.283048  0.000065 -2.364411  0.001054
Dipole moment in unit cell   =     -0.0000      0.0000     -7.5540 D
Electric field for dipole correction =    0.000000   -0.000000    0.184344 eV/Ang/e
   scf:   57    -8722.247211    -8722.247211    -8722.283048  0.000002 -2.364412  0.001030
Dipole moment in unit cell   =     -0.0000      0.0000     -7.5550 D
Electric field for dipole correction =    0.000000   -0.000000    0.184368 eV/Ang/e
   scf:   58    -8722.247211    -8722.247211    -8722.283048  0.000026 -2.364468  0.000736

SCF Convergence by DM+H criterion
max |DM_out - DM_in|         :     0.0000259714
max |H_out - H_in|      (eV) :     0.0007355442
SCF cycle converged after 58 iterations

Using DM_out to compute the final energy and forces
No. of atoms with KB's overlaping orbs in proc 0. Max # of overlaps:     186     170
Dipole moment in unit cell   =     -0.0000      0.0000     -7.5550 D
Electric field for dipole correction =    0.000000   -0.000000    0.184368 eV/Ang/e

siesta: E_KS(eV) =            -8722.2472

siesta: E_KS - E_eggbox =     -8722.2472

siesta: Atomic forces (eV/Ang):
----------------------------------------
   Tot   -0.001676    0.003463   -0.327169
----------------------------------------
   Max    2.412152
   Res    0.556488    sqrt( Sum f_i^2 / 3N )
----------------------------------------
   Max    2.412152    constrained

Stress-tensor-Voigt (kbar):      -76.41      -69.40      -64.42       -0.01        0.19        2.46
(Free)E + p*V (eV/cell)    -8654.7629
Target enthalpy (eV/cell)    -8722.2830

siesta: Program's energy decomposition (eV):
siesta: Ebs     =     -3426.824271
siesta: Eions   =     14694.110283
siesta: Ena     =      3895.775417
siesta: Ekin    =      4992.028937
siesta: Enl     =       133.173490
siesta: Eso     =         0.000000
siesta: Eldau   =         0.000000
siesta: DEna    =      -260.449289
siesta: DUscf   =        63.591908
siesta: DUext   =         0.144996
siesta: Exc     =     -2852.402388
siesta: eta*DQ  =         0.000000
siesta: Emadel  =         0.000000
siesta: Emeta   =         0.000000
siesta: Emolmec =         0.000000
siesta: Ekinion =         0.000000
siesta: Eharris =     -8722.247211
siesta: Etot    =     -8722.247211
siesta: FreeEng =     -8722.283048

siesta: Final energy (eV):
siesta:  Band Struct. =   -3426.824271
siesta:       Kinetic =    4992.028937
siesta:       Hartree =   66137.427581
siesta:       Eldau   =       0.000000
siesta:       Eso     =       0.000000
siesta:    Ext. field =       0.144996
siesta:   Exch.-corr. =   -2852.402388
siesta:  Ion-electron = -137038.284701
siesta:       Ion-ion =   60038.838364
siesta:       Ekinion =       0.000000
siesta:         Total =   -8722.247211
siesta:         Fermi =      -2.364468

siesta: Atomic forces (eV/Ang):
siesta:      1    0.006251    0.002263   -0.553603
siesta:      2    0.006000   -0.001380   -0.553602
siesta:      3    0.001347    0.002531   -0.554822
siesta:      4    0.001452   -0.001555   -0.554814
siesta:      5   -0.003335    0.000498   -0.552319
siesta:      6   -0.003404    0.000464   -0.552163
siesta:      7    0.151315    0.004062    0.238300
siesta:      8    0.157742    0.006156    0.333197
siesta:      9   -0.185033    0.006299    0.246474
siesta:     10   -0.178574    0.004221    0.333055
siesta:     11   -0.017106    0.005922    0.339544
siesta:     12   -0.037317    0.004422    0.458777
siesta:     13   -0.050803    0.016249    0.574859
siesta:     14   -0.061104   -0.022024    0.572734
siesta:     15   -0.001433    0.003533    0.683716
siesta:     16    0.005656   -0.011980    0.682536
siesta:     17    0.035355   -0.003163    0.576789
siesta:     18    0.031739   -0.002398    0.568803
siesta:     19    0.191721   -0.002201    0.814248
siesta:     20    0.224763   -0.005462    0.862889
siesta:     21   -0.231145   -0.000709    0.811304
siesta:     22   -0.140555    0.000603    0.875424
siesta:     23   -0.043530    0.000182    0.072259
siesta:     24   -0.013357    0.003113    0.092155
siesta:     25   -0.009041    0.081168    1.063735
siesta:     26   -0.013902   -0.096052    1.059832
siesta:     27    0.285686   -0.020536    0.719829
siesta:     28    0.287450    0.028074    0.725410
siesta:     29   -0.045921    0.074949    1.234022
siesta:     30   -0.047444   -0.084072    1.226404
siesta:     31   -0.352968   -0.266277    0.089316
siesta:     32    0.013051    0.085703    0.173007
siesta:     33   -0.349847    0.258855    0.095186
siesta:     34    0.014941   -0.079855    0.169537
siesta:     35   -0.706227    0.002127    1.674813
siesta:     36    1.047825   -0.000263    1.383749
siesta:     37   -2.412152    0.000007    0.331783
siesta:     38    1.082142   -0.000041    0.058818
siesta:     39   -2.408772   -0.000176    0.326425
siesta:     40    1.089349   -0.000012    0.054069
siesta:     41   -2.408024   -0.000006    0.331260
siesta:     42    1.097027   -0.000014    0.058842
siesta:     43    0.039734   -0.000251   -0.430919
siesta:     44    0.039281    0.000946   -0.430516
siesta:     45   -0.034083    0.000505   -0.430223
siesta:     46   -0.034084    0.000160   -0.430718
siesta:     47    0.000209   -0.000881   -0.426065
siesta:     48    0.000601    0.001623   -0.426201
siesta:     49   -0.041647    0.003379   -0.542114
siesta:     50   -0.026882   -0.001246   -0.511537
siesta:     51    0.004315    0.001161   -0.514593
siesta:     52   -0.004740    0.002951   -0.501983
siesta:     53    0.016872    0.000814   -0.535638
siesta:     54    0.041949   -0.000479   -0.527067
siesta:     55   -0.058692    0.013992   -0.753634
siesta:     56   -0.059029   -0.012982   -0.748298
siesta:     57    0.088332   -0.002878   -0.751519
siesta:     58    0.093096    0.006779   -0.752708
siesta:     59    0.018012    0.001062   -0.731757
siesta:     60    0.021453   -0.003461   -0.730455
siesta:     61   -0.196047    0.002814   -0.851892
siesta:     62   -0.210856    0.001856   -0.845748
siesta:     63    0.244779   -0.009487   -0.938348
siesta:     64   -0.344261   -0.000623   -0.966726
siesta:     65    0.220297    0.007009   -0.900014
siesta:     66    0.254803   -0.003234   -0.819486
siesta:     67    1.570017   -0.000120   -1.172439
siesta:     68    0.806855    0.000050    0.804385
siesta:     69   -0.265343    0.000079    0.387459
siesta:     70   -0.796393    0.000032   -0.490345
siesta:     71    1.568301    0.000071   -1.173991
siesta:     72    0.806634    0.000335    0.803136
siesta:     73   -0.270751    0.000036    0.388987
siesta:     74   -0.800208    0.000041   -0.495105
siesta:     75    1.568754    0.000038   -1.171692
siesta:     76    0.805432    0.000042    0.804166
siesta:     77   -0.272896    0.000062    0.391813
siesta:     78   -0.805302    0.000043   -0.497161
siesta: ----------------------------------------
siesta:    Tot   -0.001676    0.003463   -0.327169

siesta: Stress tensor (static) (eV/Ang**3):
siesta:    -0.047688   -0.000005    0.001538
siesta:    -0.000005   -0.043317    0.000121
siesta:     0.001538    0.000121   -0.040207

siesta: Cell volume =       1543.760568 Ang**3

siesta: Pressure (static):
siesta:                Solid            Molecule  Units
siesta:           0.00047636          0.00031384  Ry/Bohr**3
siesta:           0.04373746          0.02881594  eV/Ang**3
siesta:          70.07588906         46.16872385  kBar
(Free)E+ p_basis*V_orbitals  =       -8683.093023
(Free)Eharris+ p_basis*V_orbitals  =       -8683.093023

siesta: Electric dipole (a.u.)  =   -0.000000    0.000000   -2.972348
siesta: Electric dipole (Debye) =   -0.000000    0.000000   -7.554960
Dipole moment in unit cell   =     -0.0000      0.0000     -7.5550 D
Electric field for dipole correction =    0.000000   -0.000000    0.184368 eV/Ang/e

dhscf: Vacuum level (max, mean) =    2.192272   -0.040513 eV
>> End of run:   2-JUL-2017  12:00:41
Job completed
