Siesta Version  : siesta-4.1-1033
Architecture    : x86_64-linux-n-62-18-18
Compiler version: GNU Fortran (GCC) 7.3.0
Compiler flags  : mpifort -m64 -fPIC -O3 -march=native -ftree-vectorize -fexpensive-optimizatioons -funroll-loops -fprefetch-loop-arrays -fno-second-underscore  -flto
PP flags        : -I/zdata/groups/common/nicpa/2018-feb/generic/build-tools/1.0/include -I/zdatta/groups/common/nicpa/2018-feb/generic/gcc/7.3.0/include -I/zdata/groups/common/nicpa/2018-feb/generic/gcc/7.3.0/include -I/zdata/groups/common/nicpa/2018-feb/XeonE5-2665/zlib/1.2.11/gnu-7.3.0/include -I/zdata/groups/common/nicpa/2018-feb/generic/numactl/2.0.11/include -I/zdata/groups/common/nicpa/2018-feb/XeonE5-2665/libxml2/2.9.7/gnu-7.3.0/include -I/zdata/groups/common/nicpa/2018-feb/XeonE5-2665/hwloc/1.11.9/gnu-7.3.0/include -I/zdata/groups/common/nicpa/2018-feb/XeonE5-2665/openmpi/3.0.0/gnu-7.3.0/include -I/zdata/groups/common/nicpa/2018-feb/XeonE5-2665/szip/2.1.1/gnu-7.3.0/include -I/zdata/groups/common/nicpa/2018-feb/XeonE5-2665/hdf5/1.8.18/gnu-7.3.0/include -I/zdata/groups/common/nicpa/2018-feb/XeonE5-2665/pnetcdf/1.8.1/gnu-7.3.0/include -I/zdata/groups/common/nicpa/2018-feb/XeonE5-2665/netcdf/4.6.0/gnu-7.3.0/include -I/zdata/groups/common/nicpa/2018-feb/XeonE5-2665/flook/0.7.0/gnu-7.3.0/include -I/zdata/groups/common/nicpa/2018-feb/XeonE5-2665/parmetis/4.0.3/gnu-7.3.0/include -I/zdata/groups/common/nicpa/2018-feb/XeonE5-2665/scalapack/204/gnu-7.3.0/include -I/zdata/groups/common/nicpa/2018-feb/XeonE5-2665/openblas/0.2.20/gnu-7.3.0/include -I/zdata/groups/common/nicpa/2018-feb/XeonE5-2665/scotch/6.0.4/gnu-7.3.0/include -I/zdata/groups/common/nicpa/2018-feb/XeonE5-2665/mumps/5.1.2/gnu-7.3.0/include -I/zdata/groups/common/nicpa/2018-feb/XeonE5-2665/fftw/3.3.7/gnu-7.3.0/include -I/zdata/groups/common/nicpa/2018-feb/XeonE5-2665/elpa/2017.05.003/gnu-7.3.0/include/elpa -DSIESTA__ELPA -DMPI -D1 -DFC_HAVE_ABORT -DCDF -DCDF4 -DSIESTA__FLOOK  -DNCDF -DNCDF_4 -DNCDF_PARALLEL -DSIESTA__METIS -DSIESTA__MUMPS -DTS_NOCHECKS -DSIESTA__MRRR
Libraries       : libncdf.a libfdict.a -lnetcdff -lnetcdf -lpnetcdf -lhdf5_hl -lhdf5 -lz  -lzmuumps -lmumps_common -lesmumps -lscotch -lscotcherr -lpord -lparmetis -lmetis -lelpa -lscalapack -lopenblas  -L/zdata/groups/common/nicpa/2018-feb/XeonE5-2665/flook/0.7.0/gnu-7.3.0/lib -Wl,-rpath=/zdata/groups/common/nicpa/2018-feb/XeonE5-2665/flook/0.7.0/gnu-7.3.0/lib -lflookall -ldl  -flto -fuse-linker-plugin  -lmetis
PARALLEL version
NetCDF support
NetCDF-4 support
NetCDF-4 MPI-IO support
METIS ordering support

* Running on 8 nodes in parallel
>> Start of run:   5-NOV-2018  11:12:01

                           ***********************       
                           *  WELCOME TO SIESTA  *       
                           ***********************       

reinit: Reading from ../sih.fdf

reinit: -----------------------------------------------------------------------
reinit: System Name: H in 64-atom silicon
reinit: -----------------------------------------------------------------------
reinit: System Label: sih
reinit: -----------------------------------------------------------------------

initatom: Reading input for the pseudopotentials and atomic orbitals ----------
Species number:   1 Atomic number:   14 Label: Si
Species number:   2 Atomic number:    1 Label: H

Ground state valence configuration:   3s02  3p02
Reading pseudopotential information in formatted form from Si.psf

Valence configuration for pseudopotential generation:
3s( 2.00) rc: 1.89
3p( 2.00) rc: 1.89
3d( 0.00) rc: 1.89
4f( 0.00) rc: 1.89
Ground state valence configuration:   1s01
Reading pseudopotential information in formatted form from H.psf

Valence configuration for pseudopotential generation:
1s( 1.00) rc: 1.25
2p( 0.00) rc: 1.25
3d( 0.00) rc: 1.25
4f( 0.00) rc: 1.25
For Si, standard SIESTA heuristics set lmxkb to 2
 (one more than the basis l, including polarization orbitals).
Use PS.lmax or PS.KBprojectors blocks to override.
For H, standard SIESTA heuristics set lmxkb to 1
 (one more than the basis l, including polarization orbitals).
Use PS.lmax or PS.KBprojectors blocks to override.

<basis_specs>
===============================================================================
Si                   Z=  14    Mass=  28.090        Charge= 0.17977+309
Lmxo=1 Lmxkb= 2    BasisType=split      Semic=F
L=0  Nsemic=0  Cnfigmx=3
          n=1  nzeta=1  polorb=0
            splnorm:   0.15000    
               vcte:    0.0000    
               rinn:    0.0000    
               qcoe:    0.0000    
               qyuk:    0.0000    
               qwid:   0.10000E-01
                rcs:    0.0000    
            lambdas:    1.0000    
L=1  Nsemic=0  Cnfigmx=3
          n=1  nzeta=1  polorb=0
            splnorm:   0.15000    
               vcte:    0.0000    
               rinn:    0.0000    
               qcoe:    0.0000    
               qyuk:    0.0000    
               qwid:   0.10000E-01
                rcs:    0.0000    
            lambdas:    1.0000    
-------------------------------------------------------------------------------
L=0  Nkbl=1  erefs: 0.17977+309
L=1  Nkbl=1  erefs: 0.17977+309
L=2  Nkbl=1  erefs: 0.17977+309
===============================================================================
</basis_specs>

atom: Called for Si                    (Z =  14)

read_vps: Pseudopotential generation method:
read_vps: ATM3      Troullier-Martins                       
Total valence charge:    4.00000

xc_check: Exchange-correlation functional:
xc_check: Ceperley-Alder
V l=0 = -2*Zval/r beyond r=  2.5494
V l=1 = -2*Zval/r beyond r=  2.5494
V l=2 = -2*Zval/r beyond r=  2.5494
All V_l potentials equal beyond r=  1.8652
This should be close to max(r_c) in ps generation
All pots = -2*Zval/r beyond r=  2.5494
Using large-core scheme for Vlocal

atom: Estimated core radius    2.54944

atom: Including non-local core corrections could be a good idea
atom: Maximum radius for 4*pi*r*r*local-pseudopot. charge    2.85303
atom: Maximum radius for r*vlocal+2*Zval:    2.58151
GHOST: No ghost state for L =  0
GHOST: No ghost state for L =  1
GHOST: No ghost state for L =  2

KBgen: Kleinman-Bylander projectors: 
   l= 0   rc=  1.936440   el= -0.796617   Ekb=  4.661340   kbcos=  0.299756
   l= 1   rc=  1.936440   el= -0.307040   Ekb=  1.494238   kbcos=  0.301471
   l= 2   rc=  1.936440   el=  0.002313   Ekb= -2.808672   kbcos= -0.054903

KBgen: Total number of  Kleinman-Bylander projectors:    9
atom: -------------------------------------------------------------------------

atom: SANKEY-TYPE ORBITALS:

SPLIT: Orbitals with angular momentum L= 0

SPLIT: Basis orbitals for state 3s

SPLIT: PAO cut-off radius determined from an
SPLIT: energy shift=  0.022049 Ry

   izeta = 1
                 lambda =    1.000000
                     rc =    4.883716
                 energy =   -0.773554
                kinetic =    0.585471
    potential(screened) =   -1.359025
       potential(ionic) =   -3.840954

SPLIT: Orbitals with angular momentum L= 1

SPLIT: Basis orbitals for state 3p

SPLIT: PAO cut-off radius determined from an
SPLIT: energy shift=  0.022049 Ry

   izeta = 1
                 lambda =    1.000000
                     rc =    6.116033
                 energy =   -0.285742
                kinetic =    0.892202
    potential(screened) =   -1.177944
       potential(ionic) =   -3.446720
atom: Total number of Sankey-type orbitals:  4

atm_pop: Valence configuration (for local Pseudopot. screening):
 3s( 2.00)                                                            
 3p( 2.00)                                                            
Vna: chval, zval:    4.00000   4.00000

Vna:  Cut-off radius for the neutral-atom potential:   6.116033

atom: _________________________________________________________________________

<basis_specs>
===============================================================================
H                    Z=   1    Mass=  1.0100        Charge= 0.17977+309
Lmxo=0 Lmxkb= 1    BasisType=split      Semic=F
L=0  Nsemic=0  Cnfigmx=1
          n=1  nzeta=1  polorb=0
            splnorm:   0.15000    
               vcte:    0.0000    
               rinn:    0.0000    
               qcoe:    0.0000    
               qyuk:    0.0000    
               qwid:   0.10000E-01
                rcs:    0.0000    
            lambdas:   0.80000    
-------------------------------------------------------------------------------
L=0  Nkbl=1  erefs: 0.17977+309
L=1  Nkbl=1  erefs: 0.17977+309
===============================================================================
</basis_specs>

atom: Called for H                     (Z =   1)

read_vps: Pseudopotential generation method:
read_vps: ATM3      Troullier-Martins                       
Total valence charge:    1.00000

xc_check: Exchange-correlation functional:
xc_check: Ceperley-Alder
V l=0 = -2*Zval/r beyond r=  1.2343
V l=1 = -2*Zval/r beyond r=  1.2189
All V_l potentials equal beyond r=  1.2343
This should be close to max(r_c) in ps generation
All pots = -2*Zval/r beyond r=  1.2343

VLOCAL1: 99.0% of the norm of Vloc inside     28.493 Ry
VLOCAL1: 99.9% of the norm of Vloc inside     64.935 Ry
atom: Maximum radius for 4*pi*r*r*local-pseudopot. charge    1.45251
atom: Maximum radius for r*vlocal+2*Zval:    1.21892
GHOST: No ghost state for L =  0
GHOST: No ghost state for L =  1

KBgen: Kleinman-Bylander projectors: 
   l= 0   rc=  1.364359   el= -0.467325   Ekb= -2.005361   kbcos= -0.336422
   l= 1   rc=  1.434438   el=  0.001430   Ekb= -0.501708   kbcos= -0.021697

KBgen: Total number of  Kleinman-Bylander projectors:    4
atom: -------------------------------------------------------------------------

atom: SANKEY-TYPE ORBITALS:

SPLIT: Orbitals with angular momentum L= 0

SPLIT: Basis orbitals for state 1s

SPLIT: PAO cut-off radius determined from an
SPLIT: energy shift=  0.022049 Ry

   izeta = 1
                 lambda =    0.800000
                     rc =    4.718242
                 energy =   -0.396561
                kinetic =    1.341628
    potential(screened) =   -1.738188
       potential(ionic) =   -2.295884
atom: Total number of Sankey-type orbitals:  1

atm_pop: Valence configuration (for local Pseudopot. screening):
 1s( 1.00)                                                            
Vna: chval, zval:    1.00000   1.00000

Vna:  Cut-off radius for the neutral-atom potential:   4.708991

atom: _________________________________________________________________________

prinput: Basis input ----------------------------------------------------------

PAO.BasisType split     

%block ChemicalSpeciesLabel
    1   14 Si                      # Species index, atomic number, species label
    2    1 H                       # Species index, atomic number, species label
%endblock ChemicalSpeciesLabel

%block PAO.Basis                 # Define Basis set
Si                    2                    # Species label, number of l-shells
 n=3   0   1                         # n, l, Nzeta 
   4.884   
   1.000   
 n=3   1   1                         # n, l, Nzeta 
   6.116   
   1.000   
H                     1                    # Species label, number of l-shells
 n=1   0   1                         # n, l, Nzeta 
   4.718   
   0.800   
%endblock PAO.Basis

prinput: ----------------------------------------------------------------------

Dumping basis to NetCDF file Si.ion.nc
Dumping basis to NetCDF file H.ion.nc
coor:   Atomic-coordinates input format  =     Cartesian coordinates
coor:                                          (in units of alat)

siesta: Atomic coordinates (Bohr) and species
siesta:      0.00000   0.00000   0.00000  1        1
siesta:      2.56530   2.56530   2.56530  1        2
siesta:      0.00000   5.13061   5.13061  1        3
siesta:      2.56530   7.69591   7.69591  1        4
siesta:      5.13061   0.00000   5.13061  1        5
siesta:      7.69591   2.56530   7.69591  1        6
siesta:      5.13061   5.13061   0.00000  1        7
siesta:      7.69591   7.69591   2.56530  1        8
siesta:     10.26122   0.00000   0.00000  1        9
siesta:     12.82652   2.56530   2.56530  1       10
siesta:     10.26122   5.13061   5.13061  1       11
siesta:     12.82652   7.69591   7.69591  1       12
siesta:     15.39183   0.00000   5.13061  1       13
siesta:     17.95713   2.56530   7.69591  1       14
siesta:     15.39183   5.13061   0.00000  1       15
siesta:     17.95713   7.69591   2.56530  1       16
siesta:      0.00000  10.26122   0.00000  1       17
siesta:      2.56530  12.82652   2.56530  1       18
siesta:      0.00000  15.39183   5.13061  1       19
siesta:      2.56530  17.95713   7.69591  1       20
siesta:      5.13061  10.26122   5.13061  1       21
siesta:      7.69591  12.82652   7.69591  1       22
siesta:      5.13061  15.39183   0.00000  1       23
siesta:      7.69591  17.95713   2.56530  1       24
siesta:      0.00000   0.00000  10.26122  1       25
siesta:      2.56530   2.56530  12.82652  1       26
siesta:      0.00000   5.13061  15.39183  1       27
siesta:      2.56530   7.69591  17.95713  1       28
siesta:      5.13061   0.00000  15.39183  1       29
siesta:      7.69591   2.56530  17.95713  1       30
siesta:      5.13061   5.13061  10.26122  1       31
siesta:      7.69591   7.69591  12.82652  1       32
siesta:     10.26122  10.26122   0.00000  1       33
siesta:     12.82652  12.82652   2.56530  1       34
siesta:     10.26122  15.39183   5.13061  1       35
siesta:     12.82652  17.95713   7.69591  1       36
siesta:     15.39183  10.26122   5.13061  1       37
siesta:     17.95713  12.82652   7.69591  1       38
siesta:     15.39183  15.39183   0.00000  1       39
siesta:     17.95713  17.95713   2.56530  1       40
siesta:     10.26122   0.00000  10.26122  1       41
siesta:     12.82652   2.56530  12.82652  1       42
siesta:     10.26122   5.13061  15.39183  1       43
siesta:     12.82652   7.69591  17.95713  1       44
siesta:     15.39183   0.00000  15.39183  1       45
siesta:     17.95713   2.56530  17.95713  1       46
siesta:     15.39183   5.13061  10.26122  1       47
siesta:     17.95713   7.69591  12.82652  1       48
siesta:      0.00000  10.26122  10.26122  1       49
siesta:      2.56530  12.82652  12.82652  1       50
siesta:      0.00000  15.39183  15.39183  1       51
siesta:      2.56530  17.95713  17.95713  1       52
siesta:      5.13061  10.26122  15.39183  1       53
siesta:      7.69591  12.82652  17.95713  1       54
siesta:      5.13061  15.39183  10.26122  1       55
siesta:      7.69591  17.95713  12.82652  1       56
siesta:     10.26122  10.26122  10.26122  1       57
siesta:     12.82652  12.82652  12.82652  1       58
siesta:     10.26122  15.39183  15.39183  1       59
siesta:     12.82652  17.95713  17.95713  1       60
siesta:     15.39183  10.26122  15.39183  1       61
siesta:     17.95713  12.82652  17.95713  1       62
siesta:     15.39183  15.39183  10.26122  1       63
siesta:     17.95713  17.95713  12.82652  1       64
siesta:     11.54387  11.54387  11.54387  2       65

siesta: System type = bulk      

initatomlists: Number of atoms, orbitals, and projectors:     65   257   580

siesta: ******************** Simulation parameters ****************************
siesta:
siesta: The following are some of the parameters of the simulation.
siesta: A complete list of the parameters used, including default values,
siesta: can be found in file out.fdf
siesta:
redata: Spin configuration                          = none
redata: Number of spin components                   = 1
redata: Time-Reversal Symmetry                      = T
redata: Spin-spiral                                 = F
redata: Long output                                 =   F
redata: Number of Atomic Species                    =        2
redata: Charge density info will appear in .RHO file
redata: Write Mulliken Pop.                         = NO
redata: Matel table size (NRTAB)                    =     1024
redata: Mesh Cutoff                                 =    40.0000 Ry
redata: Net charge of the system                    =     0.0000 |e|
redata: Min. number of SCF Iter                     =        0
redata: Max. number of SCF Iter                     =     1000
redata: SCF convergence failure will abort job
redata: SCF mix quantity                            = Hamiltonian
redata: Mix DM or H after convergence               =   F
redata: Recompute H after scf cycle                 =   F
redata: Mix DM in first SCF step                    =   T
redata: Write Pulay info on disk                    =   F
redata: New DM Mixing Weight                        =     0.3000
redata: New DM Occupancy tolerance                  = 0.000000000001
redata: No kicks to SCF
redata: DM Mixing Weight for Kicks                  =     0.5000
redata: Require Harris convergence for SCF          =   F
redata: Harris energy tolerance for SCF             =     0.000100 eV
redata: Require DM convergence for SCF              =   T
redata: DM tolerance for SCF                        =     0.001000
redata: Require EDM convergence for SCF             =   F
redata: EDM tolerance for SCF                       =     0.001000 eV
redata: Require H convergence for SCF               =   T
redata: Hamiltonian tolerance for SCF               =     0.001000 eV
redata: Require (free) Energy convergence for SCF   =   F
redata: (free) Energy tolerance for SCF             =     0.000100 eV
redata: Using Saved Data (generic)                  =   F
redata: Use continuation files for DM               =   T
redata: Neglect nonoverlap interactions             =   F
redata: Method of Calculation                       = Diagonalization
redata: Electronic Temperature                      =   290.1109 K
redata: Fix the spin of the system                  =   F
redata: Dynamics option                             = CG coord. optimization
redata: Variable cell                               =   F
redata: Use continuation files for CG               =   F
redata: Max atomic displ per move                   =     0.1000 Ang
redata: Maximum number of CG moves                  =       50
redata: Force tolerance                             =     0.0400 eV/Ang
mix.SCF: Pulay mixing                            = Pulay
mix.SCF:    Variant                              = stable
mix.SCF:    History steps                        = 4
mix.SCF:    Linear mixing weight                 =     0.300000
mix.SCF:    Mixing weight                        =     0.300000
mix.SCF:    SVD condition                        = 0.1000E-07
redata: Save all siesta data in one NC              =   F
redata: ***********************************************************************

%block SCF.Mixers
  Pulay
%endblock SCF.Mixers

%block SCF.Mixer.Pulay
  # Mixing method
  method pulay
  variant stable

  # Mixing options
  weight 0.3000
  weight.linear 0.3000
  history 4
%endblock SCF.Mixer.Pulay

DM_history_depth set to one: no extrapolation allowed by default for geometry relaxation
Size of DM history Fstack: 1
Total number of electrons:   257.000000
Total ionic charge:   257.000000

* ProcessorY, Blocksize:    2  24


* Orbital distribution balance (max,min):    48    24

 Kpoints in:            1 . Kpoints trimmed:            1

siesta: k-grid: Number of k-points =     1
siesta: k-grid: Cutoff (effective) =     5.430 Ang
siesta: k-grid: Supercell and displacements
siesta: k-grid:    1   0   0      0.000
siesta: k-grid:    0   1   0      0.000
siesta: k-grid:    0   0   1      0.000

diag: Algorithm                                     = D&C
diag: Parallel over k                               =   F
diag: Use parallel 2D distribution                  =   T
diag: Parallel block-size                           = 24
diag: Parallel distribution                         =     2 x     4
diag: Used triangular part                          = Lower
diag: Absolute tolerance                            =  0.100E-15
diag: Orthogonalization factor                      =  0.100E-05
diag: Memory factor                                 =  1.0000


ts: **************************************************************
ts: Save H and S matrices                           =    F
ts: Save DM and EDM matrices                        =    F
ts: Fix Hartree potential                           =    F
ts: Only save the overlap matrix S                  =    F
ts: **************************************************************

************************ Begin: TS CHECKS AND WARNINGS ************************
************************ End: TS CHECKS AND WARNINGS **************************


                     ====================================
                        Begin CG opt. move =      0
                     ====================================

outcell: Unit cell vectors (Ang):
       10.860000    0.000000    0.000000
        0.000000   10.860000    0.000000
        0.000000    0.000000   10.860000

outcell: Cell vector modules (Ang)   :   10.860000   10.860000   10.860000
outcell: Cell angles (23,13,12) (deg):     90.0000     90.0000     90.0000
outcell: Cell volume (Ang**3)        :   1280.8241
Gamma-point calculation with multiply-connected orbital pairs
Folding of H and S implicitly performed
<dSpData1D:S at geom step 0
  <sparsity:sparsity for geom step 0
    nrows_g=257 nrows=48 sparsity=.1501 nnzs=9913, refcount: 7>
  <dData1D:(new from dSpData1D) n=9913, refcount: 1>
refcount: 1>
new_DM -- step:     1
Initializing Density Matrix...

Attempting to read DM from file... Failed...
DM filled with atomic data:
<dSpData2D:DM initialized from atoms
  <sparsity:sparsity for geom step 0
    nrows_g=257 nrows=48 sparsity=.1501 nnzs=9913, refcount: 8>
  <dData2D:DM n=9913 m=1, refcount: 1>
refcount: 1>
No. of atoms with KB's overlaping orbs in proc 0. Max # of overlaps:      64      57
New grid distribution:   1
           1       1:   24    1:   12    1:    6
           2       1:   24    1:   12    7:   12
           3       1:   24    1:   12   13:   18
           4       1:   24    1:   12   19:   24
           5       1:   24   13:   24    1:    6
           6       1:   24   13:   24    7:   12
           7       1:   24   13:   24   13:   18
           8       1:   24   13:   24   19:   24

InitMesh: MESH =    48 x    48 x    48 =      110592
InitMesh: (bp) =    24 x    24 x    24 =       13824
InitMesh: Mesh cutoff (required, used) =    40.000    53.991 Ry
ExtMesh (bp) on 0 =    56 x    44 x    38 =       93632
New grid distribution:   2
           1       1:   12   13:   24   13:   24
           2      13:   24    1:   12    1:   12
           3      13:   24    1:   12   13:   24
           4      13:   24   13:   24    1:   12
           5       1:   12    1:   12   13:   24
           6       1:   12    1:   12    1:   12
           7      13:   24   13:   24   13:   24
           8       1:   12   13:   24    1:   12
New grid distribution:   3
           1       1:   12   13:   24   13:   24
           2      13:   24    1:   12    1:   12
           3      13:   24    1:   12   13:   24
           4      13:   24   13:   24    1:   12
           5       1:   12    1:   12   13:   24
           6       1:   12    1:   12    1:   12
           7      13:   24   13:   24   13:   24
           8       1:   12   13:   24    1:   12
Setting up quadratic distribution...
ExtMesh (bp) on 0 =    44 x    44 x    44 =       85184
PhiOnMesh: Number of (b)points on node 0 =                 1728
PhiOnMesh: nlist on node 0 =                50324

stepf: Fermi-Dirac step function

siesta: Program's energy decomposition (eV):
siesta: Ebs     =     -2393.383534
siesta: Eions   =     12205.375277
siesta: Ena     =      3677.559531
siesta: Ekin    =      2578.720205
siesta: Enl     =       945.047856
siesta: Eso     =         0.000000
siesta: Eldau   =         0.000000
siesta: DEna    =       219.161894
siesta: DUscf   =         7.009330
siesta: DUext   =         0.000000
siesta: Enegf   =         0.000000
siesta: Exc     =     -2066.705944
siesta: eta*DQ  =         0.000000
siesta: Emadel  =         0.000000
siesta: Emeta   =         0.000000
siesta: Emolmec =         0.000000
siesta: Ekinion =         0.000000
siesta: Eharris =     -6816.848493
siesta: Etot    =     -6844.582405
siesta: FreeEng =     -6844.645075

        iscf     Eharris(eV)        E_KS(eV)     FreeEng(eV)     dDmax    Ef(eV) dHmax(eV)
   scf:    1    -6816.848493    -6844.582405    -6844.645075  1.040947 -2.099505  4.705427
timer: Routine,Calls,Time,% = IterSCF        1       0.140  24.82
   scf:    2    -6844.468858    -6845.263646    -6845.298380  0.301975 -2.361518  1.600293
   scf:    3    -6845.562785    -6845.507846    -6845.543285  0.061414 -2.286609  0.142326
   scf:    4    -6845.532553    -6845.520690    -6845.556062  0.012492 -2.311942  0.080563
   scf:    5    -6845.533502    -6845.527270    -6845.562471  0.014144 -2.348158  4.124240
   scf:    6    -6845.536223    -6845.531748    -6845.566945  0.000142 -2.348279  4.122174
   scf:    7    -6845.652589    -6845.592213    -6845.627419  0.001829 -2.349434  4.100515
   scf:    8    -6846.143386    -6845.868546    -6845.903783  0.009996 -2.335021  4.004096
   scf:    9    -6855.612612    -6851.515259    -6851.553860  0.359725 -2.342144  0.461343
   scf:   10    -6851.775661    -6851.656956    -6851.695675  0.045148 -2.441498  0.273674
   scf:   11    -6851.713763    -6851.687391    -6851.727801  0.017529 -2.455012  0.150816
   scf:   12    -6851.703741    -6851.695832    -6851.736042  0.010446 -2.466001  0.074819
   scf:   13    -6851.699762    -6851.697892    -6851.738581  0.006410 -2.465565  0.023383
   scf:   14    -6851.698694    -6851.698326    -6851.738949  0.002335 -2.466497  0.017954
   scf:   15    -6851.698268    -6851.698303    -6851.739068  0.001482 -2.464496  0.006818
   scf:   16    -6851.698192    -6851.698250    -6851.739089  0.000524 -2.463301  0.002671
   scf:   17    -6851.698270    -6851.698260    -6851.739093  0.000141 -2.463041  0.002398
   scf:   18    -6851.698232    -6851.698246    -6851.739095  0.000142 -2.462687  0.001669
   scf:   19    -6851.698267    -6851.698257    -6851.739096  0.000095 -2.462618  0.001019
   scf:   20    -6851.698251    -6851.698254    -6851.739096  0.000071 -2.462481  0.000515

SCF Convergence by DM+H criterion
max |DM_out - DM_in|         :     0.0000713515
max |H_out - H_in|      (eV) :     0.0005152173
SCF cycle converged after 20 iterations

Using DM_out to compute the final energy and forces
No. of atoms with KB's overlaping orbs in proc 0. Max # of overlaps:      64      57

siesta: E_KS(eV) =            -6851.6983

siesta: E_KS - E_eggbox =     -6851.6983

siesta: Atomic forces (eV/Ang):
----------------------------------------
   Tot    0.022174    9.683430   -8.756661
----------------------------------------
   Max   13.274542
   Res    2.235891    sqrt( Sum f_i^2 / 3N )
----------------------------------------
   Max   13.274542    constrained

Stress-tensor-Voigt (kbar):      -77.00      -85.57      -83.35      -15.26      -15.96      -14.62
(Free)E + p*V (eV/cell)    -6786.2089
Target enthalpy (eV/cell)    -6851.7391

                     ====================================
                        Begin CG opt. move =      1
                     ====================================

outcell: Unit cell vectors (Ang):
       10.860000    0.000000    0.000000
        0.000000   10.860000    0.000000
        0.000000    0.000000   10.860000

outcell: Cell vector modules (Ang)   :   10.860000   10.860000   10.860000
outcell: Cell angles (23,13,12) (deg):     90.0000     90.0000     90.0000
outcell: Cell volume (Ang**3)        :   1280.8241
Gamma-point calculation with multiply-connected orbital pairs
Folding of H and S implicitly performed
<dSpData1D:S at geom step 1
  <sparsity:sparsity for geom step 1
    nrows_g=257 nrows=48 sparsity=.1501 nnzs=9913, refcount: 7>
  <dData1D:(new from dSpData1D) n=9913, refcount: 1>
refcount: 1>
new_DM -- step:     2
Re-using DM from previous geometries...
Number of DMs in history: 1
 DM extrapolation coefficients: 
1   1.00000
New DM after history re-use:
<dSpData2D:SpM extrapolated using coords
  <sparsity:sparsity for geom step 1
    nrows_g=257 nrows=48 sparsity=.1501 nnzs=9913, refcount: 9>
  <dData2D:(temp array for extrapolation) n=9913 m=1, refcount: 1>
refcount: 1>
No. of atoms with KB's overlaping orbs in proc 0. Max # of overlaps:      64      57
New grid distribution:   1
           1       1:   24    1:   12    1:    6
           2       1:   24    1:   12    7:   12
           3       1:   24    1:   12   13:   18
           4       1:   24    1:   12   19:   24
           5       1:   24   13:   24    1:    6
           6       1:   24   13:   24    7:   12
           7       1:   24   13:   24   13:   18
           8       1:   24   13:   24   19:   24

InitMesh: MESH =    48 x    48 x    48 =      110592
InitMesh: (bp) =    24 x    24 x    24 =       13824
InitMesh: Mesh cutoff (required, used) =    40.000    53.991 Ry
ExtMesh (bp) on 0 =    56 x    44 x    38 =       93632
New grid distribution:   2
           1       1:   12   13:   24   13:   24
           2      13:   24    1:   12    1:   12
           3      13:   24    1:   12   13:   24
           4      13:   24   13:   24    1:   12
           5       1:   12    1:   12   13:   24
           6       1:   12    1:   12    1:   12
           7      13:   24   13:   24   13:   24
           8       1:   12   13:   24    1:   12
New grid distribution:   3
           1       1:   12   13:   24   13:   24
           2      13:   24    1:   12    1:   12
           3      13:   24    1:   12   13:   24
           4      13:   24   13:   24    1:   12
           5       1:   12    1:   12   13:   24
           6       1:   12    1:   12    1:   12
           7      13:   24   13:   24   13:   24
           8       1:   12   13:   24    1:   12
Setting up quadratic distribution...
ExtMesh (bp) on 0 =    44 x    44 x    44 =       85184
PhiOnMesh: Number of (b)points on node 0 =                 1728
PhiOnMesh: nlist on node 0 =                50335

        iscf     Eharris(eV)        E_KS(eV)     FreeEng(eV)     dDmax    Ef(eV) dHmax(eV)
   scf:    1    -6853.721792    -6854.288521    -6854.339864  0.228968 -2.446260  2.688903
   scf:    2    -6842.094665    -6850.713085    -6850.747742  0.371274 -3.290442  8.477184
   scf:    3    -6855.658200    -6854.610713    -6854.645490  0.240611 -2.586946  0.321523
   scf:    4    -6854.628082    -6854.620749    -6854.655797  0.009479 -2.568603  0.149621
   scf:    5    -6854.624655    -6854.623442    -6854.659119  0.007892 -2.553567  0.031169
   scf:    6    -6854.623145    -6854.623363    -6854.659398  0.002429 -2.550129  0.020969
   scf:    7    -6854.623320    -6854.623345    -6854.659435  0.001876 -2.550124  0.004162
   scf:    8    -6854.623261    -6854.623303    -6854.659441  0.000756 -2.549745  0.002766
   scf:    9    -6854.623272    -6854.623288    -6854.659442  0.000430 -2.549689  0.000367

SCF Convergence by DM+H criterion
max |DM_out - DM_in|         :     0.0004298772
max |H_out - H_in|      (eV) :     0.0003666486
SCF cycle converged after 9 iterations

Using DM_out to compute the final energy and forces
No. of atoms with KB's overlaping orbs in proc 0. Max # of overlaps:      64      57

siesta: E_KS(eV) =            -6854.6233

siesta: Atomic forces (eV/Ang):
----------------------------------------
   Tot    0.038974    9.566590   -9.234803
----------------------------------------
   Max   11.224376
   Res    1.954882    sqrt( Sum f_i^2 / 3N )
----------------------------------------
   Max   11.224376    constrained

Stress-tensor-Voigt (kbar):      -75.40      -84.42      -80.65      -13.40      -13.15      -12.00
(Free)E + p*V (eV/cell)    -6790.5817
Target enthalpy (eV/cell)    -6854.6594

                     ====================================
                        Begin CG opt. move =      2
                     ====================================

outcell: Unit cell vectors (Ang):
       10.860000    0.000000    0.000000
        0.000000   10.860000    0.000000
        0.000000    0.000000   10.860000

outcell: Cell vector modules (Ang)   :   10.860000   10.860000   10.860000
outcell: Cell angles (23,13,12) (deg):     90.0000     90.0000     90.0000
outcell: Cell volume (Ang**3)        :   1280.8241
Gamma-point calculation with multiply-connected orbital pairs
Folding of H and S implicitly performed
<dSpData1D:S at geom step 2
  <sparsity:sparsity for geom step 2
    nrows_g=257 nrows=48 sparsity=.1501 nnzs=9913, refcount: 7>
  <dData1D:(new from dSpData1D) n=9913, refcount: 1>
refcount: 1>
new_DM -- step:     3
Re-using DM from previous geometries...
Number of DMs in history: 1
 DM extrapolation coefficients: 
1   1.00000
New DM after history re-use:
<dSpData2D:SpM extrapolated using coords
  <sparsity:sparsity for geom step 2
    nrows_g=257 nrows=48 sparsity=.1501 nnzs=9913, refcount: 9>
  <dData2D:(temp array for extrapolation) n=9913 m=1, refcount: 1>
refcount: 1>
No. of atoms with KB's overlaping orbs in proc 0. Max # of overlaps:      64      57
New grid distribution:   1
           1       1:   24    1:   12    1:    6
           2       1:   24    1:   12    7:   12
           3       1:   24    1:   12   13:   18
           4       1:   24    1:   12   19:   24
           5       1:   24   13:   24    1:    6
           6       1:   24   13:   24    7:   12
           7       1:   24   13:   24   13:   18
           8       1:   24   13:   24   19:   24

InitMesh: MESH =    48 x    48 x    48 =      110592
InitMesh: (bp) =    24 x    24 x    24 =       13824
InitMesh: Mesh cutoff (required, used) =    40.000    53.991 Ry
ExtMesh (bp) on 0 =    56 x    44 x    38 =       93632
New grid distribution:   2
           1       1:   12   13:   24   13:   24
           2      13:   24    1:   12    1:   12
           3      13:   24    1:   12   13:   24
           4      13:   24   13:   24    1:   12
           5       1:   12    1:   12   13:   24
           6       1:   12    1:   12    1:   12
           7      13:   24   13:   24   13:   24
           8       1:   12   13:   24    1:   12
New grid distribution:   3
           1       1:   12   13:   24   13:   24
           2      13:   24    1:   12    1:   12
           3      13:   24    1:   12   13:   24
           4      13:   24   13:   24    1:   12
           5       1:   12    1:   12   13:   24
           6       1:   12    1:   12    1:   12
           7      13:   24   13:   24   13:   24
           8       1:   12   13:   24    1:   12
Setting up quadratic distribution...
ExtMesh (bp) on 0 =    44 x    44 x    44 =       85184
PhiOnMesh: Number of (b)points on node 0 =                 1728
PhiOnMesh: nlist on node 0 =                50319

        iscf     Eharris(eV)        E_KS(eV)     FreeEng(eV)     dDmax    Ef(eV) dHmax(eV)
   scf:    1    -6856.545741    -6857.817951    -6857.861522  0.274679 -2.552826  3.855049
   scf:    2    -6816.209854    -6844.991256    -6845.026808  0.600332 -3.718181 15.359277
   scf:    3    -6860.997585    -6858.482163    -6858.516826  0.471379 -2.738510  0.324022
   scf:    4    -6858.501780    -6858.493763    -6858.528431  0.004652 -2.742665  0.195745
   scf:    5    -6858.499348    -6858.497241    -6858.531915  0.006680 -2.746517  0.078362
   scf:    6    -6858.497841    -6858.497593    -6858.532271  0.003810 -2.748204  0.028250
   scf:    7    -6858.497696    -6858.497650    -6858.532329  0.002295 -2.748643  0.005321
   scf:    8    -6858.497661    -6858.497656    -6858.532336  0.000668 -2.748537  0.001566
   scf:    9    -6858.497658    -6858.497657    -6858.532337  0.000342 -2.748506  0.000733

SCF Convergence by DM+H criterion
max |DM_out - DM_in|         :     0.0003420012
max |H_out - H_in|      (eV) :     0.0007329889
SCF cycle converged after 9 iterations

Using DM_out to compute the final energy and forces
No. of atoms with KB's overlaping orbs in proc 0. Max # of overlaps:      64      57

siesta: E_KS(eV) =            -6858.4977

siesta: Atomic forces (eV/Ang):
----------------------------------------
   Tot    0.131725    9.249566  -10.134327
----------------------------------------
   Max    8.433767
   Res    1.583187    sqrt( Sum f_i^2 / 3N )
----------------------------------------
   Max    8.433767    constrained

Stress-tensor-Voigt (kbar):      -73.73      -82.91      -78.58      -11.27       -9.21       -7.09
(Free)E + p*V (eV/cell)    -6795.8536
Target enthalpy (eV/cell)    -6858.5323

                     ====================================
                        Begin CG opt. move =      3
                     ====================================

outcell: Unit cell vectors (Ang):
       10.860000    0.000000    0.000000
        0.000000   10.860000    0.000000
        0.000000    0.000000   10.860000

outcell: Cell vector modules (Ang)   :   10.860000   10.860000   10.860000
outcell: Cell angles (23,13,12) (deg):     90.0000     90.0000     90.0000
outcell: Cell volume (Ang**3)        :   1280.8241
Gamma-point calculation with multiply-connected orbital pairs
Folding of H and S implicitly performed
<dSpData1D:S at geom step 3
  <sparsity:sparsity for geom step 3
    nrows_g=257 nrows=48 sparsity=.1505 nnzs=9943, refcount: 7>
  <dData1D:(new from dSpData1D) n=9943, refcount: 1>
refcount: 1>
new_DM -- step:     4
Re-using DM from previous geometries...
Number of DMs in history: 1
 DM extrapolation coefficients: 
1   1.00000
New DM after history re-use:
<dSpData2D:SpM extrapolated using coords
  <sparsity:sparsity for geom step 3
    nrows_g=257 nrows=48 sparsity=.1505 nnzs=9943, refcount: 9>
  <dData2D:(temp array for extrapolation) n=9943 m=1, refcount: 1>
refcount: 1>
No. of atoms with KB's overlaping orbs in proc 0. Max # of overlaps:      64      61
New grid distribution:   1
           1       1:   24    1:   12    1:    6
           2       1:   24    1:   12    7:   12
           3       1:   24    1:   12   13:   18
           4       1:   24    1:   12   19:   24
           5       1:   24   13:   24    1:    6
           6       1:   24   13:   24    7:   12
           7       1:   24   13:   24   13:   18
           8       1:   24   13:   24   19:   24

InitMesh: MESH =    48 x    48 x    48 =      110592
InitMesh: (bp) =    24 x    24 x    24 =       13824
InitMesh: Mesh cutoff (required, used) =    40.000    53.991 Ry
ExtMesh (bp) on 0 =    56 x    44 x    38 =       93632
New grid distribution:   2
           1       1:   12   13:   24   13:   24
           2      13:   24    1:   12    1:   12
           3      13:   24    1:   12   13:   24
           4      13:   24   13:   24    1:   12
           5       1:   12    1:   12   13:   24
           6       1:   12    1:   12    1:   12
           7      13:   24   13:   24   13:   24
           8       1:   12   13:   24    1:   12
New grid distribution:   3
           1       1:   12   13:   24   13:   24
           2      13:   24    1:   12    1:   12
           3      13:   24    1:   12   13:   24
           4      13:   24   13:   24    1:   12
           5       1:   12    1:   12   13:   24
           6       1:   12    1:   12    1:   12
           7      13:   24   13:   24   13:   24
           8       1:   12   13:   24    1:   12
Setting up quadratic distribution...
ExtMesh (bp) on 0 =    44 x    44 x    44 =       85184
PhiOnMesh: Number of (b)points on node 0 =                 1728
PhiOnMesh: nlist on node 0 =                50275

        iscf     Eharris(eV)        E_KS(eV)     FreeEng(eV)     dDmax    Ef(eV) dHmax(eV)
   scf:    1    -6860.934415    -6862.167730    -6862.202565  0.247727 -2.833014  3.053555
   scf:    2    -6832.366631    -6853.022016    -6853.056750  0.414701 -3.638805 11.814300
   scf:    3    -6864.001178    -6862.659875    -6862.694532  0.367088 -2.990326  0.603821
   scf:    4    -6862.686785    -6862.675699    -6862.710356  0.005552 -3.012619  0.355689
   scf:    5    -6862.684045    -6862.681182    -6862.715840  0.007998 -3.036379  0.078327
   scf:    6    -6862.681676    -6862.681479    -6862.716137  0.003155 -3.041943  0.010901
   scf:    7    -6862.681541    -6862.681513    -6862.716170  0.000967 -3.042051  0.004923
   scf:    8    -6862.681526    -6862.681520    -6862.716177  0.000534 -3.042296  0.001146
   scf:    9    -6862.681521    -6862.681521    -6862.716178  0.000165 -3.042296  0.001032
   scf:   10    -6862.681521    -6862.681521    -6862.716178  0.000026 -3.042247  0.000446

SCF Convergence by DM+H criterion
max |DM_out - DM_in|         :     0.0000262897
max |H_out - H_in|      (eV) :     0.0004462708
SCF cycle converged after 10 iterations

Using DM_out to compute the final energy and forces
No. of atoms with KB's overlaping orbs in proc 0. Max # of overlaps:      64      61

siesta: E_KS(eV) =            -6862.6815

siesta: Atomic forces (eV/Ang):
----------------------------------------
   Tot    0.268176    8.214492  -11.143515
----------------------------------------
   Max    7.667962
   Res    1.204947    sqrt( Sum f_i^2 / 3N )
----------------------------------------
   Max    7.667962    constrained

Stress-tensor-Voigt (kbar):      -73.08      -81.52      -77.74       -9.65       -4.40       -0.13
(Free)E + p*V (eV/cell)    -6800.8048
Target enthalpy (eV/cell)    -6862.7162

                     ====================================
                        Begin CG opt. move =      4
                     ====================================

outcell: Unit cell vectors (Ang):
       10.860000    0.000000    0.000000
        0.000000   10.860000    0.000000
        0.000000    0.000000   10.860000

outcell: Cell vector modules (Ang)   :   10.860000   10.860000   10.860000
outcell: Cell angles (23,13,12) (deg):     90.0000     90.0000     90.0000
outcell: Cell volume (Ang**3)        :   1280.8241
Gamma-point calculation with multiply-connected orbital pairs
Folding of H and S implicitly performed
<dSpData1D:S at geom step 4
  <sparsity:sparsity for geom step 4
    nrows_g=257 nrows=48 sparsity=.1513 nnzs=9991, refcount: 7>
  <dData1D:(new from dSpData1D) n=9991, refcount: 1>
refcount: 1>
new_DM -- step:     5
Re-using DM from previous geometries...
Number of DMs in history: 1
 DM extrapolation coefficients: 
1   1.00000
New DM after history re-use:
<dSpData2D:SpM extrapolated using coords
  <sparsity:sparsity for geom step 4
    nrows_g=257 nrows=48 sparsity=.1513 nnzs=9991, refcount: 9>
  <dData2D:(temp array for extrapolation) n=9991 m=1, refcount: 1>
refcount: 1>
No. of atoms with KB's overlaping orbs in proc 0. Max # of overlaps:      64      71
New grid distribution:   1
           1       1:   24    1:   12    1:    6
           2       1:   24    1:   12    7:   12
           3       1:   24    1:   12   13:   18
           4       1:   24    1:   12   19:   24
           5       1:   24   13:   24    1:    6
           6       1:   24   13:   24    7:   12
           7       1:   24   13:   24   13:   18
           8       1:   24   13:   24   19:   24

InitMesh: MESH =    48 x    48 x    48 =      110592
InitMesh: (bp) =    24 x    24 x    24 =       13824
InitMesh: Mesh cutoff (required, used) =    40.000    53.991 Ry
ExtMesh (bp) on 0 =    56 x    44 x    38 =       93632
New grid distribution:   2
           1       1:   12   13:   24   13:   24
           2      13:   24    1:   12    1:   12
           3      13:   24    1:   12   13:   24
           4      13:   24   13:   24    1:   12
           5       1:   12    1:   12   13:   24
           6       1:   12    1:   12    1:   12
           7      13:   24   13:   24   13:   24
           8       1:   12   13:   24    1:   12
New grid distribution:   3
           1       1:   12   13:   24   13:   24
           2      13:   24    1:   12    1:   12
           3      13:   24    1:   12   13:   24
           4      13:   24   13:   24    1:   12
           5       1:   12    1:   12   13:   24
           6       1:   12    1:   12    1:   12
           7      13:   24   13:   24   13:   24
           8       1:   12   13:   24    1:   12
Setting up quadratic distribution...
ExtMesh (bp) on 0 =    44 x    44 x    44 =       85184
PhiOnMesh: Number of (b)points on node 0 =                 1728
PhiOnMesh: nlist on node 0 =                50198

        iscf     Eharris(eV)        E_KS(eV)     FreeEng(eV)     dDmax    Ef(eV) dHmax(eV)
   scf:    1    -6863.967616    -6865.166976    -6865.201633  0.121340 -3.254662  1.275376
   scf:    2    -6858.135674    -6863.132515    -6863.167524  0.114052 -3.353444  3.697047
   scf:    3    -6865.904186    -6865.400377    -6865.435034  0.079711 -3.290392  0.057881
   scf:    4    -6865.403162    -6865.402006    -6865.436663  0.002932 -3.286292  0.031282
   scf:    5    -6865.402599    -6865.402338    -6865.436996  0.001287 -3.287424  0.012361
   scf:    6    -6865.402470    -6865.402411    -6865.437068  0.000683 -3.287195  0.004564
   scf:    7    -6865.402434    -6865.402424    -6865.437081  0.000335 -3.287229  0.001282
   scf:    8    -6865.402427    -6865.402425    -6865.437083  0.000104 -3.287168  0.000758

SCF Convergence by DM+H criterion
max |DM_out - DM_in|         :     0.0001040494
max |H_out - H_in|      (eV) :     0.0007580485
SCF cycle converged after 8 iterations

Using DM_out to compute the final energy and forces
No. of atoms with KB's overlaping orbs in proc 0. Max # of overlaps:      64      71

siesta: E_KS(eV) =            -6865.4024

siesta: Atomic forces (eV/Ang):
----------------------------------------
   Tot    0.499598    7.128385  -11.241938
----------------------------------------
   Max    6.734649
   Res    0.990990    sqrt( Sum f_i^2 / 3N )
----------------------------------------
   Max    6.734649    constrained

Stress-tensor-Voigt (kbar):      -74.79      -81.35      -79.70       -9.13       -0.44        5.77
(Free)E + p*V (eV/cell)    -6802.5934
Target enthalpy (eV/cell)    -6865.4371

                     ====================================
                        Begin CG opt. move =      5
                     ====================================

outcell: Unit cell vectors (Ang):
       10.860000    0.000000    0.000000
        0.000000   10.860000    0.000000
        0.000000    0.000000   10.860000

outcell: Cell vector modules (Ang)   :   10.860000   10.860000   10.860000
outcell: Cell angles (23,13,12) (deg):     90.0000     90.0000     90.0000
outcell: Cell volume (Ang**3)        :   1280.8241
Gamma-point calculation with multiply-connected orbital pairs
Folding of H and S implicitly performed
<dSpData1D:S at geom step 5
  <sparsity:sparsity for geom step 5
    nrows_g=257 nrows=48 sparsity=.1517 nnzs=10017, refcount: 7>
  <dData1D:(new from dSpData1D) n=10017, refcount: 1>
refcount: 1>
new_DM -- step:     6
Re-using DM from previous geometries...
Number of DMs in history: 1
 DM extrapolation coefficients: 
1   1.00000
New DM after history re-use:
<dSpData2D:SpM extrapolated using coords
  <sparsity:sparsity for geom step 5
    nrows_g=257 nrows=48 sparsity=.1517 nnzs=10017, refcount: 9>
  <dData2D:(temp array for extrapolation) n=10017 m=1, refcount: 1>
refcount: 1>
Note: For starting DM, Qtot, Tr[D*S] =        257.00000000        256.72950238
No. of atoms with KB's overlaping orbs in proc 0. Max # of overlaps:      64      67
New grid distribution:   1
           1       1:   24    1:   12    1:    6
           2       1:   24    1:   12    7:   12
           3       1:   24    1:   12   13:   18
           4       1:   24    1:   12   19:   24
           5       1:   24   13:   24    1:    6
           6       1:   24   13:   24    7:   12
           7       1:   24   13:   24   13:   18
           8       1:   24   13:   24   19:   24

InitMesh: MESH =    48 x    48 x    48 =      110592
InitMesh: (bp) =    24 x    24 x    24 =       13824
InitMesh: Mesh cutoff (required, used) =    40.000    53.991 Ry
ExtMesh (bp) on 0 =    56 x    44 x    38 =       93632
New grid distribution:   2
           1       1:   12   13:   24   13:   24
           2      13:   24    1:   12    1:   12
           3      13:   24    1:   12   13:   24
           4      13:   24   13:   24    1:   12
           5       1:   12    1:   12   13:   24
           6       1:   12    1:   12    1:   12
           7      13:   24   13:   24   13:   24
           8       1:   12   13:   24    1:   12
New grid distribution:   3
           1       1:   12   13:   24   13:   24
           2      13:   24    1:   12    1:   12
           3      13:   24    1:   12   13:   24
           4      13:   24   13:   24    1:   12
           5       1:   12    1:   12   13:   24
           6       1:   12    1:   12    1:   12
           7      13:   24   13:   24   13:   24
           8       1:   12   13:   24    1:   12
Setting up quadratic distribution...
ExtMesh (bp) on 0 =    44 x    44 x    44 =       85184
PhiOnMesh: Number of (b)points on node 0 =                 1728
PhiOnMesh: nlist on node 0 =                50115

        iscf     Eharris(eV)        E_KS(eV)     FreeEng(eV)     dDmax    Ef(eV) dHmax(eV)
   scf:    1    -6863.727361    -6866.302252    -6866.349931  0.116888 -3.601422  1.837697
   scf:    2    -6840.733687    -6858.692778    -6858.727437  0.245044 -2.904686  6.788182
   scf:    3    -6868.757881    -6866.896840    -6866.931781  0.171146 -3.447018  0.224782
   scf:    4    -6866.905402    -6866.902787    -6866.938390  0.005756 -3.469977  0.041606
   scf:    5    -6866.903495    -6866.903318    -6866.939295  0.001861 -3.474903  0.017898
   scf:    6    -6866.903515    -6866.903432    -6866.939446  0.000635 -3.474469  0.009441
   scf:    7    -6866.903405    -6866.903423    -6866.939491  0.000455 -3.474583  0.002738
   scf:    8    -6866.903410    -6866.903417    -6866.939496  0.000176 -3.474603  0.000820

SCF Convergence by DM+H criterion
max |DM_out - DM_in|         :     0.0001759641
max |H_out - H_in|      (eV) :     0.0008197978
SCF cycle converged after 8 iterations

Using DM_out to compute the final energy and forces
No. of atoms with KB's overlaping orbs in proc 0. Max # of overlaps:      64      67

siesta: E_KS(eV) =            -6866.9034

siesta: Atomic forces (eV/Ang):
----------------------------------------
   Tot    0.767864    6.004545  -10.550081
----------------------------------------
   Max    5.601184
   Res    0.910474    sqrt( Sum f_i^2 / 3N )
----------------------------------------
   Max    5.601184    constrained

Stress-tensor-Voigt (kbar):      -79.08      -82.77      -84.03       -9.49        2.74       10.89
(Free)E + p*V (eV/cell)    -6801.4190
Target enthalpy (eV/cell)    -6866.9395

                     ====================================
                        Begin CG opt. move =      6
                     ====================================

outcell: Unit cell vectors (Ang):
       10.860000    0.000000    0.000000
        0.000000   10.860000    0.000000
        0.000000    0.000000   10.860000

outcell: Cell vector modules (Ang)   :   10.860000   10.860000   10.860000
outcell: Cell angles (23,13,12) (deg):     90.0000     90.0000     90.0000
outcell: Cell volume (Ang**3)        :   1280.8241
Gamma-point calculation with multiply-connected orbital pairs
Folding of H and S implicitly performed
<dSpData1D:S at geom step 6
  <sparsity:sparsity for geom step 6
    nrows_g=257 nrows=48 sparsity=.1526 nnzs=10080, refcount: 7>
  <dData1D:(new from dSpData1D) n=10080, refcount: 1>
refcount: 1>
new_DM -- step:     7
Re-using DM from previous geometries...
Number of DMs in history: 1
 DM extrapolation coefficients: 
1   1.00000
New DM after history re-use:
<dSpData2D:SpM extrapolated using coords
  <sparsity:sparsity for geom step 6
    nrows_g=257 nrows=48 sparsity=.1526 nnzs=10080, refcount: 9>
  <dData2D:(temp array for extrapolation) n=10080 m=1, refcount: 1>
refcount: 1>
Note: For starting DM, Qtot, Tr[D*S] =        257.00000000        256.61960414
No. of atoms with KB's overlaping orbs in proc 0. Max # of overlaps:      64      69
New grid distribution:   1
           1       1:   24    1:   12    1:    6
           2       1:   24    1:   12    7:   12
           3       1:   24    1:   12   13:   18
           4       1:   24    1:   12   19:   24
           5       1:   24   13:   24    1:    6
           6       1:   24   13:   24    7:   12
           7       1:   24   13:   24   13:   18
           8       1:   24   13:   24   19:   24

InitMesh: MESH =    48 x    48 x    48 =      110592
InitMesh: (bp) =    24 x    24 x    24 =       13824
InitMesh: Mesh cutoff (required, used) =    40.000    53.991 Ry
ExtMesh (bp) on 0 =    56 x    44 x    38 =       93632
New grid distribution:   2
           1       1:   12   13:   24   13:   24
           2      13:   24    1:   12    1:   12
           3      13:   24    1:   12   13:   24
           4      13:   24   13:   24    1:   12
           5       1:   12    1:   12   13:   24
           6       1:   12    1:   12    1:   12
           7      13:   24   13:   24   13:   24
           8       1:   12   13:   24    1:   12
New grid distribution:   3
           1       1:   12   13:   24   13:   24
           2      13:   24    1:   12    1:   12
           3      13:   24    1:   12   13:   24
           4      13:   24   13:   24    1:   12
           5       1:   12    1:   12   13:   24
           6       1:   12    1:   12    1:   12
           7      13:   24   13:   24   13:   24
           8       1:   12   13:   24    1:   12
Setting up quadratic distribution...
ExtMesh (bp) on 0 =    44 x    44 x    44 =       85184
PhiOnMesh: Number of (b)points on node 0 =                 1728
PhiOnMesh: nlist on node 0 =                50067

        iscf     Eharris(eV)        E_KS(eV)     FreeEng(eV)     dDmax    Ef(eV) dHmax(eV)
   scf:    1    -6858.096154    -6865.058295    -6865.093010  0.262069 -3.614437  4.979852
   scf:    2    -6746.211379    -6829.456392    -6829.505888  0.643836 -2.756766 18.125324
   scf:    3    -6877.901561    -6867.103371    -6867.138092  0.366632 -3.418021  1.588917
   scf:    4    -6867.394231    -6867.260447    -6867.295843  0.018056 -3.467819  1.087627
   scf:    5    -6867.411029    -6867.408037    -6867.457244  0.055252 -3.534698  0.127338
   scf:    6    -6867.351961    -6867.388762    -6867.441186  0.022026 -3.543845  0.384469
   scf:    7    -6867.346449    -6867.398773    -6867.444091  0.040664 -3.527998  0.320090
   scf:    8    -6867.411848    -6867.410396    -6867.459528  0.015909 -3.535874  0.049689
   scf:    9    -6867.409063    -6867.410006    -6867.459940  0.003732 -3.537412  0.015792
   scf:   10    -6867.410154    -6867.410087    -6867.459974  0.000576 -3.537258  0.004370
   scf:   11    -6867.410231    -6867.410162    -6867.459977  0.000446 -3.537099  0.003001
   scf:   12    -6867.410091    -6867.410127    -6867.459979  0.000150 -3.537190  0.000373

SCF Convergence by DM+H criterion
max |DM_out - DM_in|         :     0.0001501165
max |H_out - H_in|      (eV) :     0.0003726069
SCF cycle converged after 12 iterations

Using DM_out to compute the final energy and forces
No. of atoms with KB's overlaping orbs in proc 0. Max # of overlaps:      64      69

siesta: E_KS(eV) =            -6867.4101

siesta: Atomic forces (eV/Ang):
----------------------------------------
   Tot    1.017286    4.728642   -9.078158
----------------------------------------
   Max    4.342228
   Res    0.933273    sqrt( Sum f_i^2 / 3N )
----------------------------------------
   Max    4.342228    constrained

Stress-tensor-Voigt (kbar):      -84.48      -85.95      -89.04      -11.35        4.92       15.44
(Free)E + p*V (eV/cell)    -6798.3192
Target enthalpy (eV/cell)    -6867.4600

                     ====================================
                        Begin CG opt. move =      7
                     ====================================

outcell: Unit cell vectors (Ang):
       10.860000    0.000000    0.000000
        0.000000   10.860000    0.000000
        0.000000    0.000000   10.860000

outcell: Cell vector modules (Ang)   :   10.860000   10.860000   10.860000
outcell: Cell angles (23,13,12) (deg):     90.0000     90.0000     90.0000
outcell: Cell volume (Ang**3)        :   1280.8241
Gamma-point calculation with multiply-connected orbital pairs
Folding of H and S implicitly performed
<dSpData1D:S at geom step 7
  <sparsity:sparsity for geom step 7
    nrows_g=257 nrows=48 sparsity=.1527 nnzs=10083, refcount: 7>
  <dData1D:(new from dSpData1D) n=10083, refcount: 1>
refcount: 1>
new_DM -- step:     8
Re-using DM from previous geometries...
Number of DMs in history: 1
 DM extrapolation coefficients: 
1   1.00000
New DM after history re-use:
<dSpData2D:SpM extrapolated using coords
  <sparsity:sparsity for geom step 7
    nrows_g=257 nrows=48 sparsity=.1527 nnzs=10083, refcount: 9>
  <dData2D:(temp array for extrapolation) n=10083 m=1, refcount: 1>
refcount: 1>
Note: For starting DM, Qtot, Tr[D*S] =        257.00000000        256.53935470
No. of atoms with KB's overlaping orbs in proc 0. Max # of overlaps:      64      72
New grid distribution:   1
           1       1:   24    1:   12    1:    6
           2       1:   24    1:   12    7:   12
           3       1:   24    1:   12   13:   18
           4       1:   24    1:   12   19:   24
           5       1:   24   13:   24    1:    6
           6       1:   24   13:   24    7:   12
           7       1:   24   13:   24   13:   18
           8       1:   24   13:   24   19:   24

InitMesh: MESH =    48 x    48 x    48 =      110592
InitMesh: (bp) =    24 x    24 x    24 =       13824
InitMesh: Mesh cutoff (required, used) =    40.000    53.991 Ry
ExtMesh (bp) on 0 =    56 x    44 x    38 =       93632
New grid distribution:   2
           1       1:   12   13:   24   13:   24
           2      13:   24    1:   12    1:   12
           3      13:   24    1:   12   13:   24
           4      13:   24   13:   24    1:   12
           5       1:   12    1:   12   13:   24
           6       1:   12    1:   12    1:   12
           7      13:   24   13:   24   13:   24
           8       1:   12   13:   24    1:   12
New grid distribution:   3
           1       1:   12   13:   24   13:   24
           2      13:   24    1:   12    1:   12
           3      13:   24    1:   12   13:   24
           4      13:   24   13:   24    1:   12
           5       1:   12    1:   12   13:   24
           6       1:   12    1:   12    1:   12
           7      13:   24   13:   24   13:   24
           8       1:   12   13:   24    1:   12
Setting up quadratic distribution...
ExtMesh (bp) on 0 =    44 x    44 x    44 =       85184
PhiOnMesh: Number of (b)points on node 0 =                 1728
PhiOnMesh: nlist on node 0 =                50030

        iscf     Eharris(eV)        E_KS(eV)     FreeEng(eV)     dDmax    Ef(eV) dHmax(eV)
   scf:    1    -6856.978737    -6864.656943    -6864.691663  0.212605 -3.612733  4.857459
   scf:    2    -6699.787845    -6814.164371    -6814.207620  0.653846 -2.848022 21.219016
   scf:    3    -6877.436204    -6867.108336    -6867.153966  0.464075 -3.552624  0.442456
   scf:    4    -6867.092146    -6867.138174    -6867.181608  0.039513 -3.553637  0.414442
   scf:    5    -6867.137323    -6867.148092    -6867.193758  0.021535 -3.552123  0.091685
   scf:    6    -6867.151583    -6867.150438    -6867.196061  0.004357 -3.551490  0.028529
   scf:    7    -6867.150602    -6867.150548    -6867.196293  0.001798 -3.551685  0.008141
   scf:    8    -6867.150386    -6867.150472    -6867.196341  0.000695 -3.551746  0.005190
   scf:    9    -6867.150392    -6867.150433    -6867.196350  0.000278 -3.551885  0.002320
   scf:   10    -6867.150393    -6867.150413    -6867.196351  0.000114 -3.551956  0.000765

SCF Convergence by DM+H criterion
max |DM_out - DM_in|         :     0.0001143853
max |H_out - H_in|      (eV) :     0.0007646858
SCF cycle converged after 10 iterations

Using DM_out to compute the final energy and forces
No. of atoms with KB's overlaping orbs in proc 0. Max # of overlaps:      64      72

siesta: E_KS(eV) =            -6867.1504

siesta: Atomic forces (eV/Ang):
----------------------------------------
   Tot    1.389135    3.671654   -6.628902
----------------------------------------
   Max    4.153892
   Res    1.017320    sqrt( Sum f_i^2 / 3N )
----------------------------------------
   Max    4.153892    constrained

Stress-tensor-Voigt (kbar):      -90.28      -89.73      -95.32      -14.23        6.35       19.21
(Free)E + p*V (eV/cell)    -6793.8281
Target enthalpy (eV/cell)    -6867.1964

                     ====================================
                        Begin CG opt. move =      8
                     ====================================

outcell: Unit cell vectors (Ang):
       10.860000    0.000000    0.000000
        0.000000   10.860000    0.000000
        0.000000    0.000000   10.860000

outcell: Cell vector modules (Ang)   :   10.860000   10.860000   10.860000
outcell: Cell angles (23,13,12) (deg):     90.0000     90.0000     90.0000
outcell: Cell volume (Ang**3)        :   1280.8241
Gamma-point calculation with multiply-connected orbital pairs
Folding of H and S implicitly performed
<dSpData1D:S at geom step 8
  <sparsity:sparsity for geom step 8
    nrows_g=257 nrows=48 sparsity=.1525 nnzs=10071, refcount: 7>
  <dData1D:(new from dSpData1D) n=10071, refcount: 1>
refcount: 1>
new_DM -- step:     9
Re-using DM from previous geometries...
Number of DMs in history: 1
 DM extrapolation coefficients: 
1   1.00000
New DM after history re-use:
<dSpData2D:SpM extrapolated using coords
  <sparsity:sparsity for geom step 8
    nrows_g=257 nrows=48 sparsity=.1525 nnzs=10071, refcount: 9>
  <dData2D:(temp array for extrapolation) n=10071 m=1, refcount: 1>
refcount: 1>
Note: For starting DM, Qtot, Tr[D*S] =        257.00000000        257.37071836
No. of atoms with KB's overlaping orbs in proc 0. Max # of overlaps:      64      72
New grid distribution:   1
           1       1:   24    1:   12    1:    6
           2       1:   24    1:   12    7:   12
           3       1:   24    1:   12   13:   18
           4       1:   24    1:   12   19:   24
           5       1:   24   13:   24    1:    6
           6       1:   24   13:   24    7:   12
           7       1:   24   13:   24   13:   18
           8       1:   24   13:   24   19:   24

InitMesh: MESH =    48 x    48 x    48 =      110592
InitMesh: (bp) =    24 x    24 x    24 =       13824
InitMesh: Mesh cutoff (required, used) =    40.000    53.991 Ry
ExtMesh (bp) on 0 =    56 x    44 x    38 =       93632
New grid distribution:   2
           1       1:   12   13:   24   13:   24
           2      13:   24    1:   12    1:   12
           3      13:   24    1:   12   13:   24
           4      13:   24   13:   24    1:   12
           5       1:   12    1:   12   13:   24
           6       1:   12    1:   12    1:   12
           7      13:   24   13:   24   13:   24
           8       1:   12   13:   24    1:   12
New grid distribution:   3
           1       1:   12   13:   24   13:   24
           2      13:   24    1:   12    1:   12
           3      13:   24    1:   12   13:   24
           4      13:   24   13:   24    1:   12
           5       1:   12    1:   12   13:   24
           6       1:   12    1:   12    1:   12
           7      13:   24   13:   24   13:   24
           8       1:   12   13:   24    1:   12
Setting up quadratic distribution...
ExtMesh (bp) on 0 =    44 x    44 x    44 =       85184
PhiOnMesh: Number of (b)points on node 0 =                 1728
PhiOnMesh: nlist on node 0 =                50069

        iscf     Eharris(eV)        E_KS(eV)     FreeEng(eV)     dDmax    Ef(eV) dHmax(eV)
   scf:    1    -6864.173818    -6865.876399    -6865.911059  0.164344 -3.262814  3.963070
   scf:    2    -6757.090511    -6832.564564    -6832.608597  0.679793 -3.752215 15.167953
   scf:    3    -6872.910124    -6867.320259    -6867.374191  0.678421 -3.549976  0.615537
   scf:    4    -6867.381467    -6867.395014    -6867.442994  0.045578 -3.532938  0.331965
   scf:    5    -6867.355554    -6867.397064    -6867.449578  0.031091 -3.543020  0.275334
   scf:    6    -6867.422703    -6867.413782    -6867.464919  0.011493 -3.541571  0.089184
   scf:    7    -6867.416690    -6867.415644    -6867.466268  0.004010 -3.540545  0.016333
   scf:    8    -6867.415808    -6867.415733    -6867.466339  0.000605 -3.540543  0.008128
   scf:    9    -6867.415710    -6867.415723    -6867.466355  0.000454 -3.540543  0.005737
   scf:   10    -6867.415771    -6867.415748    -6867.466361  0.000240 -3.540488  0.000944

SCF Convergence by DM+H criterion
max |DM_out - DM_in|         :     0.0002401997
max |H_out - H_in|      (eV) :     0.0009440545
SCF cycle converged after 10 iterations

Using DM_out to compute the final energy and forces
No. of atoms with KB's overlaping orbs in proc 0. Max # of overlaps:      64      72

siesta: E_KS(eV) =            -6867.4157

siesta: Atomic forces (eV/Ang):
----------------------------------------
   Tot    1.085635    4.601804   -8.817330
----------------------------------------
   Max    4.144363
   Res    0.941420    sqrt( Sum f_i^2 / 3N )
----------------------------------------
   Max    4.144363    constrained

Stress-tensor-Voigt (kbar):      -85.14      -86.45      -89.67      -11.66        5.19       15.96
(Free)E + p*V (eV/cell)    -6797.8475
Target enthalpy (eV/cell)    -6867.4664

cgvc: Finished line minimization    1.  Mean atomic displacement =    0.0585

                     ====================================
                        Begin CG opt. move =      9
                     ====================================

outcell: Unit cell vectors (Ang):
       10.860000    0.000000    0.000000
        0.000000   10.860000    0.000000
        0.000000    0.000000   10.860000

outcell: Cell vector modules (Ang)   :   10.860000   10.860000   10.860000
outcell: Cell angles (23,13,12) (deg):     90.0000     90.0000     90.0000
outcell: Cell volume (Ang**3)        :   1280.8241
Gamma-point calculation with multiply-connected orbital pairs
Folding of H and S implicitly performed
<dSpData1D:S at geom step 9
  <sparsity:sparsity for geom step 9
    nrows_g=257 nrows=48 sparsity=.1527 nnzs=10084, refcount: 7>
  <dData1D:(new from dSpData1D) n=10084, refcount: 1>
refcount: 1>
new_DM -- step:    10
Re-using DM from previous geometries...
Number of DMs in history: 1
 DM extrapolation coefficients: 
1   1.00000
New DM after history re-use:
<dSpData2D:SpM extrapolated using coords
  <sparsity:sparsity for geom step 9
    nrows_g=257 nrows=48 sparsity=.1527 nnzs=10084, refcount: 9>
  <dData2D:(temp array for extrapolation) n=10084 m=1, refcount: 1>
refcount: 1>
No. of atoms with KB's overlaping orbs in proc 0. Max # of overlaps:      64      72
New grid distribution:   1
           1       1:   24    1:   12    1:    6
           2       1:   24    1:   12    7:   12
           3       1:   24    1:   12   13:   18
           4       1:   24    1:   12   19:   24
           5       1:   24   13:   24    1:    6
           6       1:   24   13:   24    7:   12
           7       1:   24   13:   24   13:   18
           8       1:   24   13:   24   19:   24

InitMesh: MESH =    48 x    48 x    48 =      110592
InitMesh: (bp) =    24 x    24 x    24 =       13824
InitMesh: Mesh cutoff (required, used) =    40.000    53.991 Ry
ExtMesh (bp) on 0 =    56 x    44 x    38 =       93632
New grid distribution:   2
           1       1:   12   13:   24   13:   24
           2      13:   24    1:   12    1:   12
           3      13:   24    1:   12   13:   24
           4      13:   24   13:   24    1:   12
           5       1:   12    1:   12   13:   24
           6       1:   12    1:   12    1:   12
           7      13:   24   13:   24   13:   24
           8       1:   12   13:   24    1:   12
New grid distribution:   3
           1       1:   12   13:   24   13:   24
           2      13:   24    1:   12    1:   12
           3      13:   24    1:   12   13:   24
           4      13:   24   13:   24    1:   12
           5       1:   12    1:   12   13:   24
           6       1:   12    1:   12    1:   12
           7      13:   24   13:   24   13:   24
           8       1:   12   13:   24    1:   12
Setting up quadratic distribution...
ExtMesh (bp) on 0 =    44 x    44 x    44 =       85184
PhiOnMesh: Number of (b)points on node 0 =                 1728
PhiOnMesh: nlist on node 0 =                50091

        iscf     Eharris(eV)        E_KS(eV)     FreeEng(eV)     dDmax    Ef(eV) dHmax(eV)
   scf:    1    -6864.295933    -6868.329271    -6868.364856  0.235884 -3.572425  3.986664
   scf:    2    -6791.381353    -6845.327930    -6845.363092  0.525612 -3.422426 15.491064
   scf:    3    -6876.548208    -6869.819719    -6869.861018  0.331104 -3.556507  0.982668
   scf:    4    -6869.946313    -6869.906825    -6869.949512  0.021330 -3.560585  0.474619
   scf:    5    -6869.926236    -6869.926884    -6869.967071  0.018262 -3.548385  0.195909
   scf:    6    -6869.932102    -6869.933829    -6869.974826  0.011037 -3.552812  0.046591
   scf:    7    -6869.934328    -6869.934175    -6869.975189  0.001829 -3.552614  0.011132
   scf:    8    -6869.934191    -6869.934191    -6869.975265  0.000991 -3.552711  0.004250
   scf:    9    -6869.934171    -6869.934184    -6869.975279  0.000411 -3.552760  0.002184
   scf:   10    -6869.934109    -6869.934148    -6869.975279  0.000277 -3.552928  0.003362
   scf:   11    -6869.934175    -6869.934163    -6869.975281  0.000210 -3.552844  0.000926

SCF Convergence by DM+H criterion
max |DM_out - DM_in|         :     0.0002099033
max |H_out - H_in|      (eV) :     0.0009255859
SCF cycle converged after 11 iterations

Using DM_out to compute the final energy and forces
No. of atoms with KB's overlaping orbs in proc 0. Max # of overlaps:      64      72

siesta: E_KS(eV) =            -6869.9342

siesta: Atomic forces (eV/Ang):
----------------------------------------
   Tot    1.020409    4.606371   -4.577110
----------------------------------------
   Max    2.665833
   Res    0.686813    sqrt( Sum f_i^2 / 3N )
----------------------------------------
   Max    2.665833    constrained

Stress-tensor-Voigt (kbar):      -87.80      -88.70      -89.69      -13.68        2.20       11.99
(Free)E + p*V (eV/cell)    -6799.0435
Target enthalpy (eV/cell)    -6869.9753

                     ====================================
                        Begin CG opt. move =     10
                     ====================================

outcell: Unit cell vectors (Ang):
       10.860000    0.000000    0.000000
        0.000000   10.860000    0.000000
        0.000000    0.000000   10.860000

outcell: Cell vector modules (Ang)   :   10.860000   10.860000   10.860000
outcell: Cell angles (23,13,12) (deg):     90.0000     90.0000     90.0000
outcell: Cell volume (Ang**3)        :   1280.8241
Gamma-point calculation with multiply-connected orbital pairs
Folding of H and S implicitly performed
<dSpData1D:S at geom step 10
  <sparsity:sparsity for geom step 10
    nrows_g=257 nrows=48 sparsity=.1531 nnzs=10111, refcount: 7>
  <dData1D:(new from dSpData1D) n=10111, refcount: 1>
refcount: 1>
new_DM -- step:    11
Re-using DM from previous geometries...
Number of DMs in history: 1
 DM extrapolation coefficients: 
1   1.00000
New DM after history re-use:
<dSpData2D:SpM extrapolated using coords
  <sparsity:sparsity for geom step 10
    nrows_g=257 nrows=48 sparsity=.1531 nnzs=10111, refcount: 9>
  <dData2D:(temp array for extrapolation) n=10111 m=1, refcount: 1>
refcount: 1>
Note: For starting DM, Qtot, Tr[D*S] =        257.00000000        256.69430859
No. of atoms with KB's overlaping orbs in proc 0. Max # of overlaps:      65      68
New grid distribution:   1
           1       1:   24    1:   12    1:    6
           2       1:   24    1:   12    7:   12
           3       1:   24    1:   12   13:   18
           4       1:   24    1:   12   19:   24
           5       1:   24   13:   24    1:    6
           6       1:   24   13:   24    7:   12
           7       1:   24   13:   24   13:   18
           8       1:   24   13:   24   19:   24

InitMesh: MESH =    48 x    48 x    48 =      110592
InitMesh: (bp) =    24 x    24 x    24 =       13824
InitMesh: Mesh cutoff (required, used) =    40.000    53.991 Ry
ExtMesh (bp) on 0 =    56 x    44 x    38 =       93632
New grid distribution:   2
           1       1:   12   13:   24   13:   24
           2      13:   24    1:   12    1:   12
           3      13:   24    1:   12   13:   24
           4      13:   24   13:   24    1:   12
           5       1:   12    1:   12   13:   24
           6       1:   12    1:   12    1:   12
           7      13:   24   13:   24   13:   24
           8       1:   12   13:   24    1:   12
New grid distribution:   3
           1       1:   12   13:   24   13:   24
           2      13:   24    1:   12    1:   12
           3      13:   24    1:   12   13:   24
           4      13:   24   13:   24    1:   12
           5       1:   12    1:   12   13:   24
           6       1:   12    1:   12    1:   12
           7      13:   24   13:   24   13:   24
           8       1:   12   13:   24    1:   12
Setting up quadratic distribution...
ExtMesh (bp) on 0 =    44 x    44 x    44 =       85184
PhiOnMesh: Number of (b)points on node 0 =                 1728
PhiOnMesh: nlist on node 0 =                50115

        iscf     Eharris(eV)        E_KS(eV)     FreeEng(eV)     dDmax    Ef(eV) dHmax(eV)
   scf:    1    -6862.826755    -6868.895584    -6868.930554  0.281962 -3.594380  5.120046
   scf:    2    -6736.802249    -6829.078786    -6829.113639  0.617432 -3.267441 20.686747
   scf:    3    -6882.384430    -6871.162941    -6871.199862  0.401285 -3.564356  1.184104
   scf:    4    -6871.387910    -6871.303540    -6871.340270  0.031634 -3.559695  0.516291
   scf:    5    -6871.335648    -6871.328227    -6871.364303  0.021980 -3.550456  0.133633
   scf:    6    -6871.330631    -6871.332520    -6871.368746  0.009014 -3.553894  0.050410
   scf:    7    -6871.333200    -6871.333020    -6871.369228  0.001777 -3.553127  0.008858
   scf:    8    -6871.333105    -6871.333070    -6871.369294  0.000884 -3.553323  0.004692
   scf:    9    -6871.333097    -6871.333086    -6871.369313  0.000594 -3.553280  0.001766
   scf:   10    -6871.333077    -6871.333082    -6871.369315  0.000162 -3.553371  0.001560
   scf:   11    -6871.333087    -6871.333085    -6871.369315  0.000099 -3.553330  0.000757

SCF Convergence by DM+H criterion
max |DM_out - DM_in|         :     0.0000986719
max |H_out - H_in|      (eV) :     0.0007573053
SCF cycle converged after 11 iterations

Using DM_out to compute the final energy and forces
No. of atoms with KB's overlaping orbs in proc 0. Max # of overlaps:      65      68

siesta: E_KS(eV) =            -6871.3331

siesta: Atomic forces (eV/Ang):
----------------------------------------
   Tot    1.020825    4.459215    0.496428
----------------------------------------
   Max    3.949048
   Res    0.605417    sqrt( Sum f_i^2 / 3N )
----------------------------------------
   Max    3.949048    constrained

Stress-tensor-Voigt (kbar):      -93.34      -93.60      -92.66      -14.86       -0.66        8.74
(Free)E + p*V (eV/cell)    -6796.8655
Target enthalpy (eV/cell)    -6871.3693

                     ====================================
                        Begin CG opt. move =     11
                     ====================================

outcell: Unit cell vectors (Ang):
       10.860000    0.000000    0.000000
        0.000000   10.860000    0.000000
        0.000000    0.000000   10.860000

outcell: Cell vector modules (Ang)   :   10.860000   10.860000   10.860000
outcell: Cell angles (23,13,12) (deg):     90.0000     90.0000     90.0000
outcell: Cell volume (Ang**3)        :   1280.8241
Gamma-point calculation with multiply-connected orbital pairs
Folding of H and S implicitly performed
<dSpData1D:S at geom step 11
  <sparsity:sparsity for geom step 11
    nrows_g=257 nrows=48 sparsity=.1534 nnzs=10132, refcount: 7>
  <dData1D:(new from dSpData1D) n=10132, refcount: 1>
refcount: 1>
new_DM -- step:    12
Re-using DM from previous geometries...
Number of DMs in history: 1
 DM extrapolation coefficients: 
1   1.00000
New DM after history re-use:
<dSpData2D:SpM extrapolated using coords
  <sparsity:sparsity for geom step 11
    nrows_g=257 nrows=48 sparsity=.1534 nnzs=10132, refcount: 9>
  <dData2D:(temp array for extrapolation) n=10132 m=1, refcount: 1>
refcount: 1>
Note: For starting DM, Qtot, Tr[D*S] =        257.00000000        256.60516857
No. of atoms with KB's overlaping orbs in proc 0. Max # of overlaps:      65      68
New grid distribution:   1
           1       1:   24    1:   12    1:    6
           2       1:   24    1:   12    7:   12
           3       1:   24    1:   12   13:   18
           4       1:   24    1:   12   19:   24
           5       1:   24   13:   24    1:    6
           6       1:   24   13:   24    7:   12
           7       1:   24   13:   24   13:   18
           8       1:   24   13:   24   19:   24

InitMesh: MESH =    48 x    48 x    48 =      110592
InitMesh: (bp) =    24 x    24 x    24 =       13824
InitMesh: Mesh cutoff (required, used) =    40.000    53.991 Ry
ExtMesh (bp) on 0 =    56 x    44 x    38 =       93632
New grid distribution:   2
           1       1:   12   13:   24   13:   24
           2      13:   24    1:   12    1:   12
           3      13:   24    1:   12   13:   24
           4      13:   24   13:   24    1:   12
           5       1:   12    1:   12   13:   24
           6       1:   12    1:   12    1:   12
           7      13:   24   13:   24   13:   24
           8       1:   12   13:   24    1:   12
New grid distribution:   3
           1       1:   12   13:   24   13:   24
           2      13:   24    1:   12    1:   12
           3      13:   24    1:   12   13:   24
           4      13:   24   13:   24    1:   12
           5       1:   12    1:   12   13:   24
           6       1:   12    1:   12    1:   12
           7      13:   24   13:   24   13:   24
           8       1:   12   13:   24    1:   12
Setting up quadratic distribution...
ExtMesh (bp) on 0 =    44 x    44 x    44 =       85184
PhiOnMesh: Number of (b)points on node 0 =                 1728
PhiOnMesh: nlist on node 0 =                50114

        iscf     Eharris(eV)        E_KS(eV)     FreeEng(eV)     dDmax    Ef(eV) dHmax(eV)
   scf:    1    -6859.960783    -6868.222732    -6868.258494  0.311854 -3.617630  6.115865
   scf:    2    -6658.714221    -6804.418927    -6804.453788  0.674604 -3.059380 26.042425
   scf:    3    -6887.742444    -6871.372903    -6871.408195  0.463895 -3.567126  1.169568
   scf:    4    -6871.637002    -6871.537993    -6871.573213  0.034614 -3.558822  0.486556
   scf:    5    -6871.576537    -6871.565711    -6871.600787  0.023040 -3.551806  0.110569
   scf:    6    -6871.566754    -6871.568200    -6871.603302  0.006951 -3.552939  0.045344
   scf:    7    -6871.568829    -6871.568680    -6871.603770  0.002191 -3.551679  0.012076
   scf:    8    -6871.568780    -6871.568738    -6871.603833  0.000750 -3.551900  0.006947
   scf:    9    -6871.568794    -6871.568770    -6871.603865  0.000908 -3.551646  0.002616
   scf:   10    -6871.568775    -6871.568773    -6871.603867  0.000281 -3.551625  0.002476
   scf:   11    -6871.568774    -6871.568774    -6871.603868  0.000129 -3.551623  0.001006
   scf:   12    -6871.568774    -6871.568774    -6871.603868  0.000070 -3.551619  0.000717

SCF Convergence by DM+H criterion
[...]
                     ====================================

outcell: Unit cell vectors (Ang):
       10.860000    0.000000    0.000000
        0.000000   10.860000    0.000000
        0.000000    0.000000   10.860000

outcell: Cell vector modules (Ang)   :   10.860000   10.860000   10.860000
outcell: Cell angles (23,13,12) (deg):     90.0000     90.0000     90.0000
outcell: Cell volume (Ang**3)        :   1280.8241
Gamma-point calculation with multiply-connected orbital pairs
Folding of H and S implicitly performed
<dSpData1D:S at geom step 49
  <sparsity:sparsity for geom step 49
    nrows_g=257 nrows=48 sparsity=.1643 nnzs=10854, refcount: 7>
  <dData1D:(new from dSpData1D) n=10854, refcount: 1>
refcount: 1>
new_DM -- step:    50
Re-using DM from previous geometries...
Number of DMs in history: 1
 DM extrapolation coefficients: 
1   1.00000
New DM after history re-use:
<dSpData2D:SpM extrapolated using coords
  <sparsity:sparsity for geom step 49
    nrows_g=257 nrows=48 sparsity=.1643 nnzs=10854, refcount: 9>
  <dData2D:(temp array for extrapolation) n=10854 m=1, refcount: 1>
refcount: 1>
No. of atoms with KB's overlaping orbs in proc 0. Max # of overlaps:      62      74
New grid distribution:   1
           1       1:   24    1:   12    1:    6
           2       1:   24    1:   12    7:   12
           3       1:   24    1:   12   13:   18
           4       1:   24    1:   12   19:   24
           5       1:   24   13:   24    1:    6
           6       1:   24   13:   24    7:   12
           7       1:   24   13:   24   13:   18
           8       1:   24   13:   24   19:   24

InitMesh: MESH =    48 x    48 x    48 =      110592
InitMesh: (bp) =    24 x    24 x    24 =       13824
InitMesh: Mesh cutoff (required, used) =    40.000    53.991 Ry
ExtMesh (bp) on 0 =    56 x    44 x    38 =       93632
New grid distribution:   2
           1      13:   24   12:   24    1:   12
           2       1:   12    1:   11    1:   12
           3       1:   12   12:   24   13:   24
           4       1:   13    1:   11   13:   24
           5       1:   12   12:   24    1:   12
           6      13:   24    1:   11    1:   12
           7      13:   24   12:   24   13:   24
           8      14:   24    1:   11   13:   24
New grid distribution:   3
           1       1:   12   13:   24   13:   24
           2      13:   24    1:   12    1:   12
           3      13:   24    1:   12   13:   24
           4      13:   24   13:   24    1:   12
           5       1:   12    1:   12   13:   24
           6       1:   12    1:   12    1:   12
           7      13:   24   13:   24   13:   24
           8       1:   12   13:   24    1:   12
Setting up quadratic distribution...
ExtMesh (bp) on 0 =    44 x    45 x    44 =       87120
PhiOnMesh: Number of (b)points on node 0 =                 1872
PhiOnMesh: nlist on node 0 =                50720

        iscf     Eharris(eV)        E_KS(eV)     FreeEng(eV)     dDmax    Ef(eV) dHmax(eV)
   scf:    1    -6885.997933    -6888.344984    -6888.408533  0.295708 -3.752844  2.900793
   scf:    2    -6832.978686    -6871.484518    -6871.523874  0.523547 -3.583566 13.029032
   scf:    3    -6893.803618    -6889.002584    -6889.070553  0.336520 -3.682421  1.229018
   scf:    4    -6889.198767    -6889.130625    -6889.206364  0.052123 -3.691367  0.519706
   scf:    5    -6889.148916    -6889.153129    -6889.227678  0.028494 -3.698520  0.232013
   scf:    6    -6889.125232    -6889.150547    -6889.228173  0.034379 -3.701385  0.211951
   scf:    7    -6889.155433    -6889.157141    -6889.234497  0.018292 -3.699706  0.057523
   scf:    8    -6889.158009    -6889.157837    -6889.234936  0.002926 -3.700015  0.013781
   scf:    9    -6889.157801    -6889.157840    -6889.234977  0.000906 -3.699957  0.014881
   scf:   10    -6889.157803    -6889.157842    -6889.235011  0.001385 -3.700168  0.006889
   scf:   11    -6889.157634    -6889.157749    -6889.235020  0.001110 -3.700027  0.008774
   scf:   12    -6889.157887    -6889.157822    -6889.235030  0.000439 -3.700152  0.005413
   scf:   13    -6889.157685    -6889.157756    -6889.235034  0.000280 -3.700192  0.002654
   scf:   14    -6889.157804    -6889.157785    -6889.235029  0.000724 -3.700166  0.006081
   scf:   15    -6889.157744    -6889.157768    -6889.235035  0.000612 -3.700200  0.001227
   scf:   16    -6889.157787    -6889.157778    -6889.235035  0.000073 -3.700201  0.000840

SCF Convergence by DM+H criterion
max |DM_out - DM_in|         :     0.0000728271
max |H_out - H_in|      (eV) :     0.0008397896
SCF cycle converged after 16 iterations

Using DM_out to compute the final energy and forces
No. of atoms with KB's overlaping orbs in proc 0. Max # of overlaps:      62      74

siesta: E_KS(eV) =            -6889.1578

siesta: Atomic forces (eV/Ang):
----------------------------------------
   Tot    4.428716   -5.065930   -1.506941
----------------------------------------
   Max    4.148180
   Res    0.569634    sqrt( Sum f_i^2 / 3N )
----------------------------------------
   Max    4.148180    constrained

Stress-tensor-Voigt (kbar):      -86.95      -83.38     -102.19       -7.94        2.57       -2.29
(Free)E + p*V (eV/cell)    -6816.6129
Target enthalpy (eV/cell)    -6889.2350

                     ====================================
                        Begin CG opt. move =     50
                     ====================================

outcell: Unit cell vectors (Ang):
       10.860000    0.000000    0.000000
        0.000000   10.860000    0.000000
        0.000000    0.000000   10.860000

outcell: Cell vector modules (Ang)   :   10.860000   10.860000   10.860000
outcell: Cell angles (23,13,12) (deg):     90.0000     90.0000     90.0000
outcell: Cell volume (Ang**3)        :   1280.8241
Gamma-point calculation with multiply-connected orbital pairs
Folding of H and S implicitly performed
<dSpData1D:S at geom step 50
  <sparsity:sparsity for geom step 50
    nrows_g=257 nrows=48 sparsity=.1642 nnzs=10848, refcount: 7>
  <dData1D:(new from dSpData1D) n=10848, refcount: 1>
refcount: 1>
new_DM -- step:    51
Re-using DM from previous geometries...
Number of DMs in history: 1
 DM extrapolation coefficients: 
1   1.00000
New DM after history re-use:
<dSpData2D:SpM extrapolated using coords
  <sparsity:sparsity for geom step 50
    nrows_g=257 nrows=48 sparsity=.1642 nnzs=10848, refcount: 9>
  <dData2D:(temp array for extrapolation) n=10848 m=1, refcount: 1>
refcount: 1>
No. of atoms with KB's overlaping orbs in proc 0. Max # of overlaps:      62      72
New grid distribution:   1
           1       1:   24    1:   12    1:    6
           2       1:   24    1:   12    7:   12
           3       1:   24    1:   12   13:   18
           4       1:   24    1:   12   19:   24
           5       1:   24   13:   24    1:    6
           6       1:   24   13:   24    7:   12
           7       1:   24   13:   24   13:   18
           8       1:   24   13:   24   19:   24

InitMesh: MESH =    48 x    48 x    48 =      110592
InitMesh: (bp) =    24 x    24 x    24 =       13824
InitMesh: Mesh cutoff (required, used) =    40.000    53.991 Ry
ExtMesh (bp) on 0 =    56 x    44 x    38 =       93632
New grid distribution:   2
           1      13:   24   12:   24    1:   12
           2       1:   12    1:   11    1:   12
           3       1:   12   12:   24   13:   24
           4       1:   13    1:   11   13:   24
           5       1:   12   12:   24    1:   12
           6      13:   24    1:   11    1:   12
           7      13:   24   12:   24   13:   24
           8      14:   24    1:   11   13:   24
New grid distribution:   3
           1       1:   12   13:   24   13:   24
           2      13:   24    1:   12    1:   12
           3      13:   24    1:   12   13:   24
           4      13:   24   13:   24    1:   12
           5       1:   12    1:   12   13:   24
           6       1:   12    1:   12    1:   12
           7      13:   24   13:   24   13:   24
           8       1:   12   13:   24    1:   12
Setting up quadratic distribution...
ExtMesh (bp) on 0 =    44 x    45 x    44 =       87120
PhiOnMesh: Number of (b)points on node 0 =                 1872
PhiOnMesh: nlist on node 0 =                50568

        iscf     Eharris(eV)        E_KS(eV)     FreeEng(eV)     dDmax    Ef(eV) dHmax(eV)
   scf:    1    -6887.689259    -6889.307855    -6889.358568  0.205611 -3.729140  2.171316
   scf:    2    -6856.372342    -6879.293854    -6879.330047  0.461886 -3.583167  9.584282
   scf:    3    -6891.794246    -6889.692131    -6889.762116  0.308408 -3.702556  0.785579
   scf:    4    -6889.720010    -6889.752443    -6889.829871  0.072368 -3.704702  0.283749
   scf:    5    -6889.763468    -6889.771674    -6889.845572  0.024650 -3.706408  0.162770
   scf:    6    -6889.766088    -6889.773060    -6889.847734  0.012496 -3.709129  0.114758
   scf:    7    -6889.773723    -6889.774513    -6889.849394  0.006031 -3.707816  0.023262
   scf:    8    -6889.774090    -6889.774437    -6889.849541  0.002293 -3.708052  0.021993
   scf:    9    -6889.774927    -6889.774741    -6889.849605  0.002538 -3.708245  0.015941
   scf:   10    -6889.774151    -6889.774483    -6889.849627  0.002106 -3.708150  0.014870
   scf:   11    -6889.774576    -6889.774547    -6889.849650  0.001158 -3.708113  0.007642
   scf:   12    -6889.774549    -6889.774553    -6889.849659  0.000327 -3.708273  0.005875
   scf:   13    -6889.774573    -6889.774574    -6889.849651  0.000745 -3.708180  0.009806
   scf:   14    -6889.774463    -6889.774527    -6889.849663  0.000660 -3.708247  0.002861
   scf:   15    -6889.774566    -6889.774547    -6889.849664  0.000252 -3.708266  0.001355
   scf:   16    -6889.774513    -6889.774530    -6889.849664  0.000155 -3.708277  0.001431
   scf:   17    -6889.774533    -6889.774532    -6889.849665  0.000125 -3.708269  0.000656

SCF Convergence by DM+H criterion
max |DM_out - DM_in|         :     0.0001252927
max |H_out - H_in|      (eV) :     0.0006564568
SCF cycle converged after 17 iterations

Using DM_out to compute the final energy and forces
No. of atoms with KB's overlaping orbs in proc 0. Max # of overlaps:      62      72

siesta: E_KS(eV) =            -6889.7745

siesta: Atomic forces (eV/Ang):
----------------------------------------
   Tot    4.753919   -4.810661   -2.329378
----------------------------------------
   Max    4.414194
   Res    0.588027    sqrt( Sum f_i^2 / 3N )
----------------------------------------
   Max    4.414194    constrained

Stress-tensor-Voigt (kbar):      -87.47      -87.28     -106.46       -7.86        3.48       -3.22
(Free)E + p*V (eV/cell)    -6814.9138
Target enthalpy (eV/cell)    -6889.8497

outcoor: Final (unrelaxed) atomic coordinates (scaled):     
   -0.00547668    0.09571128   -0.03573090   1       1  Si
    0.19240047    0.31651974    0.28814147   1       2  Si
   -0.07445796    0.45103596    0.65265166   1       3  Si
    0.24052558    0.76800688    0.73808528   1       4  Si
    0.49541202    0.05518002    0.48525576   1       5  Si
    0.78233435    0.30694452    0.72178047   1       6  Si
    0.52688205    0.49677365    0.05644944   1       7  Si
    0.81435198    0.77724992    0.22756709   1       8  Si
    1.05734093   -0.02841408    0.11805891   1       9  Si
    1.27464802    0.30185077    0.31736296   1      10  Si
    1.07263834    0.60810923    0.56471430   1      11  Si
    1.39527386    0.75215403    0.97898576   1      12  Si
    1.52533229    0.01691628    0.53016003   1      13  Si
    1.68688033    0.13095125    0.93752685   1      14  Si
    1.48259358    0.52856138    0.00552980   1      15  Si
    1.75818983    0.68305553    0.30115925   1      16  Si
    0.04701937    0.92413133    0.03785427   1      17  Si
    0.26974690    1.24894268    0.24474308   1      18  Si
    0.01629801    1.54750711    0.45664249   1      19  Si
    0.26088329    1.78041301    0.74203416   1      20  Si
    0.53332655    1.00103030    0.49243039   1      21  Si
    0.76732913    1.16022438    0.83419069   1      22  Si
    0.49173608    1.52759145    0.00237353   1      23  Si
    0.73676525    1.71940173    0.31057942   1      24  Si
    0.01704038   -0.04012772    1.06915720   1      25  Si
    0.26179790    0.25717415    1.25425714   1      26  Si
    0.01748012    0.56007313    1.44379574   1      27  Si
    0.29271225    0.72240423    1.75384467   1      28  Si
    0.52298288    0.01728606    1.51846647   1      29  Si
    0.77846913    0.18917677    1.84942639   1      30  Si
    0.49669262    0.50564311    0.98651585   1      31  Si
    0.69696373    0.68587674    1.33745285   1      32  Si
    0.97905603    1.02303406   -0.12652778   1      33  Si
    1.16928256    1.36566892    0.14151225   1      34  Si
    0.99777792    1.44222469    0.55240356   1      35  Si
    1.24057385    1.75844420    0.72430545   1      36  Si
    1.58751102    0.84708565    0.65511242   1      37  Si
    1.77553624    1.34512119    0.75094111   1      38  Si
    1.55040738    1.52455126    0.00225693   1      39  Si
    1.77086430    1.82633099    0.22531563   1      40  Si
    1.02446109    0.04271694    0.96272240   1      41  Si
    1.12697153    0.37367348    1.11433827   1      42  Si
    0.99754162    0.42470618    1.54861435   1      43  Si
    1.27053846    0.74313436    1.68218579   1      44  Si
    1.46909678    0.08833104    1.46566242   1      45  Si
    1.73807626    0.34007779    1.70223578   1      46  Si
    1.51011469    0.39537304    1.11961655   1      47  Si
    1.76822609    0.74705622    1.11907254   1      48  Si
    0.03184432    1.04208969    1.02425456   1      49  Si
    0.25749706    1.31824201    1.27414660   1      50  Si
   -0.01858957    1.51594980    1.55338433   1      51  Si
    0.24081156    1.79102210    1.76740728   1      52  Si
    0.47394535    1.02201003    1.50018736   1      53  Si
    0.71100667    1.31254935    1.70092757   1      54  Si
    0.52024136    1.51090680    0.98145065   1      55  Si
    0.76760217    1.78564506    1.22167489   1      56  Si
    1.02565168    0.78996398    1.08331866   1      57  Si
    1.28104068    1.28768018    1.26143336   1      58  Si
    1.01819332    1.55158439    1.49943212   1      59  Si
    1.27664820    1.79632261    1.76378968   1      60  Si
    1.54649501    0.99635449    1.45433205   1      61  Si
    1.78536738    1.20272329    1.77369601   1      62  Si
    1.49795131    1.55390361    1.00038583   1      63  Si
    1.71921208    1.76172045    1.31128845   1      64  Si
    1.09707395    1.11020762    1.13434125   2      65  H

siesta: Program's energy decomposition (eV):
siesta: Ebs     =     -2412.090087
siesta: Eions   =     12205.375277
siesta: Ena     =      3685.645945
siesta: Ekin    =      2583.498940
siesta: Enl     =       966.756419
siesta: Eso     =         0.000000
siesta: Eldau   =         0.000000
siesta: DEna    =       200.073114
siesta: DUscf   =         8.265455
siesta: DUext   =         0.000000
siesta: Enegf   =         0.000000
siesta: Exc     =     -2128.639128
siesta: eta*DQ  =         0.000000
siesta: Emadel  =         0.000000
siesta: Emeta   =         0.000000
siesta: Emolmec =         0.000000
siesta: Ekinion =         0.000000
siesta: Eharris =     -6889.774533
siesta: Etot    =     -6889.774532
siesta: FreeEng =     -6889.849665

siesta: Final energy (eV):
siesta:  Band Struct. =   -2412.090087
siesta:       Kinetic =    2583.498940
siesta:       Hartree =     558.840165
siesta:       Eldau   =       0.000000
siesta:       Eso     =       0.000000
siesta:    Ext. field =       0.000000
siesta:       Enegf   =       0.000000
siesta:   Exch.-corr. =   -2128.639128
siesta:  Ion-electron =   -3337.920455
siesta:       Ion-ion =   -4565.554054
siesta:       Ekinion =       0.000000
siesta:         Total =   -6889.774532
siesta:         Fermi =      -3.708269

siesta: Atomic forces (eV/Ang):
siesta:      1    0.000108   -0.150799    0.245217
siesta:      2    0.623604   -0.398060    0.303915
siesta:      3    0.007027   -0.075789    1.126628
siesta:      4    0.197043   -0.209921    0.519127
siesta:      5    0.105816   -0.148439    0.267319
siesta:      6   -0.471918    0.029258   -0.284410
siesta:      7    0.041592   -0.189843   -0.344403
siesta:      8   -0.526771   -0.300178    0.020960
siesta:      9   -0.612698   -0.231313   -0.626788
siesta:     10   -0.261094   -0.060759   -0.247789
siesta:     11   -0.215298   -0.142999    0.146750
siesta:     12    0.527802   -0.556470    2.279924
siesta:     13    0.423050    0.346964    0.661816
siesta:     14   -0.082716    1.403190    0.003861
siesta:     15    0.033159   -0.124344   -0.297378
siesta:     16    0.817824   -0.520047   -1.893275
siesta:     17    0.456056   -0.003458   -0.637662
siesta:     18   -0.233407   -0.055688    0.222633
siesta:     19    0.337932   -0.071909    0.165886
siesta:     20   -0.124300    0.057769    0.432938
siesta:     21   -0.296695   -0.007740    0.058093
siesta:     22   -0.797497    0.544976    0.130199
siesta:     23    0.230094    0.079850    0.107828
siesta:     24    0.558913    0.393879   -0.047127
siesta:     25   -0.031896    0.863466    0.235468
siesta:     26    0.076509   -0.116018    0.044424
siesta:     27   -0.694748   -0.226507   -0.155885
siesta:     28    0.325289   -0.293331   -0.326469
siesta:     29    0.218335   -0.301713    0.005111
siesta:     30   -0.402859    0.183841   -0.475940
siesta:     31    0.238910    0.161299    0.236671
siesta:     32    0.409872    0.132959   -0.061935
siesta:     33   -0.266976    0.043404    0.107045
siesta:     34   -0.597188    0.777126   -0.134474
siesta:     35   -0.520332   -0.243048   -0.254433
siesta:     36    0.123366    0.193855    0.351597
siesta:     37    1.030489   -4.414194   -1.978711
siesta:     38    0.685947    0.430499    0.567113
siesta:     39   -0.299368   -0.270157   -0.690372
siesta:     40    0.189678   -0.247467    0.004145
siesta:     41    1.192248   -1.015177   -0.629834
siesta:     42   -0.656218   -0.000194    0.735701
siesta:     43   -0.103911    0.029508   -1.018742
siesta:     44   -0.357259    0.230469    0.204103
siesta:     45    0.017333    0.387722   -0.278170
siesta:     46    0.389314   -0.657358    0.262258
siesta:     47    0.065735    0.593242   -0.500013
siesta:     48    1.068868   -0.892792    1.011233
siesta:     49    0.006653    0.450986   -0.363720
siesta:     50   -0.555314   -0.115260   -0.391788
siesta:     51    0.405865   -0.170254   -0.072756
siesta:     52    0.118375    0.378558   -0.221940
siesta:     53   -0.076355    0.204471   -0.304932
siesta:     54    0.700755    0.234370    0.087881
siesta:     55    0.036282   -0.108996    0.170863
siesta:     56    0.472975    0.734279   -0.120821
siesta:     57    0.362945   -1.747050   -0.430226
siesta:     58    0.021190   -0.156323    0.308352
siesta:     59   -0.133224    0.120534   -0.134869
siesta:     60    0.049324    0.237724    0.011758
siesta:     61    0.675371   -0.248478   -0.287276
siesta:     62   -0.137842   -0.054488   -0.140076
siesta:     63   -0.141414    0.004981    0.221043
siesta:     64    0.273612    0.143253   -0.338374
siesta:     65   -0.164043    0.323470    0.103349
siesta: ----------------------------------------
siesta:    Tot    4.753919   -4.810661   -2.329378

siesta: Stress tensor (static) (eV/Ang**3):
siesta:    -0.054597   -0.004909   -0.002009
siesta:    -0.004909   -0.054476    0.002173
siesta:    -0.002009    0.002173   -0.066445

siesta: Cell volume =       1280.824056 Ang**3

siesta: Pressure (static):
siesta:                Solid            Molecule  Units
siesta:           0.00063720          0.00055115  Ry/Bohr**3
siesta:           0.05850594          0.05060429  eV/Ang**3
siesta:          93.73787112         81.07788986  kBar
(Free)E+ p_basis*V_orbitals  =       -6872.647366
(Free)Eharris+ p_basis*V_orbitals  =       -6872.647367
>> End of run:   5-NOV-2018  11:13:26
Job completed
