Siesta Version:                                        siesta-3.1
Architecture  : ifort11-macosx64
Compiler flags: ifort  -O2
SERIAL version

* Running in serial mode
>> Start of run:  10-JUN-2011  14:40:29

                           ***********************       
                           *  WELCOME TO SIESTA  *       
                           ***********************       

reinit: Reading from standard input
************************** Dump of input data file ****************************
# -----------------------------------------------------------------------------
# FDF for interstitial H in a cubic c-Si supercell with 64 atoms
#
# E. Artacho, April 1999
# -----------------------------------------------------------------------------
SystemName          H in 64-atom silicon
SystemLabel         sih
NumberOfAtoms       65
NumberOfSpecies     2
%block ChemicalSpeciesLabel
 1  14  Si
 2   1  H
%endblock ChemicalSpeciesLabel
PAO.BasisSize       SZ
PAO.EnergyShift     300 meV
%block PAO.Basis
  H  1
  0  1
  0.
  0.8
%endblock PAO.Basis
LatticeConstant     5.430 Ang
%block LatticeVectors
  2.000  0.000  0.000
  0.000  2.000  0.000
  0.000  0.000  2.000
%endblock LatticeVectors
MeshCutoff          40.0 Ry
MaxSCFIterations    50
DM.MixingWeight      0.3
DM.NumberPulay       4
DM.Tolerance         1.d-3
DM.UseSaveDM
SolutionMethod       diagon
ElectronicTemperature  25 meV
MD.TypeOfRun         cg
MD.NumCGsteps        50
MD.MaxCGDispl         0.1  Ang
MD.MaxForceTol        0.04 eV/Ang
AtomicCoordinatesFormat  ScaledCartesian
%block AtomicCoordinatesAndAtomicSpecies
    0.000    0.000    0.000   1 #  Si  1
    0.250    0.250    0.250   1 #  Si  2
    0.000    0.500    0.500   1 #  Si  3
    0.250    0.750    0.750   1 #  Si  4
    0.500    0.000    0.500   1 #  Si  5
    0.750    0.250    0.750   1 #  Si  6
    0.500    0.500    0.000   1 #  Si  7
    0.750    0.750    0.250   1 #  Si  8
    1.000    0.000    0.000   1 #  Si  9
    1.250    0.250    0.250   1 #  Si 10
    1.000    0.500    0.500   1 #  Si 11
    1.250    0.750    0.750   1 #  Si 12
    1.500    0.000    0.500   1 #  Si 13
    1.750    0.250    0.750   1 #  Si 14
    1.500    0.500    0.000   1 #  Si 15
    1.750    0.750    0.250   1 #  Si 16
    0.000    1.000    0.000   1 #  Si 17
    0.250    1.250    0.250   1 #  Si 18
    0.000    1.500    0.500   1 #  Si 19
    0.250    1.750    0.750   1 #  Si 20
    0.500    1.000    0.500   1 #  Si 21
    0.750    1.250    0.750   1 #  Si 22
    0.500    1.500    0.000   1 #  Si 23
    0.750    1.750    0.250   1 #  Si 24
    0.000    0.000    1.000   1 #  Si 25
    0.250    0.250    1.250   1 #  Si 26
    0.000    0.500    1.500   1 #  Si 27
    0.250    0.750    1.750   1 #  Si 28
    0.500    0.000    1.500   1 #  Si 29
    0.750    0.250    1.750   1 #  Si 30
    0.500    0.500    1.000   1 #  Si 31
    0.750    0.750    1.250   1 #  Si 32
    1.000    1.000    0.000   1 #  Si 33
    1.250    1.250    0.250   1 #  Si 34
    1.000    1.500    0.500   1 #  Si 35
    1.250    1.750    0.750   1 #  Si 36
    1.500    1.000    0.500   1 #  Si 37
    1.750    1.250    0.750   1 #  Si 38
    1.500    1.500    0.000   1 #  Si 39
    1.750    1.750    0.250   1 #  Si 40
    1.000    0.000    1.000   1 #  Si 41
    1.250    0.250    1.250   1 #  Si 42
    1.000    0.500    1.500   1 #  Si 43
    1.250    0.750    1.750   1 #  Si 44
    1.500    0.000    1.500   1 #  Si 45
    1.750    0.250    1.750   1 #  Si 46
    1.500    0.500    1.000   1 #  Si 47
    1.750    0.750    1.250   1 #  Si 48
    0.000    1.000    1.000   1 #  Si 49
    0.250    1.250    1.250   1 #  Si 50
    0.000    1.500    1.500   1 #  Si 51
    0.250    1.750    1.750   1 #  Si 52
    0.500    1.000    1.500   1 #  Si 53
    0.750    1.250    1.750   1 #  Si 54
    0.500    1.500    1.000   1 #  Si 55
    0.750    1.750    1.250   1 #  Si 56
    1.000    1.000    1.000   1 #  Si 57
    1.250    1.250    1.250   1 #  Si 58
    1.000    1.500    1.500   1 #  Si 59
    1.250    1.750    1.750   1 #  Si 60
    1.500    1.000    1.500   1 #  Si 61
    1.750    1.250    1.750   1 #  Si 62
    1.500    1.500    1.000   1 #  Si 63
    1.750    1.750    1.250   1 #  Si 64
    1.125    1.125    1.125   2 #  H  65
%endblock AtomicCoordinatesAndAtomicSpecies
************************** End of input data file *****************************

reinit: -----------------------------------------------------------------------
reinit: System Name: H in 64-atom silicon
reinit: -----------------------------------------------------------------------
reinit: System Label: sih                                                         
reinit: -----------------------------------------------------------------------

initatom: Reading input for the pseudopotentials and atomic orbitals ----------
 Species number:            1  Label: Si Atomic number:          14
 Species number:            2  Label: H Atomic number:           1
Ground state valence configuration:   3s02  3p02
Reading pseudopotential information in formatted form from Si.psf

Valence configuration for pseudopotential generation:
3s( 2.00) rc: 1.89
3p( 2.00) rc: 1.89
3d( 0.00) rc: 1.89
4f( 0.00) rc: 1.89
Ground state valence configuration:   1s01
Reading pseudopotential information in formatted form from H.psf

Valence configuration for pseudopotential generation:
1s( 1.00) rc: 1.25
2p( 0.00) rc: 1.25
3d( 0.00) rc: 1.25
4f( 0.00) rc: 1.25
For Si, standard SIESTA heuristics set lmxkb to 2
 (one more than the basis l, including polarization orbitals).
Use PS.lmax or PS.KBprojectors blocks to override.
For H, standard SIESTA heuristics set lmxkb to 1
 (one more than the basis l, including polarization orbitals).
Use PS.lmax or PS.KBprojectors blocks to override.

<basis_specs>
===============================================================================
Si                   Z=  14    Mass=  28.090        Charge= 0.17977+309
Lmxo=1 Lmxkb=2     BasisType=split      Semic=F
L=0  Nsemic=0  Cnfigmx=3
          n=1  nzeta=1  polorb=0
            splnorm:   0.15000    
               vcte:    0.0000    
               rinn:    0.0000    
                rcs:    0.0000    
            lambdas:    1.0000    
L=1  Nsemic=0  Cnfigmx=3
          n=1  nzeta=1  polorb=0
            splnorm:   0.15000    
               vcte:    0.0000    
               rinn:    0.0000    
                rcs:    0.0000    
            lambdas:    1.0000    
-------------------------------------------------------------------------------
L=0  Nkbl=1  erefs: 0.17977+309
L=1  Nkbl=1  erefs: 0.17977+309
L=2  Nkbl=1  erefs: 0.17977+309
===============================================================================
</basis_specs>

atom: Called for Si                    (Z =  14)

read_vps: Pseudopotential generation method:
read_vps: ATM3      Troullier-Martins                       
Total valence charge:    4.00000

xc_check: Exchange-correlation functional:
xc_check: Ceperley-Alder
V l=0 = -2*Zval/r beyond r=  2.5494
V l=1 = -2*Zval/r beyond r=  2.5494
V l=2 = -2*Zval/r beyond r=  2.5494
All V_l potentials equal beyond r=  1.8652
This should be close to max(r_c) in ps generation
All pots = -2*Zval/r beyond r=  2.5494
Using large-core scheme for Vlocal

atom: Estimated core radius    2.54944

atom: Including non-local core corrections could be a good idea
atom: Maximum radius for 4*pi*r*r*local-pseudopot. charge    2.85303
atom: Maximum radius for r*vlocal+2*Zval:    2.58151
GHOST: No ghost state for L =  0
GHOST: No ghost state for L =  1
GHOST: No ghost state for L =  2

KBgen: Kleinman-Bylander projectors: 
   l= 0   rc=  1.936440   el= -0.796617   Ekb=  4.661340   kbcos=  0.299756
   l= 1   rc=  1.936440   el= -0.307040   Ekb=  1.494238   kbcos=  0.301471
   l= 2   rc=  1.936440   el=  0.002313   Ekb= -2.808672   kbcos= -0.054903

KBgen: Total number of  Kleinman-Bylander projectors:    9
atom: -------------------------------------------------------------------------

atom: SANKEY-TYPE ORBITALS:

SPLIT: Orbitals with angular momentum L= 0

SPLIT: Basis orbitals for state 3s

SPLIT: PAO cut-off radius determined from an
SPLIT: energy shift=  0.022049 Ry

   izeta = 1
                 lambda =    1.000000
                     rc =    4.883716
                 energy =   -0.773554
                kinetic =    0.585471
    potential(screened) =   -1.359025
       potential(ionic) =   -3.840954

SPLIT: Orbitals with angular momentum L= 1

SPLIT: Basis orbitals for state 3p

SPLIT: PAO cut-off radius determined from an
SPLIT: energy shift=  0.022049 Ry

   izeta = 1
                 lambda =    1.000000
                     rc =    6.116033
                 energy =   -0.285742
                kinetic =    0.892202
    potential(screened) =   -1.177944
       potential(ionic) =   -3.446720
atom: Total number of Sankey-type orbitals:  4

atm_pop: Valence configuration (for local Pseudopot. screening):
 3s( 2.00)                                                            
 3p( 2.00)                                                            
Vna: chval, zval:    4.00000   4.00000

Vna:  Cut-off radius for the neutral-atom potential:   6.116033

atom: _________________________________________________________________________

<basis_specs>
===============================================================================
H                    Z=   1    Mass=  1.0100        Charge= 0.17977+309
Lmxo=0 Lmxkb=1     BasisType=split      Semic=F
L=0  Nsemic=0  Cnfigmx=1
          n=1  nzeta=1  polorb=0
            splnorm:   0.15000    
               vcte:    0.0000    
               rinn:    0.0000    
                rcs:    0.0000    
            lambdas:   0.80000    
-------------------------------------------------------------------------------
L=0  Nkbl=1  erefs: 0.17977+309
L=1  Nkbl=1  erefs: 0.17977+309
===============================================================================
</basis_specs>

atom: Called for H                     (Z =   1)

read_vps: Pseudopotential generation method:
read_vps: ATM3      Troullier-Martins                       
Total valence charge:    1.00000

xc_check: Exchange-correlation functional:
xc_check: Ceperley-Alder
V l=0 = -2*Zval/r beyond r=  1.2343
V l=1 = -2*Zval/r beyond r=  1.2189
All V_l potentials equal beyond r=  1.2343
This should be close to max(r_c) in ps generation
All pots = -2*Zval/r beyond r=  1.2343

VLOCAL1: 99.0% of the norm of Vloc inside     28.493 Ry
VLOCAL1: 99.9% of the norm of Vloc inside     64.935 Ry
atom: Maximum radius for 4*pi*r*r*local-pseudopot. charge    1.45251
atom: Maximum radius for r*vlocal+2*Zval:    1.21892
GHOST: No ghost state for L =  0
GHOST: No ghost state for L =  1

KBgen: Kleinman-Bylander projectors: 
   l= 0   rc=  1.364359   el= -0.467325   Ekb= -2.005361   kbcos= -0.336422
   l= 1   rc=  1.434438   el=  0.001430   Ekb= -0.501708   kbcos= -0.021697

KBgen: Total number of  Kleinman-Bylander projectors:    4
atom: -------------------------------------------------------------------------

atom: SANKEY-TYPE ORBITALS:

SPLIT: Orbitals with angular momentum L= 0

SPLIT: Basis orbitals for state 1s

SPLIT: PAO cut-off radius determined from an
SPLIT: energy shift=  0.022049 Ry

   izeta = 1
                 lambda =    0.800000
                     rc =    4.718242
                 energy =   -0.396561
                kinetic =    1.341628
    potential(screened) =   -1.738188
       potential(ionic) =   -2.295884
atom: Total number of Sankey-type orbitals:  1

atm_pop: Valence configuration (for local Pseudopot. screening):
 1s( 1.00)                                                            
Vna: chval, zval:    1.00000   1.00000

Vna:  Cut-off radius for the neutral-atom potential:   4.708991

atom: _________________________________________________________________________

prinput: Basis input ----------------------------------------------------------

PAO.BasisType split     

%block ChemicalSpeciesLabel
    1   14 Si                      # Species index, atomic number, species label
    2    1 H                       # Species index, atomic number, species label
%endblock ChemicalSpeciesLabel

%block PAO.Basis                 # Define Basis set
Si                    2                    # Species label, number of l-shells
 n=3   0   1                         # n, l, Nzeta 
   4.884   
   1.000   
 n=3   1   1                         # n, l, Nzeta 
   6.116   
   1.000   
H                     1                    # Species label, number of l-shells
 n=1   0   1                         # n, l, Nzeta 
   4.718   
   0.800   
%endblock PAO.Basis

prinput: ----------------------------------------------------------------------

coor:   Atomic-coordinates input format  =     Cartesian coordinates
coor:                                          (in units of alat)

siesta: Atomic coordinates (Bohr) and species
siesta:      0.00000   0.00000   0.00000  1        1
siesta:      2.56530   2.56530   2.56530  1        2
siesta:      0.00000   5.13061   5.13061  1        3
siesta:      2.56530   7.69591   7.69591  1        4
siesta:      5.13061   0.00000   5.13061  1        5
siesta:      7.69591   2.56530   7.69591  1        6
siesta:      5.13061   5.13061   0.00000  1        7
siesta:      7.69591   7.69591   2.56530  1        8
siesta:     10.26122   0.00000   0.00000  1        9
siesta:     12.82652   2.56530   2.56530  1       10
siesta:     10.26122   5.13061   5.13061  1       11
siesta:     12.82652   7.69591   7.69591  1       12
siesta:     15.39183   0.00000   5.13061  1       13
siesta:     17.95713   2.56530   7.69591  1       14
siesta:     15.39183   5.13061   0.00000  1       15
siesta:     17.95713   7.69591   2.56530  1       16
siesta:      0.00000  10.26122   0.00000  1       17
siesta:      2.56530  12.82652   2.56530  1       18
siesta:      0.00000  15.39183   5.13061  1       19
siesta:      2.56530  17.95713   7.69591  1       20
siesta:      5.13061  10.26122   5.13061  1       21
siesta:      7.69591  12.82652   7.69591  1       22
siesta:      5.13061  15.39183   0.00000  1       23
siesta:      7.69591  17.95713   2.56530  1       24
siesta:      0.00000   0.00000  10.26122  1       25
siesta:      2.56530   2.56530  12.82652  1       26
siesta:      0.00000   5.13061  15.39183  1       27
siesta:      2.56530   7.69591  17.95713  1       28
siesta:      5.13061   0.00000  15.39183  1       29
siesta:      7.69591   2.56530  17.95713  1       30
siesta:      5.13061   5.13061  10.26122  1       31
siesta:      7.69591   7.69591  12.82652  1       32
siesta:     10.26122  10.26122   0.00000  1       33
siesta:     12.82652  12.82652   2.56530  1       34
siesta:     10.26122  15.39183   5.13061  1       35
siesta:     12.82652  17.95713   7.69591  1       36
siesta:     15.39183  10.26122   5.13061  1       37
siesta:     17.95713  12.82652   7.69591  1       38
siesta:     15.39183  15.39183   0.00000  1       39
siesta:     17.95713  17.95713   2.56530  1       40
siesta:     10.26122   0.00000  10.26122  1       41
siesta:     12.82652   2.56530  12.82652  1       42
siesta:     10.26122   5.13061  15.39183  1       43
siesta:     12.82652   7.69591  17.95713  1       44
siesta:     15.39183   0.00000  15.39183  1       45
siesta:     17.95713   2.56530  17.95713  1       46
siesta:     15.39183   5.13061  10.26122  1       47
siesta:     17.95713   7.69591  12.82652  1       48
siesta:      0.00000  10.26122  10.26122  1       49
siesta:      2.56530  12.82652  12.82652  1       50
siesta:      0.00000  15.39183  15.39183  1       51
siesta:      2.56530  17.95713  17.95713  1       52
siesta:      5.13061  10.26122  15.39183  1       53
siesta:      7.69591  12.82652  17.95713  1       54
siesta:      5.13061  15.39183  10.26122  1       55
siesta:      7.69591  17.95713  12.82652  1       56
siesta:     10.26122  10.26122  10.26122  1       57
siesta:     12.82652  12.82652  12.82652  1       58
siesta:     10.26122  15.39183  15.39183  1       59
siesta:     12.82652  17.95713  17.95713  1       60
siesta:     15.39183  10.26122  15.39183  1       61
siesta:     17.95713  12.82652  17.95713  1       62
siesta:     15.39183  15.39183  10.26122  1       63
siesta:     17.95713  17.95713  12.82652  1       64
siesta:     11.54387  11.54387  11.54387  2       65

siesta: System type = bulk      

initatomlists: Number of atoms, orbitals, and projectors:     65   257   580

siesta: ******************** Simulation parameters ****************************
siesta:
siesta: The following are some of the parameters of the simulation.
siesta: A complete list of the parameters used, including default values,
siesta: can be found in file out.fdf
siesta:
redata: Non-Collinear-spin run           =     F
redata: SpinPolarized (Up/Down) run      =     F
redata: Number of spin components        =     1
redata: Long output                      =     F
redata: Number of Atomic Species         =        2
redata: Charge density info will appear in .RHO file
redata: Write Mulliken Pop.              =     NO
redata: Mesh Cutoff                      =    40.0000  Ry
redata: Net charge of the system         =     0.0000 |e|
redata: Max. number of SCF Iter          =       50
redata: Performing Pulay mixing using    =     4 iterations
redata: Mix DM in first SCF step ?       =     F
redata: Write Pulay info on disk?        =     F
redata: Discard 1st Pulay DM after  kick =     F
redata: New DM Mixing Weight             =     0.3000
redata: New DM Occupancy tolerance       = 0.000000000001
redata: No kicks to SCF
redata: DM Mixing Weight for Kicks       =     0.5000
redata: DM Tolerance for SCF             =     0.001000
redata: Require Energy convergence for SCF =     F
redata: DM Energy tolerance for SCF      =     0.000100 eV
redata: Require Harris convergence for SCF =     F
redata: DM Harris energy tolerance for SCF =     0.000100 eV
redata: Using Saved Data (generic)   =     F
redata: Use continuation files for DM    =     T
redata: Neglect nonoverlap interactions  =     F
redata: Method of Calculation            =     Diagonalization
redata: Divide and Conquer               =     T
redata: Electronic Temperature           =     0.0018  Ry
redata: Fix the spin of the system       =     F
redata: Dynamics option                  =     CG coord. optimization
redata: Variable cell                    =     F
redata: Use continuation files for CG    =     F
redata: Max atomic displ per move        =     0.1890  Bohr
redata: Maximum number of CG moves       =       50
redata: Force tolerance                  =     0.0016  Ry/Bohr
redata: ***********************************************************************
Total number of electrons:   257.000000
Total ionic charge:   257.000000
 Kpoints in:            1 . Kpoints trimmed:            1

siesta: k-grid: Number of k-points =     1
siesta: k-grid: Cutoff (effective) =     5.430 Ang
siesta: k-grid: Supercell and displacements
siesta: k-grid:    1   0   0      0.000
siesta: k-grid:    0   1   0      0.000
siesta: k-grid:    0   0   1      0.000

* Maximum dynamic memory allocated =     2 MB

siesta:                 ==============================
                            Begin CG move =      0
                        ==============================

outcell: Unit cell vectors (Ang):
       10.860000    0.000000    0.000000
        0.000000   10.860000    0.000000
        0.000000    0.000000   10.860000

outcell: Cell vector modules (Ang)   :   10.860000   10.860000   10.860000
outcell: Cell angles (23,13,12) (deg):     90.0000     90.0000     90.0000
outcell: Cell volume (Ang**3)        :   1280.8241
New_DM. Step:     1
Initializing Density Matrix...

InitMesh: MESH =    48 x    48 x    48 =      110592
InitMesh: Mesh cutoff (required, used) =    40.000    53.991 Ry

* Maximum dynamic memory allocated =    29 MB

stepf: Fermi-Dirac step function

siesta: Program's energy decomposition (eV):
siesta: Ebs     =     -2348.063610
siesta: Eions   =     12205.375277
siesta: Ena     =      3677.554544
siesta: Ekin    =      2591.199431
siesta: Enl     =      1150.368409
siesta: DEna    =        -0.000288
siesta: DUscf   =         0.000000
siesta: DUext   =         0.000000
siesta: Exc     =     -2083.290198
siesta: eta*DQ  =         0.000000
siesta: Emadel  =         0.000000
siesta: Emeta   =         0.000000
siesta: Emolmec =         0.000000
siesta: Ekinion =         0.000000
siesta: Eharris =     -6847.408502
siesta: Etot    =     -6869.543380
siesta: FreeEng =     -6869.543380

siesta: iscf   Eharris(eV)      E_KS(eV)   FreeEng(eV)   dDmax  Ef(eV)
siesta:    1    -6847.4085    -6869.5434    -6869.5434  1.0410 -2.0995
timer: Routine,Calls,Time,% = IterSCF        1       1.740  80.40
elaps: Routine,Calls,Wall,% = IterSCF        1       1.739  80.37
siesta:    2    -6848.5324    -6844.5900    -6844.6527  0.7386 -3.6120
siesta:    3    -6846.0156    -6845.8290    -6845.8638  0.1880 -2.2220
siesta:    4    -6845.5680    -6844.8997    -6844.9565  0.1452 -2.4521
siesta:    5    -6845.5613    -6844.9203    -6844.9550  0.1339 -2.4412
siesta:    6    -6845.5359    -6845.3183    -6845.3530  0.0248 -2.3668
siesta:    7    -6845.5353    -6845.5251    -6845.5602  0.0012 -2.3574
siesta:    8    -6845.5353    -6845.5481    -6845.5833  0.0009 -2.3582

siesta: E_KS(eV) =            -6845.5439

siesta: E_KS - E_eggbox =     -6845.5439

siesta: Atomic forces (eV/Ang):
----------------------------------------
   Tot   -0.000006   -0.000008    0.000000
----------------------------------------
   Max    9.571076
   Res    1.679953    sqrt( Sum f_i^2 / 3N )
----------------------------------------
   Max    9.571076    constrained

Stress-tensor-Voigt (kbar):      -77.67      -77.67      -77.67      -15.44      -15.44      -15.44
(Free)E + p*V (eV/cell)    -6783.4901
Target enthalpy (eV/cell)    -6845.5790

* Maximum dynamic memory allocated =    30 MB

siesta:                 ==============================
                            Begin CG move =      1
                        ==============================

outcell: Unit cell vectors (Ang):
       10.860000    0.000000    0.000000
        0.000000   10.860000    0.000000
        0.000000    0.000000   10.860000

outcell: Cell vector modules (Ang)   :   10.860000   10.860000   10.860000
outcell: Cell angles (23,13,12) (deg):     90.0000     90.0000     90.0000
outcell: Cell volume (Ang**3)        :   1280.8241
New_DM. Step:     2
Re-using DM from previous geometry...
Re-using DM without extrapolation (not allowed)
Density Matrix sparsity pattern changed.

siesta: iscf   Eharris(eV)      E_KS(eV)   FreeEng(eV)   dDmax  Ef(eV)
siesta:    1    -6847.7459    -6846.8924    -6846.9276  0.3087 -2.3150
siesta:    2    -6850.1570    -6846.8254    -6846.8605  0.4782 -3.7411
siesta:    3    -6847.5469    -6847.0219    -6847.0624  0.1169 -2.5361
siesta:    4    -6847.5463    -6847.1548    -6847.1895  0.0898 -2.5408
siesta:    5    -6847.5442    -6847.6537    -6847.6884  0.0136 -2.5134
siesta:    6    -6847.5437    -6847.5580    -6847.5926  0.0071 -2.5261
siesta:    7    -6847.5437    -6847.5672    -6847.6018  0.0018 -2.5265
siesta:    8    -6847.5437    -6847.5458    -6847.5804  0.0004 -2.5266

siesta: E_KS(eV) =            -6847.5443

siesta: Atomic forces (eV/Ang):
----------------------------------------
   Tot   -0.000010   -0.000001   -0.000001
----------------------------------------
   Max    6.926040
   Res    1.215962    sqrt( Sum f_i^2 / 3N )
----------------------------------------
   Max    6.926040    constrained

Stress-tensor-Voigt (kbar):      -75.10      -75.10      -75.10      -11.88      -11.88      -11.88
(Free)E + p*V (eV/cell)    -6787.5414
Target enthalpy (eV/cell)    -6847.5789

* Maximum dynamic memory allocated =    31 MB

siesta:                 ==============================
                            Begin CG move =      2
                        ==============================

outcell: Unit cell vectors (Ang):
       10.860000    0.000000    0.000000
        0.000000   10.860000    0.000000
        0.000000    0.000000   10.860000

outcell: Cell vector modules (Ang)   :   10.860000   10.860000   10.860000
outcell: Cell angles (23,13,12) (deg):     90.0000     90.0000     90.0000
outcell: Cell volume (Ang**3)        :   1280.8241
New_DM. Step:     3
Re-using DM from previous geometry...
Re-using DM without extrapolation (not allowed)
Density Matrix sparsity pattern changed.

siesta: iscf   Eharris(eV)      E_KS(eV)   FreeEng(eV)   dDmax  Ef(eV)
siesta:    1    -6849.9032    -6848.6160    -6848.6507  0.3260 -2.4834
siesta:    2    -6853.2815    -6848.6852    -6848.7199  0.5415 -3.8201
siesta:    3    -6849.6322    -6848.8119    -6848.8755  0.1426 -2.7550
siesta:    4    -6849.6267    -6849.0629    -6849.0976  0.0845 -2.7960
siesta:    5    -6849.6253    -6849.6201    -6849.6548  0.0056 -2.8111
siesta:    6    -6849.6249    -6849.6590    -6849.6936  0.0050 -2.8017
siesta:    7    -6849.6248    -6849.6427    -6849.6773  0.0011 -2.7951
siesta:    8    -6849.6248    -6849.6268    -6849.6615  0.0007 -2.7950

siesta: E_KS(eV) =            -6849.6252

siesta: Atomic forces (eV/Ang):
----------------------------------------
   Tot   -0.000021   -0.000009   -0.000002
----------------------------------------
   Max    3.843838
   Res    0.681413    sqrt( Sum f_i^2 / 3N )
----------------------------------------
   Max    3.843838    constrained

Stress-tensor-Voigt (kbar):      -72.87      -72.87      -72.87       -7.15       -7.15       -7.15
(Free)E + p*V (eV/cell)    -6791.4028
Target enthalpy (eV/cell)    -6849.6599

* Maximum dynamic memory allocated =    31 MB

siesta:                 ==============================
                            Begin CG move =      3
                        ==============================

outcell: Unit cell vectors (Ang):
       10.860000    0.000000    0.000000
        0.000000   10.860000    0.000000
        0.000000    0.000000   10.860000

outcell: Cell vector modules (Ang)   :   10.860000   10.860000   10.860000
outcell: Cell angles (23,13,12) (deg):     90.0000     90.0000     90.0000
outcell: Cell volume (Ang**3)        :   1280.8241
New_DM. Step:     4
Re-using DM from previous geometry...
Re-using DM without extrapolation (not allowed)
Density Matrix sparsity pattern changed.

siesta: iscf   Eharris(eV)      E_KS(eV)   FreeEng(eV)   dDmax  Ef(eV)
siesta:    1    -6851.0545    -6849.9903    -6850.0250  0.2390 -2.8896
siesta:    2    -6852.2813    -6850.5281    -6850.5627  0.3390 -3.8709
siesta:    3    -6850.9350    -6850.2705    -6850.3399  0.1070 -3.0362
siesta:    4    -6850.9221    -6850.5658    -6850.6004  0.0295 -3.0944
siesta:    5    -6850.9205    -6850.7823    -6850.8170  0.0073 -3.1105
siesta:    6    -6850.9204    -6850.8646    -6850.8993  0.0045 -3.1137
siesta:    7    -6850.9202    -6850.9212    -6850.9558  0.0016 -3.1297
siesta:    8    -6850.9202    -6850.9231    -6850.9578  0.0014 -3.1264
siesta:    9    -6850.9201    -6850.9208    -6850.9555  0.0008 -3.1273

siesta: E_KS(eV) =            -6850.9199

siesta: Atomic forces (eV/Ang):
----------------------------------------
   Tot   -0.000001   -0.000004   -0.000002
----------------------------------------
   Max    0.791290
   Res    0.241848    sqrt( Sum f_i^2 / 3N )
----------------------------------------
   Max    0.791290    constrained

Stress-tensor-Voigt (kbar):      -70.88      -70.88      -70.88       -1.48       -1.48       -1.48
(Free)E + p*V (eV/cell)    -6794.2949
Target enthalpy (eV/cell)    -6850.9546

* Maximum dynamic memory allocated =    32 MB

siesta:                 ==============================
                            Begin CG move =      4
                        ==============================

outcell: Unit cell vectors (Ang):
       10.860000    0.000000    0.000000
        0.000000   10.860000    0.000000
        0.000000    0.000000   10.860000

outcell: Cell vector modules (Ang)   :   10.860000   10.860000   10.860000
outcell: Cell angles (23,13,12) (deg):     90.0000     90.0000     90.0000
outcell: Cell volume (Ang**3)        :   1280.8241
New_DM. Step:     5
Re-using DM from previous geometry...
Re-using DM without extrapolation (not allowed)
Density Matrix sparsity pattern changed.

siesta: iscf   Eharris(eV)      E_KS(eV)   FreeEng(eV)   dDmax  Ef(eV)
siesta:    1    -6850.8262    -6850.6771    -6850.7118  0.0812 -3.4796
siesta:    2    -6850.9494    -6850.7511    -6850.7858  0.0564 -3.0890
siesta:    3    -6850.8043    -6850.7372    -6850.7718  0.0287 -3.3874
siesta:    4    -6850.8016    -6850.7748    -6850.8094  0.0069 -3.3470
siesta:    5    -6850.8013    -6850.7857    -6850.8203  0.0021 -3.3567
siesta:    6    -6850.8013    -6850.7921    -6850.8268  0.0006 -3.3575

siesta: E_KS(eV) =            -6850.7968

siesta: Atomic forces (eV/Ang):
----------------------------------------
   Tot   -0.000001   -0.000003   -0.000007
----------------------------------------
   Max    0.923428
   Res    0.325122    sqrt( Sum f_i^2 / 3N )
----------------------------------------
   Max    0.923428    constrained

Stress-tensor-Voigt (kbar):      -70.37      -70.37      -70.37        2.42        2.42        2.42
(Free)E + p*V (eV/cell)    -6794.5783
Target enthalpy (eV/cell)    -6850.8314

* Maximum dynamic memory allocated =    32 MB

siesta:                 ==============================
                            Begin CG move =      5
                        ==============================

outcell: Unit cell vectors (Ang):
       10.860000    0.000000    0.000000
        0.000000   10.860000    0.000000
        0.000000    0.000000   10.860000

outcell: Cell vector modules (Ang)   :   10.860000   10.860000   10.860000
outcell: Cell angles (23,13,12) (deg):     90.0000     90.0000     90.0000
outcell: Cell volume (Ang**3)        :   1280.8241
New_DM. Step:     6
Re-using DM from previous geometry...
Re-using DM without extrapolation (not allowed)
Density Matrix sparsity pattern changed.

siesta: iscf   Eharris(eV)      E_KS(eV)   FreeEng(eV)   dDmax  Ef(eV)
siesta:    1    -6851.0212    -6851.0781    -6851.1127  0.0319 -3.1166
siesta:    2    -6851.1901    -6850.9351    -6850.9698  0.0703 -3.5842
siesta:    3    -6850.9976    -6851.0211    -6851.0558  0.0202 -3.2292
siesta:    4    -6850.9971    -6850.9911    -6851.0258  0.0085 -3.2518
siesta:    5    -6850.9970    -6850.9909    -6851.0256  0.0026 -3.2435
siesta:    6    -6850.9969    -6850.9935    -6851.0281  0.0008 -3.2430

siesta: E_KS(eV) =            -6850.9952

siesta: Atomic forces (eV/Ang):
----------------------------------------
   Tot   -0.000009   -0.000007   -0.000005
----------------------------------------
   Max    0.773125
   Res    0.240536    sqrt( Sum f_i^2 / 3N )
----------------------------------------
   Max    0.773125    constrained

Stress-tensor-Voigt (kbar):      -70.48      -70.48      -70.48        0.39        0.39        0.39
(Free)E + p*V (eV/cell)    -6794.6884
Target enthalpy (eV/cell)    -6851.0299

cgvc: Finished line minimization    1.  Mean atomic displacement =    0.1024

* Maximum dynamic memory allocated =    32 MB

siesta:                 ==============================
                            Begin CG move =      6
                        ==============================

outcell: Unit cell vectors (Ang):
       10.860000    0.000000    0.000000
        0.000000   10.860000    0.000000
        0.000000    0.000000   10.860000

outcell: Cell vector modules (Ang)   :   10.860000   10.860000   10.860000
outcell: Cell angles (23,13,12) (deg):     90.0000     90.0000     90.0000
outcell: Cell volume (Ang**3)        :   1280.8241
New_DM. Step:     7
Re-using DM from previous geometry...
Re-using DM without extrapolation (not allowed)
Density Matrix sparsity pattern changed.

siesta: iscf   Eharris(eV)      E_KS(eV)   FreeEng(eV)   dDmax  Ef(eV)
siesta:    1    -6851.0380    -6851.2808    -6851.3155  0.2044 -3.3754
siesta:    2    -6852.4742    -6850.1362    -6850.1709  0.3280 -2.2728
siesta:    3    -6850.7550    -6850.9468    -6851.0278  0.0655 -3.0024
siesta:    4    -6850.7415    -6850.8447    -6850.8793  0.0345 -2.9569
siesta:    5    -6850.7381    -6850.6992    -6850.7338  0.0047 -2.9390
siesta:    6    -6850.7378    -6850.7085    -6850.7432  0.0017 -2.9446
siesta:    7    -6850.7377    -6850.7203    -6850.7550  0.0005 -2.9378

siesta: E_KS(eV) =            -6850.7276

siesta: Atomic forces (eV/Ang):
----------------------------------------
   Tot   -0.000007    0.000005    0.000000
----------------------------------------
   Max    1.073691
   Res    0.364645    sqrt( Sum f_i^2 / 3N )
----------------------------------------
   Max    1.073691    constrained

Stress-tensor-Voigt (kbar):      -71.04      -71.04      -71.04       -6.68       -6.68       -6.68
(Free)E + p*V (eV/cell)    -6793.9716
Target enthalpy (eV/cell)    -6850.7622

* Maximum dynamic memory allocated =    32 MB

siesta:                 ==============================
                            Begin CG move =      7
                        ==============================

outcell: Unit cell vectors (Ang):
       10.860000    0.000000    0.000000
        0.000000   10.860000    0.000000
        0.000000    0.000000   10.860000

outcell: Cell vector modules (Ang)   :   10.860000   10.860000   10.860000
outcell: Cell angles (23,13,12) (deg):     90.0000     90.0000     90.0000
outcell: Cell volume (Ang**3)        :   1280.8241
New_DM. Step:     8
Re-using DM from previous geometry...
Re-using DM without extrapolation (not allowed)
Density Matrix sparsity pattern changed.

siesta: iscf   Eharris(eV)      E_KS(eV)   FreeEng(eV)   dDmax  Ef(eV)
siesta:    1    -6851.3752    -6850.9697    -6851.0044  0.1232 -2.8581
siesta:    2    -6851.8937    -6851.0363    -6851.0710  0.1680 -3.7996
siesta:    3    -6851.2721    -6851.0683    -6851.1067  0.0287 -3.0886
siesta:    4    -6851.2700    -6851.1766    -6851.2113  0.0135 -3.1106
siesta:    5    -6851.2693    -6851.2805    -6851.3152  0.0034 -3.0961
siesta:    6    -6851.2693    -6851.2814    -6851.3160  0.0016 -3.0983
siesta:    7    -6851.2692    -6851.2732    -6851.3079  0.0002 -3.0972

siesta: E_KS(eV) =            -6851.2712

siesta: Atomic forces (eV/Ang):
----------------------------------------
   Tot   -0.000004   -0.000008   -0.000014
----------------------------------------
   Max    0.210252
   Res    0.103861    sqrt( Sum f_i^2 / 3N )
----------------------------------------
   Max    0.210252    constrained

Stress-tensor-Voigt (kbar):      -69.49      -69.49      -69.49       -3.05       -3.05       -3.05
(Free)E + p*V (eV/cell)    -6795.7542
Target enthalpy (eV/cell)    -6851.3059

cgvc: Finished line minimization    2.  Mean atomic displacement =    0.0461

* Maximum dynamic memory allocated =    32 MB

siesta:                 ==============================
                            Begin CG move =      8
                        ==============================

outcell: Unit cell vectors (Ang):
       10.860000    0.000000    0.000000
        0.000000   10.860000    0.000000
        0.000000    0.000000   10.860000

outcell: Cell vector modules (Ang)   :   10.860000   10.860000   10.860000
outcell: Cell angles (23,13,12) (deg):     90.0000     90.0000     90.0000
outcell: Cell volume (Ang**3)        :   1280.8241
New_DM. Step:     9
Re-using DM from previous geometry...
Re-using DM without extrapolation (not allowed)
Density Matrix sparsity pattern changed.

siesta: iscf   Eharris(eV)      E_KS(eV)   FreeEng(eV)   dDmax  Ef(eV)
siesta:    1    -6851.2667    -6851.3534    -6851.3880  0.0292 -3.1127
siesta:    2    -6851.4147    -6851.1473    -6851.1819  0.0473 -2.8397
siesta:    3    -6851.2261    -6851.2849    -6851.3196  0.0109 -3.0508
siesta:    4    -6851.2244    -6851.2495    -6851.2842  0.0043 -3.0439
siesta:    5    -6851.2239    -6851.2353    -6851.2700  0.0017 -3.0557
siesta:    6    -6851.2239    -6851.2302    -6851.2648  0.0008 -3.0537

siesta: E_KS(eV) =            -6851.2273

siesta: Atomic forces (eV/Ang):
----------------------------------------
   Tot    0.000008    0.000004   -0.000008
----------------------------------------
   Max    0.334382
   Res    0.158858    sqrt( Sum f_i^2 / 3N )
----------------------------------------
   Max    0.334382    constrained

Stress-tensor-Voigt (kbar):      -70.24      -70.24      -70.24       -3.48       -3.48       -3.48
(Free)E + p*V (eV/cell)    -6795.1086
Target enthalpy (eV/cell)    -6851.2620

* Maximum dynamic memory allocated =    32 MB

siesta:                 ==============================
                            Begin CG move =      9
                        ==============================

outcell: Unit cell vectors (Ang):
       10.860000    0.000000    0.000000
        0.000000   10.860000    0.000000
        0.000000    0.000000   10.860000

outcell: Cell vector modules (Ang)   :   10.860000   10.860000   10.860000
outcell: Cell angles (23,13,12) (deg):     90.0000     90.0000     90.0000
outcell: Cell volume (Ang**3)        :   1280.8241
New_DM. Step:    10
Re-using DM from previous geometry...
Re-using DM without extrapolation (not allowed)
Density Matrix sparsity pattern changed.

siesta: iscf   Eharris(eV)      E_KS(eV)   FreeEng(eV)   dDmax  Ef(eV)
siesta:    1    -6851.3333    -6851.2600    -6851.2947  0.0171 -3.0433
siesta:    2    -6851.3853    -6851.2914    -6851.3261  0.0264 -3.2195
siesta:    3    -6851.3191    -6851.2832    -6851.3179  0.0063 -3.0803
siesta:    4    -6851.3185    -6851.3118    -6851.3465  0.0023 -3.0820
siesta:    5    -6851.3184    -6851.3205    -6851.3551  0.0011 -3.0766
siesta:    6    -6851.3184    -6851.3204    -6851.3551  0.0004 -3.0783

siesta: E_KS(eV) =            -6851.3193

siesta: Atomic forces (eV/Ang):
----------------------------------------
   Tot    0.000007   -0.000006   -0.000003
----------------------------------------
   Max    0.109637
   Res    0.053881    sqrt( Sum f_i^2 / 3N )
----------------------------------------
   Max    0.109637    constrained

Stress-tensor-Voigt (kbar):      -69.81      -69.81      -69.81       -3.14       -3.14       -3.14
(Free)E + p*V (eV/cell)    -6795.5473
Target enthalpy (eV/cell)    -6851.3540

cgvc: Finished line minimization    3.  Mean atomic displacement =    0.0189

* Maximum dynamic memory allocated =    32 MB

siesta:                 ==============================
                            Begin CG move =     10
                        ==============================

outcell: Unit cell vectors (Ang):
       10.860000    0.000000    0.000000
        0.000000   10.860000    0.000000
        0.000000    0.000000   10.860000

outcell: Cell vector modules (Ang)   :   10.860000   10.860000   10.860000
outcell: Cell angles (23,13,12) (deg):     90.0000     90.0000     90.0000
outcell: Cell volume (Ang**3)        :   1280.8241
New_DM. Step:    11
Re-using DM from previous geometry...
Re-using DM without extrapolation (not allowed)
Density Matrix sparsity pattern changed.

siesta: iscf   Eharris(eV)      E_KS(eV)   FreeEng(eV)   dDmax  Ef(eV)
siesta:    1    -6851.3266    -6851.3146    -6851.3492  0.0232 -3.0667
siesta:    2    -6851.3334    -6851.3074    -6851.3421  0.0211 -3.1440
siesta:    3    -6851.3179    -6851.3148    -6851.3495  0.0041 -3.0991
siesta:    4    -6851.3178    -6851.3168    -6851.3514  0.0011 -3.0938
siesta:    5    -6851.3177    -6851.3173    -6851.3520  0.0006 -3.0970

siesta: E_KS(eV) =            -6851.3175

siesta: Atomic forces (eV/Ang):
----------------------------------------
   Tot   -0.000001   -0.000009   -0.000009
----------------------------------------
   Max    0.204098
   Res    0.070852    sqrt( Sum f_i^2 / 3N )
----------------------------------------
   Max    0.204098    constrained

Stress-tensor-Voigt (kbar):      -69.66      -69.66      -69.66       -1.99       -1.99       -1.99
(Free)E + p*V (eV/cell)    -6795.6677
Target enthalpy (eV/cell)    -6851.3521

* Maximum dynamic memory allocated =    32 MB

siesta:                 ==============================
                            Begin CG move =     11
                        ==============================

outcell: Unit cell vectors (Ang):
       10.860000    0.000000    0.000000
        0.000000   10.860000    0.000000
        0.000000    0.000000   10.860000

outcell: Cell vector modules (Ang)   :   10.860000   10.860000   10.860000
outcell: Cell angles (23,13,12) (deg):     90.0000     90.0000     90.0000
outcell: Cell volume (Ang**3)        :   1280.8241
New_DM. Step:    12
Re-using DM from previous geometry...
Re-using DM without extrapolation (not allowed)
Density Matrix sparsity pattern changed.

siesta: iscf   Eharris(eV)      E_KS(eV)   FreeEng(eV)   dDmax  Ef(eV)
siesta:    1    -6851.3356    -6851.3349    -6851.3695  0.0115 -3.1013
siesta:    2    -6851.3373    -6851.3306    -6851.3652  0.0106 -3.0632
siesta:    3    -6851.3334    -6851.3336    -6851.3683  0.0021 -3.0853
siesta:    4    -6851.3333    -6851.3332    -6851.3678  0.0006 -3.0878

siesta: E_KS(eV) =            -6851.3332

siesta: Atomic forces (eV/Ang):
----------------------------------------
   Tot   -0.000007   -0.000010   -0.000014
----------------------------------------
   Max    0.051335
   Res    0.025262    sqrt( Sum f_i^2 / 3N )
----------------------------------------
   Max    0.051335    constrained

Stress-tensor-Voigt (kbar):      -70.16      -70.16      -70.16       -2.63       -2.63       -2.63
(Free)E + p*V (eV/cell)    -6795.2808
Target enthalpy (eV/cell)    -6851.3679

cgvc: Finished line minimization    4.  Mean atomic displacement =    0.0094

* Maximum dynamic memory allocated =    32 MB

siesta:                 ==============================
                            Begin CG move =     12
                        ==============================

outcell: Unit cell vectors (Ang):
       10.860000    0.000000    0.000000
        0.000000   10.860000    0.000000
        0.000000    0.000000   10.860000

outcell: Cell vector modules (Ang)   :   10.860000   10.860000   10.860000
outcell: Cell angles (23,13,12) (deg):     90.0000     90.0000     90.0000
outcell: Cell volume (Ang**3)        :   1280.8241
New_DM. Step:    13
Re-using DM from previous geometry...
Re-using DM without extrapolation (not allowed)
Density Matrix sparsity pattern changed.

siesta: iscf   Eharris(eV)      E_KS(eV)   FreeEng(eV)   dDmax  Ef(eV)
siesta:    1    -6851.3360    -6851.3521    -6851.3868  0.0042 -3.0693
siesta:    2    -6851.3383    -6851.3319    -6851.3665  0.0076 -3.1031
siesta:    3    -6851.3342    -6851.3414    -6851.3761  0.0018 -3.0844
siesta:    4    -6851.3342    -6851.3352    -6851.3698  0.0004 -3.0826

siesta: E_KS(eV) =            -6851.3342

siesta: Atomic forces (eV/Ang):
----------------------------------------
   Tot   -0.000014   -0.000020   -0.000020
----------------------------------------
   Max    0.080200
   Res    0.029459    sqrt( Sum f_i^2 / 3N )
----------------------------------------
   Max    0.080200    constrained

Stress-tensor-Voigt (kbar):      -69.91      -69.91      -69.91       -2.85       -2.85       -2.85
(Free)E + p*V (eV/cell)    -6795.4818
Target enthalpy (eV/cell)    -6851.3688

* Maximum dynamic memory allocated =    32 MB

siesta:                 ==============================
                            Begin CG move =     13
                        ==============================

outcell: Unit cell vectors (Ang):
       10.860000    0.000000    0.000000
        0.000000   10.860000    0.000000
        0.000000    0.000000   10.860000

outcell: Cell vector modules (Ang)   :   10.860000   10.860000   10.860000
outcell: Cell angles (23,13,12) (deg):     90.0000     90.0000     90.0000
outcell: Cell volume (Ang**3)        :   1280.8241
New_DM. Step:    14
Re-using DM from previous geometry...
Re-using DM without extrapolation (not allowed)
Density Matrix sparsity pattern changed.

siesta: iscf   Eharris(eV)      E_KS(eV)   FreeEng(eV)   dDmax  Ef(eV)
siesta:    1    -6851.3368    -6851.3287    -6851.3634  0.0019 -3.0919
siesta:    2    -6851.3372    -6851.3360    -6851.3706  0.0034 -3.0763
siesta:    3    -6851.3365    -6851.3330    -6851.3677  0.0008 -3.0852

siesta: E_KS(eV) =            -6851.3359

siesta: Atomic forces (eV/Ang):
----------------------------------------
   Tot   -0.000006   -0.000012   -0.000016
----------------------------------------
   Max    0.032517
   Res    0.014420    sqrt( Sum f_i^2 / 3N )
----------------------------------------
   Max    0.032517    constrained

Stress-tensor-Voigt (kbar):      -69.77      -69.77      -69.77       -2.82       -2.82       -2.82
(Free)E + p*V (eV/cell)    -6795.5952
Target enthalpy (eV/cell)    -6851.3705

* Maximum dynamic memory allocated =    32 MB

outcoor: Relaxed atomic coordinates (scaled):               
   -0.00034598   -0.00034600   -0.00034600   1       1  Si
    0.25034598    0.25034597    0.25034596   1       2  Si
    0.00023558    0.50094579    0.50094579   1       3  Si
    0.25173056    0.75040299    0.75040300   1       4  Si
    0.50094579    0.00023558    0.50094578   1       5  Si
    0.75040300    0.25173055    0.75040301   1       6  Si
    0.50094580    0.50094579    0.00023559   1       7  Si
    0.75040300    0.75040300    0.25173055   1       8  Si
    1.00041392    0.00145869    0.00145868   1       9  Si
    1.24958612    0.24854132    0.24854131   1      10  Si
    1.00021711    0.49633364    0.49633364   1      11  Si
    1.25576826    0.74031758    0.74031758   1      12  Si
    1.50000195    0.00094717    0.49881292   1      13  Si
    1.75118710    0.24905285    0.74999808   1      14  Si
    1.50000196    0.49881291    0.00094716   1      15  Si
    1.75118710    0.74999806    0.24905286   1      16  Si
    0.00145869    1.00041388    0.00145869   1      17  Si
    0.24854132    1.24958610    0.24854133   1      18  Si
    0.00094715    1.50000194    0.49881291   1      19  Si
    0.24905284    1.75118709    0.74999806   1      20  Si
    0.49633365    1.00021710    0.49633365   1      21  Si
    0.74031760    1.25576827    0.74031760   1      22  Si
    0.49881292    1.50000193    0.00094718   1      23  Si
    0.74999807    1.75118710    0.24905284   1      24  Si
    0.00145870    0.00145868    1.00041389   1      25  Si
    0.24854132    0.24854134    1.24958609   1      26  Si
    0.00094716    0.49881291    1.50000194   1      27  Si
    0.24905284    0.74999807    1.75118709   1      28  Si
    0.49881291    0.00094718    1.50000193   1      29  Si
    0.74999807    0.24905284    1.75118710   1      30  Si
    0.49633366    0.49633364    1.00021710   1      31  Si
    0.74031760    0.74031759    1.25576826   1      32  Si
    0.99971220    0.99971218    0.00133037   1      33  Si
    1.25028777    1.25028778    0.24866964   1      34  Si
    1.00153191    1.50114179    0.49776400   1      35  Si
    1.24846814    1.75223603    0.74885821   1      36  Si
    1.50114177    1.00153191    0.49776398   1      37  Si
    1.75223602    1.24846812    0.74885821   1      38  Si
    1.49959697    1.49959698   -0.00173060   1      39  Si
    1.74905419    1.74905421    0.24976440   1      40  Si
    0.99971218    0.00133036    0.99971218   1      41  Si
    1.25028777    0.24866962    1.25028777   1      42  Si
    1.00153191    0.49776398    1.50114177   1      43  Si
    1.24846814    0.74885820    1.75223601   1      44  Si
    1.49959697   -0.00173058    1.49959697   1      45  Si
    1.74905420    0.24976440    1.74905420   1      46  Si
    1.50114177    0.49776399    1.00153189   1      47  Si
    1.75223601    0.74885821    1.24846811   1      48  Si
    0.00133036    0.99971217    0.99971219   1      49  Si
    0.24866960    1.25028777    1.25028779   1      50  Si
   -0.00173058    1.49959696    1.49959697   1      51  Si
    0.24976441    1.74905420    1.74905420   1      52  Si
    0.49776399    1.00153190    1.50114178   1      53  Si
    0.74885822    1.24846811    1.75223602   1      54  Si
    0.49776398    1.50114177    1.00153191   1      55  Si
    0.74885820    1.75223602    1.24846812   1      56  Si
    0.95149872    0.95149872    0.95149871   1      57  Si
    1.29850121    1.29850120    1.29850120   1      58  Si
    0.99423172    1.50968239    1.50968237   1      59  Si
    1.24978283    1.75366635    1.75366633   1      60  Si
    1.50968238    0.99423174    1.50968239   1      61  Si
    1.75366636    1.24978284    1.75366638   1      62  Si
    1.50968239    1.50968239    0.99423174   1      63  Si
    1.75366635    1.75366637    1.24978285   1      64  Si
    1.12499999    1.12499998    1.12499998   2      65  H

siesta: Program's energy decomposition (eV):
siesta: Ebs     =     -2384.375021
siesta: Eions   =     12205.375277
siesta: Ena     =      3675.791967
siesta: Ekin    =      2573.419336
siesta: Enl     =       951.657058
siesta: DEna    =       213.822278
siesta: DUscf   =         5.345310
siesta: DUext   =         0.000000
siesta: Exc     =     -2065.996550
siesta: eta*DQ  =         0.000000
siesta: Emadel  =         0.000000
siesta: Emeta   =         0.000000
siesta: Emolmec =         0.000000
siesta: Ekinion =         0.000000
siesta: Eharris =     -6851.336467
siesta: Etot    =     -6851.335877
siesta: FreeEng =     -6851.370534

siesta: Final energy (eV):
siesta:  Band Struct. =   -2384.375021
siesta:       Kinetic =    2573.419336
siesta:       Hartree =     405.716358
siesta:    Ext. field =       0.000000
siesta:   Exch.-corr. =   -2065.996550
siesta:  Ion-electron =   -3075.621336
siesta:       Ion-ion =   -4688.853685
siesta:       Ekinion =       0.000000
siesta:         Total =   -6851.335877

siesta: Stress tensor (static) (eV/Ang**3):
siesta:    -0.043546   -0.001762   -0.001762
siesta:    -0.001762   -0.043546   -0.001762
siesta:    -0.001762   -0.001762   -0.043546

siesta: Cell volume =       1280.824056 Ang**3

siesta: Pressure (static):
siesta:                Solid            Molecule  Units
siesta:           0.00047428          0.00047129  Ry/Bohr**3
siesta:           0.04354645          0.04327182  eV/Ang**3
siesta:          69.76985115         69.32984175  kBar
(Free)E+ p_basis*V_orbitals  =       -6834.168236
(Free)Eharris+ p_basis*V_orbitals  =       -6834.171676

* Maximum dynamic memory allocated : Node    0 =    32 MB

* Maximum memory occured during init_pulay_arrrays            

timer: CPU execution times:
timer:  Routine       Calls   Time/call    Tot.time        %
timer:  siesta            1      99.613      99.613   100.00
timer:  Setup             1       0.306       0.306     0.31
timer:  bands             1       0.000       0.000     0.00
timer:  writewave         1       0.001       0.001     0.00
timer:  KSV_init          1       0.000       0.000     0.00
timer:  IterMD           14       7.092      99.291    99.68
timer:  hsparse          14       0.062       0.869     0.87
timer:  overlap          14       0.022       0.312     0.31
timer:  IterSCF          87       0.811      70.527    70.80
timer:  kinefsm          28       0.026       0.726     0.73
timer:  nlefsm           28       0.259       7.242     7.27
timer:  DHSCF           101       0.816      82.441    82.76
timer:  DHSCF1            1       0.014       0.014     0.01
timer:  DHSCF2           14       0.790      11.065    11.11
timer:  REORD           634       0.000       0.184     0.18
timer:  POISON          115       0.014       1.664     1.67
timer:  DHSCF3          101       0.557      56.233    56.45
timer:  rhoofd          101       0.250      25.233    25.33
timer:  cellXC          101       0.054       5.503     5.52
timer:  vmat            101       0.233      23.539    23.63
timer:  MolMec           28       0.000       0.001     0.00
timer:  diagon           87       0.061       5.294     5.31
timer:  r-eigvec         87       0.039       3.419     3.43
timer:  r-buildHS        87       0.001       0.051     0.05
timer:  rdiag            87       0.039       3.368     3.38
timer:  rdiag1           87       0.001       0.106     0.11
timer:  rdiag2           87       0.004       0.358     0.36
timer:  rdiag3           87       0.031       2.654     2.66
timer:  rdiag4           87       0.003       0.221     0.22
timer:  r-buildD         87       0.021       1.823     1.83
timer:  DHSCF4           14       1.076      15.071    15.13
timer:  dfscf            14       0.851      11.915    11.96
timer:  overfsm          14       0.026       0.357     0.36
timer:  optical           1       0.000       0.000     0.00
  

elaps: ELAPSED times:
elaps:  Routine       Calls   Time/call    Tot.time        %
elaps:  siesta            1      99.699      99.699   100.00
elaps:  Setup             1       0.307       0.307     0.31
elaps:  bands             1       0.000       0.000     0.00
elaps:  writewave         1       0.001       0.001     0.00
elaps:  KSV_init          1       0.000       0.000     0.00
elaps:  IterMD           14       7.098      99.376    99.68
elaps:  hsparse          14       0.062       0.869     0.87
elaps:  overlap          14       0.022       0.311     0.31
elaps:  IterSCF          87       0.812      70.610    70.82
elaps:  kinefsm          28       0.026       0.726     0.73
elaps:  nlefsm           28       0.259       7.242     7.26
elaps:  DHSCF           101       0.817      82.511    82.76
elaps:  DHSCF1            1       0.014       0.014     0.01
elaps:  DHSCF2           14       0.790      11.063    11.10
elaps:  REORD           634       0.000       0.183     0.18
elaps:  POISON          115       0.014       1.665     1.67
elaps:  DHSCF3          101       0.557      56.305    56.47
elaps:  rhoofd          101       0.250      25.300    25.38
elaps:  cellXC          101       0.054       5.504     5.52
elaps:  vmat            101       0.233      23.545    23.62
elaps:  MolMec           28       0.000       0.000     0.00
elaps:  diagon           87       0.061       5.301     5.32
elaps:  r-eigvec         87       0.039       3.425     3.44
elaps:  r-buildHS        87       0.001       0.052     0.05
elaps:  rdiag            87       0.039       3.372     3.38
elaps:  rdiag1           87       0.001       0.108     0.11
elaps:  rdiag2           87       0.004       0.359     0.36
elaps:  rdiag3           87       0.031       2.655     2.66
elaps:  rdiag4           87       0.003       0.221     0.22
elaps:  r-buildD         87       0.021       1.825     1.83
elaps:  DHSCF4           14       1.077      15.072    15.12
elaps:  dfscf            14       0.851      11.917    11.95
elaps:  overfsm          14       0.026       0.357     0.36
elaps:  optical           1       0.000       0.000     0.00
  
>> End of run:  10-JUN-2011  14:42:09
