Siesta Version:                                        siesta-trunk-300
Architecture  : nano-intel-mpi
Compiler flags: /opt/intel/impi/3.1/bin64/mpiifort -w  -O3 -mp
PARALLEL version
NetCDF support

* Running on    4 nodes in parallel
>> Start of run:  29-SEP-2009  17:18:56

                           ***********************       
                           *  WELCOME TO SIESTA  *       
                           ***********************       

reinit: Reading from standard input
************************** Dump of input data file ****************************
# -----------------------------------------------------------------------------
# FDF for interstitial H in a cubic c-Si supercell with 64 atoms
#
# E. Artacho, April 1999
# -----------------------------------------------------------------------------
SystemName          H in 64-atom silicon
SystemLabel         sih
NumberOfAtoms       65
NumberOfSpecies     2
%block ChemicalSpeciesLabel
 1  14  Si
 2   1  H
%endblock ChemicalSpeciesLabel
PAO.BasisSize       SZ
PAO.EnergyShift     300 meV
%block PAO.Basis
  H  1
  0  1
  0.
  0.8
%endblock PAO.Basis
LatticeConstant     5.430 Ang
%block LatticeVectors
  2.000  0.000  0.000
  0.000  2.000  0.000
  0.000  0.000  2.000
%endblock LatticeVectors
MeshCutoff          40.0 Ry
MaxSCFIterations    50
DM.MixingWeight      0.3
DM.NumberPulay       4
DM.Tolerance         1.d-3
DM.UseSaveDM
SolutionMethod       diagon
ElectronicTemperature  25 meV
MD.TypeOfRun         cg
MD.NumCGsteps        50
MD.MaxCGDispl         0.1  Ang
MD.MaxForceTol        0.04 eV/Ang
AtomicCoordinatesFormat  ScaledCartesian
%block AtomicCoordinatesAndAtomicSpecies
    0.000    0.000    0.000   1 #  Si  1
    0.250    0.250    0.250   1 #  Si  2
    0.000    0.500    0.500   1 #  Si  3
    0.250    0.750    0.750   1 #  Si  4
    0.500    0.000    0.500   1 #  Si  5
    0.750    0.250    0.750   1 #  Si  6
    0.500    0.500    0.000   1 #  Si  7
    0.750    0.750    0.250   1 #  Si  8
    1.000    0.000    0.000   1 #  Si  9
    1.250    0.250    0.250   1 #  Si 10
    1.000    0.500    0.500   1 #  Si 11
    1.250    0.750    0.750   1 #  Si 12
    1.500    0.000    0.500   1 #  Si 13
    1.750    0.250    0.750   1 #  Si 14
    1.500    0.500    0.000   1 #  Si 15
    1.750    0.750    0.250   1 #  Si 16
    0.000    1.000    0.000   1 #  Si 17
    0.250    1.250    0.250   1 #  Si 18
    0.000    1.500    0.500   1 #  Si 19
    0.250    1.750    0.750   1 #  Si 20
    0.500    1.000    0.500   1 #  Si 21
    0.750    1.250    0.750   1 #  Si 22
    0.500    1.500    0.000   1 #  Si 23
    0.750    1.750    0.250   1 #  Si 24
    0.000    0.000    1.000   1 #  Si 25
    0.250    0.250    1.250   1 #  Si 26
    0.000    0.500    1.500   1 #  Si 27
    0.250    0.750    1.750   1 #  Si 28
    0.500    0.000    1.500   1 #  Si 29
    0.750    0.250    1.750   1 #  Si 30
    0.500    0.500    1.000   1 #  Si 31
    0.750    0.750    1.250   1 #  Si 32
    1.000    1.000    0.000   1 #  Si 33
    1.250    1.250    0.250   1 #  Si 34
    1.000    1.500    0.500   1 #  Si 35
    1.250    1.750    0.750   1 #  Si 36
    1.500    1.000    0.500   1 #  Si 37
    1.750    1.250    0.750   1 #  Si 38
    1.500    1.500    0.000   1 #  Si 39
    1.750    1.750    0.250   1 #  Si 40
    1.000    0.000    1.000   1 #  Si 41
    1.250    0.250    1.250   1 #  Si 42
    1.000    0.500    1.500   1 #  Si 43
    1.250    0.750    1.750   1 #  Si 44
    1.500    0.000    1.500   1 #  Si 45
    1.750    0.250    1.750   1 #  Si 46
    1.500    0.500    1.000   1 #  Si 47
    1.750    0.750    1.250   1 #  Si 48
    0.000    1.000    1.000   1 #  Si 49
    0.250    1.250    1.250   1 #  Si 50
    0.000    1.500    1.500   1 #  Si 51
    0.250    1.750    1.750   1 #  Si 52
    0.500    1.000    1.500   1 #  Si 53
    0.750    1.250    1.750   1 #  Si 54
    0.500    1.500    1.000   1 #  Si 55
    0.750    1.750    1.250   1 #  Si 56
    1.000    1.000    1.000   1 #  Si 57
    1.250    1.250    1.250   1 #  Si 58
    1.000    1.500    1.500   1 #  Si 59
    1.250    1.750    1.750   1 #  Si 60
    1.500    1.000    1.500   1 #  Si 61
    1.750    1.250    1.750   1 #  Si 62
    1.500    1.500    1.000   1 #  Si 63
    1.750    1.750    1.250   1 #  Si 64
    1.125    1.125    1.125   2 #  H  65
%endblock AtomicCoordinatesAndAtomicSpecies
************************** End of input data file *****************************

reinit: -----------------------------------------------------------------------
reinit: System Name: H in 64-atom silicon
reinit: -----------------------------------------------------------------------
reinit: System Label: sih                                                         
reinit: -----------------------------------------------------------------------

initatom: Reading input for the pseudopotentials and atomic orbitals ----------
 Species number:            1  Label: Si Atomic number:          14
 Species number:            2  Label: H Atomic number:           1
Ground state valence configuration:   3s02  3p02
Reading pseudopotential information in formatted form from Si.psf

Valence configuration for pseudopotential generation:
3s( 2.00) rc: 1.89
3p( 2.00) rc: 1.89
3d( 0.00) rc: 1.89
4f( 0.00) rc: 1.89
Ground state valence configuration:   1s01
Reading pseudopotential information in formatted form from H.psf

Valence configuration for pseudopotential generation:
1s( 1.00) rc: 1.25
2p( 0.00) rc: 1.25
3d( 0.00) rc: 1.25
4f( 0.00) rc: 1.25
For Si, standard SIESTA heuristics set lmxkb to 2
 (one more than the basis l, including polarization orbitals).
Use PS.lmax or PS.KBprojectors blocks to override.
For H, standard SIESTA heuristics set lmxkb to 1
 (one more than the basis l, including polarization orbitals).
Use PS.lmax or PS.KBprojectors blocks to override.

<basis_specs>
===============================================================================
Si                   Z=  14    Mass=  28.090        Charge= 0.17977+309
Lmxo=1 Lmxkb=2     BasisType=split      Semic=F
L=0  Nsemic=0  Cnfigmx=3
          n=1  nzeta=1  polorb=0
            splnorm:   0.15000    
               vcte:    0.0000    
               rinn:    0.0000    
                rcs:    0.0000    
            lambdas:    1.0000    
L=1  Nsemic=0  Cnfigmx=3
          n=1  nzeta=1  polorb=0
            splnorm:   0.15000    
               vcte:    0.0000    
               rinn:    0.0000    
                rcs:    0.0000    
            lambdas:    1.0000    
-------------------------------------------------------------------------------
L=0  Nkbl=1  erefs: 0.17977+309
L=1  Nkbl=1  erefs: 0.17977+309
L=2  Nkbl=1  erefs: 0.17977+309
===============================================================================
</basis_specs>

atom: Called for Si                    (Z =  14)

read_vps: Pseudopotential generation method:
read_vps: ATM3      Troullier-Martins                       
Total valence charge:    4.00000

xc_check: Exchange-correlation functional:
xc_check: Ceperley-Alder
V l=0 = -2*Zval/r beyond r=  2.5494
V l=1 = -2*Zval/r beyond r=  2.5494
V l=2 = -2*Zval/r beyond r=  2.5494
All V_l potentials equal beyond r=  1.8652
This should be close to max(r_c) in ps generation
All pots = -2*Zval/r beyond r=  2.5494
Using large-core scheme for Vlocal

atom: Estimated core radius    2.54944

atom: Including non-local core corrections could be a good idea
atom: Maximum radius for 4*pi*r*r*local-pseudopot. charge    2.85303
atom: Maximum radius for r*vlocal+2*Zval:    2.58151
GHOST: No ghost state for L =  0
GHOST: No ghost state for L =  1
GHOST: No ghost state for L =  2

KBgen: Kleinman-Bylander projectors: 
   l= 0   rc=  1.936440   el= -0.796617   Ekb=  4.661340   kbcos=  0.299756
   l= 1   rc=  1.936440   el= -0.307040   Ekb=  1.494238   kbcos=  0.301471
   l= 2   rc=  1.936440   el=  0.002313   Ekb= -2.808672   kbcos= -0.054903

KBgen: Total number of  Kleinman-Bylander projectors:    9
atom: -------------------------------------------------------------------------

atom: SANKEY-TYPE ORBITALS:

SPLIT: Orbitals with angular momentum L= 0

SPLIT: Basis orbitals for state 3s

SPLIT: PAO cut-off radius determined from an
SPLIT: energy shift=  0.022049 Ry

   izeta = 1
                 lambda =    1.000000
                     rc =    4.883716
                 energy =   -0.773554
                kinetic =    0.585471
    potential(screened) =   -1.359025
       potential(ionic) =   -3.840954

SPLIT: Orbitals with angular momentum L= 1

SPLIT: Basis orbitals for state 3p

SPLIT: PAO cut-off radius determined from an
SPLIT: energy shift=  0.022049 Ry

   izeta = 1
                 lambda =    1.000000
                     rc =    6.116033
                 energy =   -0.285742
                kinetic =    0.892202
    potential(screened) =   -1.177944
       potential(ionic) =   -3.446720
atom: Total number of Sankey-type orbitals:  4

atm_pop: Valence configuration (for local Pseudopot. screening):
 3s( 2.00)                                                            
 3p( 2.00)                                                            
Vna: chval, zval:    4.00000   4.00000

Vna:  Cut-off radius for the neutral-atom potential:   6.116033

atom: _________________________________________________________________________

<basis_specs>
===============================================================================
H                    Z=   1    Mass=  1.0100        Charge= 0.17977+309
Lmxo=0 Lmxkb=1     BasisType=split      Semic=F
L=0  Nsemic=0  Cnfigmx=1
          n=1  nzeta=1  polorb=0
            splnorm:   0.15000    
               vcte:    0.0000    
               rinn:    0.0000    
                rcs:    0.0000    
            lambdas:   0.80000    
-------------------------------------------------------------------------------
L=0  Nkbl=1  erefs: 0.17977+309
L=1  Nkbl=1  erefs: 0.17977+309
===============================================================================
</basis_specs>

atom: Called for H                     (Z =   1)

read_vps: Pseudopotential generation method:
read_vps: ATM3      Troullier-Martins                       
Total valence charge:    1.00000

xc_check: Exchange-correlation functional:
xc_check: Ceperley-Alder
V l=0 = -2*Zval/r beyond r=  1.2343
V l=1 = -2*Zval/r beyond r=  1.2189
All V_l potentials equal beyond r=  1.2343
This should be close to max(r_c) in ps generation
All pots = -2*Zval/r beyond r=  1.2343

VLOCAL1: 99.0% of the norm of Vloc inside     28.493 Ry
VLOCAL1: 99.9% of the norm of Vloc inside     64.935 Ry
atom: Maximum radius for 4*pi*r*r*local-pseudopot. charge    1.45251
atom: Maximum radius for r*vlocal+2*Zval:    1.21892
GHOST: No ghost state for L =  0
GHOST: No ghost state for L =  1

KBgen: Kleinman-Bylander projectors: 
   l= 0   rc=  1.364359   el= -0.467325   Ekb= -2.005361   kbcos= -0.336422
   l= 1   rc=  1.434438   el=  0.001430   Ekb= -0.501708   kbcos= -0.021697

KBgen: Total number of  Kleinman-Bylander projectors:    4
atom: -------------------------------------------------------------------------

atom: SANKEY-TYPE ORBITALS:

SPLIT: Orbitals with angular momentum L= 0

SPLIT: Basis orbitals for state 1s

SPLIT: PAO cut-off radius determined from an
SPLIT: energy shift=  0.022049 Ry

   izeta = 1
                 lambda =    0.800000
                     rc =    4.718242
                 energy =   -0.396561
                kinetic =    1.341628
    potential(screened) =   -1.738188
       potential(ionic) =   -2.295884
atom: Total number of Sankey-type orbitals:  1

atm_pop: Valence configuration (for local Pseudopot. screening):
 1s( 1.00)                                                            
Vna: chval, zval:    1.00000   1.00000

Vna:  Cut-off radius for the neutral-atom potential:   4.708991

atom: _________________________________________________________________________

prinput: Basis input ----------------------------------------------------------

PAO.BasisType split     

%block ChemicalSpeciesLabel
    1   14 Si                      # Species index, atomic number, species label
    2    1 H                       # Species index, atomic number, species label
%endblock ChemicalSpeciesLabel

%block PAO.Basis                 # Define Basis set
Si                    2                    # Species label, number of l-shells
 n=3   0   1                         # n, l, Nzeta 
   4.884   
   1.000   
 n=3   1   1                         # n, l, Nzeta 
   6.116   
   1.000   
H                     1                    # Species label, number of l-shells
 n=1   0   1                         # n, l, Nzeta 
   4.718   
   0.800   
%endblock PAO.Basis

prinput: ----------------------------------------------------------------------

Dumping basis to NetCDF file Si.ion.nc
Dumping basis to NetCDF file H.ion.nc
coor:   Atomic-coordinates input format  =     Cartesian coordinates
coor:                                          (in units of alat)

siesta: Atomic coordinates (Bohr) and species
siesta:      0.00000   0.00000   0.00000  1        1
siesta:      2.56530   2.56530   2.56530  1        2
siesta:      0.00000   5.13061   5.13061  1        3
siesta:      2.56530   7.69591   7.69591  1        4
siesta:      5.13061   0.00000   5.13061  1        5
siesta:      7.69591   2.56530   7.69591  1        6
siesta:      5.13061   5.13061   0.00000  1        7
siesta:      7.69591   7.69591   2.56530  1        8
siesta:     10.26122   0.00000   0.00000  1        9
siesta:     12.82652   2.56530   2.56530  1       10
siesta:     10.26122   5.13061   5.13061  1       11
siesta:     12.82652   7.69591   7.69591  1       12
siesta:     15.39183   0.00000   5.13061  1       13
siesta:     17.95713   2.56530   7.69591  1       14
siesta:     15.39183   5.13061   0.00000  1       15
siesta:     17.95713   7.69591   2.56530  1       16
siesta:      0.00000  10.26122   0.00000  1       17
siesta:      2.56530  12.82652   2.56530  1       18
siesta:      0.00000  15.39183   5.13061  1       19
siesta:      2.56530  17.95713   7.69591  1       20
siesta:      5.13061  10.26122   5.13061  1       21
siesta:      7.69591  12.82652   7.69591  1       22
siesta:      5.13061  15.39183   0.00000  1       23
siesta:      7.69591  17.95713   2.56530  1       24
siesta:      0.00000   0.00000  10.26122  1       25
siesta:      2.56530   2.56530  12.82652  1       26
siesta:      0.00000   5.13061  15.39183  1       27
siesta:      2.56530   7.69591  17.95713  1       28
siesta:      5.13061   0.00000  15.39183  1       29
siesta:      7.69591   2.56530  17.95713  1       30
siesta:      5.13061   5.13061  10.26122  1       31
siesta:      7.69591   7.69591  12.82652  1       32
siesta:     10.26122  10.26122   0.00000  1       33
siesta:     12.82652  12.82652   2.56530  1       34
siesta:     10.26122  15.39183   5.13061  1       35
siesta:     12.82652  17.95713   7.69591  1       36
siesta:     15.39183  10.26122   5.13061  1       37
siesta:     17.95713  12.82652   7.69591  1       38
siesta:     15.39183  15.39183   0.00000  1       39
siesta:     17.95713  17.95713   2.56530  1       40
siesta:     10.26122   0.00000  10.26122  1       41
siesta:     12.82652   2.56530  12.82652  1       42
siesta:     10.26122   5.13061  15.39183  1       43
siesta:     12.82652   7.69591  17.95713  1       44
siesta:     15.39183   0.00000  15.39183  1       45
siesta:     17.95713   2.56530  17.95713  1       46
siesta:     15.39183   5.13061  10.26122  1       47
siesta:     17.95713   7.69591  12.82652  1       48
siesta:      0.00000  10.26122  10.26122  1       49
siesta:      2.56530  12.82652  12.82652  1       50
siesta:      0.00000  15.39183  15.39183  1       51
siesta:      2.56530  17.95713  17.95713  1       52
siesta:      5.13061  10.26122  15.39183  1       53
siesta:      7.69591  12.82652  17.95713  1       54
siesta:      5.13061  15.39183  10.26122  1       55
siesta:      7.69591  17.95713  12.82652  1       56
siesta:     10.26122  10.26122  10.26122  1       57
siesta:     12.82652  12.82652  12.82652  1       58
siesta:     10.26122  15.39183  15.39183  1       59
siesta:     12.82652  17.95713  17.95713  1       60
siesta:     15.39183  10.26122  15.39183  1       61
siesta:     17.95713  12.82652  17.95713  1       62
siesta:     15.39183  15.39183  10.26122  1       63
siesta:     17.95713  17.95713  12.82652  1       64
siesta:     11.54387  11.54387  11.54387  2       65

siesta: System type = bulk      

initatomlists: Number of atoms, orbitals, and projectors:     65   257   580

siesta: ******************** Simulation parameters ****************************
siesta:
siesta: The following are some of the parameters of the simulation.
siesta: A complete list of the parameters used, including default values,
siesta: can be found in file out.fdf
siesta:
redata: Non-Collinear-spin run           =     F
redata: SpinPolarized (Up/Down) run      =     F
redata: Number of spin components        =     1
redata: Long output                      =     F
redata: Number of Atomic Species         =        2
redata: Charge density info will appear in .RHO file
redata: Write Mulliken Pop.              =     NO
redata: Mesh Cutoff                      =    40.0000  Ry
redata: Net charge of the system         =     0.0000 |e|
redata: Max. number of SCF Iter          =       50
redata: Performing Pulay mixing using    =     4 iterations
redata: Mix DM in first SCF step ?       =     F
redata: Write Pulay info on disk?        =     F
redata: New DM Mixing Weight             =     0.3000
redata: New DM Occupancy tolerance       = 0.000000000001
redata: No kicks to SCF
redata: DM Mixing Weight for Kicks       =     0.5000
redata: DM Tolerance for SCF             =     0.001000
redata: Require Energy convergence for SCF =     F
redata: DM Energy tolerance for SCF      =     0.000100 eV
redata: Require Harris convergence for SCF =     F
redata: DM Harris energy tolerance for SCF =     0.000100 eV
redata: Using Saved Data (generic)   =     F
redata: Use continuation files for DM    =     T
redata: Neglect nonoverlap interactions  =     F
redata: Method of Calculation            =     Diagonalization
redata: Divide and Conquer               =     T
redata: Electronic Temperature           =     0.0018  Ry
redata: Fix the spin of the system       =     F
redata: Dynamics option                  =     CG coord. optimization
redata: Variable cell                    =     F
redata: Use continuation files for CG    =     F
redata: Max atomic displ per move        =     0.1890  Bohr
redata: Maximum number of CG moves       =       50
redata: Force tolerance                  =     0.0016  Ry/Bohr
redata: ***********************************************************************
Total number of electrons:   257.000000
Total ionic charge:   257.000000

* ProcessorY, Blocksize:    2  24

 Kpoints in:            1 . Kpoints trimmed:            1

siesta: k-grid: Number of k-points =     1
siesta: k-grid: Cutoff (effective) =     5.430 Ang
siesta: k-grid: Supercell and displacements
siesta: k-grid:    1   0   0      0.000
siesta: k-grid:    0   1   0      0.000
siesta: k-grid:    0   0   1      0.000

* Maximum dynamic memory allocated =     2 MB

siesta:                 ==============================
                            Begin CG move =      0
                        ==============================

outcell: Unit cell vectors (Ang):
       10.860000    0.000000    0.000000
        0.000000   10.860000    0.000000
        0.000000    0.000000   10.860000

outcell: Cell vector modules (Ang)   :   10.860000   10.860000   10.860000
outcell: Cell angles (23,13,12) (deg):     90.0000     90.0000     90.0000
outcell: Cell volume (Ang**3)        :   1280.8241

NOTE: orbital pair      1    34 (at least) is multiply connected.
NOTE: Harmless for Gamma calculations, except if a COHP analysis is intended.
New_DM. Step:     1
Initializing Density Matrix...

InitMesh: MESH =    48 x    48 x    48 =      110592
InitMesh: Mesh cutoff (required, used) =    40.000    53.991 Ry

* Maximum dynamic memory allocated =     9 MB

stepf: Fermi-Dirac step function

siesta: Program's energy decomposition (eV):
siesta: Eions   =     12205.375277
siesta: Ena     =      3677.554544
siesta: Ekin    =      2591.199431
siesta: Enl     =      1150.368409
siesta: DEna    =         0.000011
siesta: DUscf   =         0.000000
siesta: DUext   =         0.000000
siesta: Exc     =     -2083.290198
siesta: eta*DQ  =         0.000000
siesta: Emadel  =         0.000000
siesta: Emeta   =         0.000000
siesta: Emolmec =         0.000000
siesta: Ekinion =         0.000000
siesta: Eharris =     -6847.408202
siesta: Etot    =     -6869.543081
siesta: FreeEng =     -6869.543081

siesta: iscf   Eharris(eV)      E_KS(eV)   FreeEng(eV)   dDmax  Ef(eV)
siesta:    1    -6847.4082    -6869.5431    -6869.5431  1.0410 -2.0995
timer: Routine,Calls,Time,% = IterSCF        1       2.691  72.07
elaps: Routine,Calls,Wall,% = IterSCF        1       0.666  71.11
siesta:    2    -6848.5321    -6844.5897    -6844.6524  0.7386 -3.6120
siesta:    3    -6846.0153    -6845.8287    -6845.8634  0.1880 -2.2220
siesta:    4    -6845.5677    -6844.8994    -6844.9562  0.1452 -2.4521
siesta:    5    -6845.5610    -6844.9200    -6844.9547  0.1339 -2.4412
siesta:    6    -6845.5356    -6845.3180    -6845.3527  0.0248 -2.3668
siesta:    7    -6845.5350    -6845.5248    -6845.5599  0.0012 -2.3574
siesta:    8    -6845.5350    -6845.5478    -6845.5830  0.0009 -2.3582

siesta: E_KS(eV) =            -6845.5436

siesta: E_KS - E_eggbox =     -6845.5436

siesta: Atomic forces (eV/Ang):
----------------------------------------
   Tot   -0.000009   -0.000008   -0.000003
----------------------------------------
   Max    9.571076
   Res    1.679953    sqrt( Sum f_i^2 / 3N )
----------------------------------------
   Max    9.571076    constrained

Stress-tensor-Voigt (kbar):      -77.67      -77.67      -77.67      -15.44      -15.44      -15.44
(Free)E + p*V (eV/cell)    -6783.4901
Target enthalpy (eV/cell)    -6845.5787

* Maximum dynamic memory allocated =    10 MB

siesta:                 ==============================
                            Begin CG move =      1
                        ==============================

outcell: Unit cell vectors (Ang):
       10.860000    0.000000    0.000000
        0.000000   10.860000    0.000000
        0.000000    0.000000   10.860000

outcell: Cell vector modules (Ang)   :   10.860000   10.860000   10.860000
outcell: Cell angles (23,13,12) (deg):     90.0000     90.0000     90.0000
outcell: Cell volume (Ang**3)        :   1280.8241
New_DM. Step:     2
Re-using DM from previous geometry...
Re-using DM without extrapolation...
Density Matrix sparsity pattern changed.

siesta: iscf   Eharris(eV)      E_KS(eV)   FreeEng(eV)   dDmax  Ef(eV)
siesta:    1    -6847.7456    -6846.8921    -6846.9273  0.3087 -2.3150
siesta:    2    -6850.1567    -6846.8251    -6846.8602  0.4782 -3.7411
siesta:    3    -6847.5466    -6847.0216    -6847.0621  0.1169 -2.5361
siesta:    4    -6847.5460    -6847.1545    -6847.1892  0.0898 -2.5408
siesta:    5    -6847.5439    -6847.6534    -6847.6881  0.0136 -2.5134
siesta:    6    -6847.5434    -6847.5577    -6847.5923  0.0071 -2.5261
siesta:    7    -6847.5434    -6847.5669    -6847.6015  0.0018 -2.5265
siesta:    8    -6847.5434    -6847.5455    -6847.5801  0.0004 -2.5266

siesta: E_KS(eV) =            -6847.5440

siesta: Atomic forces (eV/Ang):
----------------------------------------
   Tot   -0.000008   -0.000001    0.000000
----------------------------------------
   Max    6.926040
   Res    1.215962    sqrt( Sum f_i^2 / 3N )
----------------------------------------
   Max    6.926040    constrained

Stress-tensor-Voigt (kbar):      -75.10      -75.10      -75.10      -11.88      -11.88      -11.88
(Free)E + p*V (eV/cell)    -6787.5414
Target enthalpy (eV/cell)    -6847.5786

* Maximum dynamic memory allocated =    11 MB

siesta:                 ==============================
                            Begin CG move =      2
                        ==============================

outcell: Unit cell vectors (Ang):
       10.860000    0.000000    0.000000
        0.000000   10.860000    0.000000
        0.000000    0.000000   10.860000

outcell: Cell vector modules (Ang)   :   10.860000   10.860000   10.860000
outcell: Cell angles (23,13,12) (deg):     90.0000     90.0000     90.0000
outcell: Cell volume (Ang**3)        :   1280.8241
New_DM. Step:     3
Re-using DM from previous geometry...
Extrapolating Density Matrix...
Density Matrix sparsity pattern changed.

siesta: iscf   Eharris(eV)      E_KS(eV)   FreeEng(eV)   dDmax  Ef(eV)
siesta:    1    -6849.6309    -6849.2908    -6849.3254  0.0720 -2.7497
siesta:    2    -6849.6997    -6849.6040    -6849.6387  0.0570 -2.9728
siesta:    3    -6849.6252    -6849.4681    -6849.5028  0.0288 -2.7840
siesta:    4    -6849.6246    -6849.5974    -6849.6320  0.0023 -2.7980
siesta:    5    -6849.6245    -6849.6154    -6849.6501  0.0013 -2.7954
siesta:    6    -6849.6245    -6849.6203    -6849.6550  0.0006 -2.7956

siesta: E_KS(eV) =            -6849.6236

siesta: Atomic forces (eV/Ang):
----------------------------------------
   Tot   -0.000017   -0.000006    0.000000
----------------------------------------
   Max    3.843080
   Res    0.681284    sqrt( Sum f_i^2 / 3N )
----------------------------------------
   Max    3.843080    constrained

Stress-tensor-Voigt (kbar):      -72.87      -72.87      -72.87       -7.15       -7.15       -7.15
(Free)E + p*V (eV/cell)    -6791.4014
Target enthalpy (eV/cell)    -6849.6583

* Maximum dynamic memory allocated =    11 MB

siesta:                 ==============================
                            Begin CG move =      3
                        ==============================

outcell: Unit cell vectors (Ang):
       10.860000    0.000000    0.000000
        0.000000   10.860000    0.000000
        0.000000    0.000000   10.860000

outcell: Cell vector modules (Ang)   :   10.860000   10.860000   10.860000
outcell: Cell angles (23,13,12) (deg):     90.0000     90.0000     90.0000
outcell: Cell volume (Ang**3)        :   1280.8241
New_DM. Step:     4
Re-using DM from previous geometry...
Extrapolating Density Matrix...
Density Matrix sparsity pattern changed.

siesta: iscf   Eharris(eV)      E_KS(eV)   FreeEng(eV)   dDmax  Ef(eV)
siesta:    1    -6850.9724    -6850.8636    -6850.8983  0.1024 -3.3085
siesta:    2    -6851.3127    -6850.7970    -6850.8316  0.1097 -2.7065
siesta:    3    -6850.9220    -6850.8644    -6850.8990  0.0280 -3.1454
siesta:    4    -6850.9204    -6850.9017    -6850.9363  0.0097 -3.1103
siesta:    5    -6850.9199    -6850.9216    -6850.9563  0.0084 -3.1241
siesta:    6    -6850.9198    -6850.9224    -6850.9571  0.0026 -3.1271
siesta:    7    -6850.9198    -6850.9214    -6850.9560  0.0007 -3.1276

siesta: E_KS(eV) =            -6850.9205

siesta: Atomic forces (eV/Ang):
----------------------------------------
   Tot   -0.000004   -0.000008   -0.000003
----------------------------------------
   Max    0.792190
   Res    0.241922    sqrt( Sum f_i^2 / 3N )
----------------------------------------
   Max    0.792190    constrained

Stress-tensor-Voigt (kbar):      -70.87      -70.87      -70.87       -1.48       -1.48       -1.48
(Free)E + p*V (eV/cell)    -6794.3025
Target enthalpy (eV/cell)    -6850.9551

* Maximum dynamic memory allocated =    11 MB

siesta:                 ==============================
                            Begin CG move =      4
                        ==============================

outcell: Unit cell vectors (Ang):
       10.860000    0.000000    0.000000
        0.000000   10.860000    0.000000
        0.000000    0.000000   10.860000

outcell: Cell vector modules (Ang)   :   10.860000   10.860000   10.860000
outcell: Cell angles (23,13,12) (deg):     90.0000     90.0000     90.0000
outcell: Cell volume (Ang**3)        :   1280.8241
New_DM. Step:     5
Re-using DM from previous geometry...
Extrapolating Density Matrix...
Density Matrix sparsity pattern changed.

siesta: iscf   Eharris(eV)      E_KS(eV)   FreeEng(eV)   dDmax  Ef(eV)
siesta:    1    -6852.1757    -6851.9604    -6851.9951  0.3362 -3.8165
siesta:    2    -6858.4496    -6848.4770    -6848.5205  0.4197 -2.6372
siesta:    3    -6851.1469    -6850.9084    -6850.9445  0.1854 -3.4028
siesta:    4    -6851.0266    -6850.8276    -6850.8623  0.1268 -3.3667
siesta:    5    -6850.8333    -6850.7683    -6850.8030  0.0168 -3.3641
siesta:    6    -6850.8013    -6850.7673    -6850.8020  0.0103 -3.3535
siesta:    7    -6850.8020    -6850.7905    -6850.8252  0.0029 -3.3568
siesta:    8    -6850.8008    -6850.7980    -6850.8327  0.0011 -3.3592
siesta:    9    -6850.8009    -6850.7997    -6850.8344  0.0006 -3.3580

siesta: E_KS(eV) =            -6850.8012

siesta: Atomic forces (eV/Ang):
----------------------------------------
   Tot   -0.000001    0.000274   -0.000820
----------------------------------------
   Max    0.925407
   Res    0.325269    sqrt( Sum f_i^2 / 3N )
----------------------------------------
   Max    0.925407    constrained

Stress-tensor-Voigt (kbar):      -70.37      -70.37      -70.37        2.41        2.41        2.41
(Free)E + p*V (eV/cell)    -6794.5823
Target enthalpy (eV/cell)    -6850.8358

* Maximum dynamic memory allocated =    11 MB

siesta:                 ==============================
                            Begin CG move =      5
                        ==============================

outcell: Unit cell vectors (Ang):
       10.860000    0.000000    0.000000
        0.000000   10.860000    0.000000
        0.000000    0.000000   10.860000

outcell: Cell vector modules (Ang)   :   10.860000   10.860000   10.860000
outcell: Cell angles (23,13,12) (deg):     90.0000     90.0000     90.0000
outcell: Cell volume (Ang**3)        :   1280.8241
New_DM. Step:     6
Re-using DM from previous geometry...
Extrapolating Density Matrix...
Density Matrix sparsity pattern changed.

siesta: iscf   Eharris(eV)      E_KS(eV)   FreeEng(eV)   dDmax  Ef(eV)
siesta:    1    -6850.9684    -6850.8344    -6850.8691  0.1684 -2.9570
siesta:    2    -6853.0046    -6850.3761    -6850.4107  0.3443 -3.8548
siesta:    3    -6850.8506    -6850.7645    -6850.8278  0.0923 -3.1451
siesta:    4    -6850.9265    -6850.8337    -6850.8684  0.0411 -3.2531
siesta:    5    -6850.9817    -6850.9171    -6850.9518  0.0143 -3.2359
siesta:    6    -6850.9968    -6850.9530    -6850.9876  0.0060 -3.2507
siesta:    7    -6850.9961    -6850.9755    -6851.0101  0.0015 -3.2434
siesta:    8    -6850.9963    -6850.9885    -6851.0232  0.0007 -3.2412

siesta: E_KS(eV) =            -6850.9927

siesta: Atomic forces (eV/Ang):
----------------------------------------
   Tot   -0.000004    0.000506   -0.001520
----------------------------------------
   Max    0.772686
   Res    0.240359    sqrt( Sum f_i^2 / 3N )
----------------------------------------
   Max    0.772686    constrained

Stress-tensor-Voigt (kbar):      -70.49      -70.48      -70.48        0.39        0.39        0.39
(Free)E + p*V (eV/cell)    -6794.6816
Target enthalpy (eV/cell)    -6851.0274

cgvc: Finished line minimization    1.  Mean atomic displacement =    0.1024

* Maximum dynamic memory allocated =    11 MB

siesta:                 ==============================
                            Begin CG move =      6
                        ==============================

outcell: Unit cell vectors (Ang):
       10.860000    0.000000    0.000000
        0.000000   10.860000    0.000000
        0.000000    0.000000   10.860000

outcell: Cell vector modules (Ang)   :   10.860000   10.860000   10.860000
outcell: Cell angles (23,13,12) (deg):     90.0000     90.0000     90.0000
outcell: Cell volume (Ang**3)        :   1280.8241
New_DM. Step:     7
Re-using DM from previous geometry...
Extrapolating Density Matrix...
Density Matrix sparsity pattern changed.

siesta: iscf   Eharris(eV)      E_KS(eV)   FreeEng(eV)   dDmax  Ef(eV)
siesta:    1    -6853.7972    -6853.8459    -6853.8805  0.3319 -3.4942
siesta:    2    -6854.6878    -6849.5022    -6849.5369  0.4062 -2.4027
siesta:    3    -6852.1102    -6852.1898    -6852.2365  0.1817 -3.0358
siesta:    4    -6851.4429    -6851.3697    -6851.4044  0.0950 -2.9505
siesta:    5    -6850.7926    -6850.6326    -6850.6673  0.0078 -2.9614
siesta:    6    -6850.7288    -6850.5930    -6850.6277  0.0034 -2.9407
siesta:    7    -6850.7374    -6850.6702    -6850.7049  0.0017 -2.9384
siesta:    8    -6850.7302    -6850.7034    -6850.7381  0.0013 -2.9432
siesta:    9    -6850.7327    -6850.7235    -6850.7582  0.0007 -2.9382

siesta: E_KS(eV) =            -6850.7321

siesta: Atomic forces (eV/Ang):
----------------------------------------
   Tot   -0.002815    0.001147    0.002395
----------------------------------------
   Max    1.075404
   Res    0.365017    sqrt( Sum f_i^2 / 3N )
----------------------------------------
   Max    1.075404    constrained

Stress-tensor-Voigt (kbar):      -71.01      -70.99      -71.02       -6.70       -6.71       -6.69
(Free)E + p*V (eV/cell)    -6794.0046
Target enthalpy (eV/cell)    -6850.7668

* Maximum dynamic memory allocated =    11 MB

siesta:                 ==============================
                            Begin CG move =      7
                        ==============================

outcell: Unit cell vectors (Ang):
       10.860000    0.000000    0.000000
        0.000000   10.860000    0.000000
        0.000000    0.000000   10.860000

outcell: Cell vector modules (Ang)   :   10.860000   10.860000   10.860000
outcell: Cell angles (23,13,12) (deg):     90.0000     90.0000     90.0000
outcell: Cell volume (Ang**3)        :   1280.8241
New_DM. Step:     8
Re-using DM from previous geometry...
Extrapolating Density Matrix...
Density Matrix sparsity pattern changed.

siesta: iscf   Eharris(eV)      E_KS(eV)   FreeEng(eV)   dDmax  Ef(eV)
siesta:    1    -6849.5135    -6847.8365    -6847.8711  0.3338 -2.5376
siesta:    2    -6856.6367    -6849.6242    -6849.6589  0.6173 -3.8289
siesta:    3    -6849.9610    -6849.0982    -6849.1656  0.0936 -2.9982
siesta:    4    -6850.5050    -6849.9740    -6850.0086  0.0519 -3.1260
siesta:    5    -6851.1830    -6851.1899    -6851.2246  0.0095 -3.1068
siesta:    6    -6851.2856    -6851.3494    -6851.3841  0.0041 -3.1075
siesta:    7    -6851.2671    -6851.3029    -6851.3376  0.0017 -3.0965
siesta:    8    -6851.2621    -6851.2768    -6851.3114  0.0013 -3.0972
siesta:    9    -6851.2653    -6851.2714    -6851.3060  0.0006 -3.0972

siesta: E_KS(eV) =            -6851.2709

siesta: Atomic forces (eV/Ang):
----------------------------------------
   Tot   -0.003407    0.002167    0.001631
----------------------------------------
   Max    0.209069
   Res    0.103635    sqrt( Sum f_i^2 / 3N )
----------------------------------------
   Max    0.209069    constrained

Stress-tensor-Voigt (kbar):      -69.47      -69.47      -69.47       -3.05       -3.04       -3.05
(Free)E + p*V (eV/cell)    -6795.7685
Target enthalpy (eV/cell)    -6851.3055

cgvc: Finished line minimization    2.  Mean atomic displacement =    0.0460

* Maximum dynamic memory allocated =    11 MB

siesta:                 ==============================
                            Begin CG move =      8
                        ==============================

outcell: Unit cell vectors (Ang):
       10.860000    0.000000    0.000000
        0.000000   10.860000    0.000000
        0.000000    0.000000   10.860000

outcell: Cell vector modules (Ang)   :   10.860000   10.860000   10.860000
outcell: Cell angles (23,13,12) (deg):     90.0000     90.0000     90.0000
outcell: Cell volume (Ang**3)        :   1280.8241
New_DM. Step:     9
Re-using DM from previous geometry...
Extrapolating Density Matrix...
Density Matrix sparsity pattern changed.

siesta: iscf   Eharris(eV)      E_KS(eV)   FreeEng(eV)   dDmax  Ef(eV)
siesta:    1    -6851.4263    -6851.5733    -6851.6079  0.1525 -3.3790
siesta:    2    -6852.7167    -6850.7418    -6850.7764  0.2334 -2.4280
siesta:    3    -6851.2321    -6851.3499    -6851.3848  0.0470 -3.0704
siesta:    4    -6851.2279    -6851.3195    -6851.3542  0.0265 -3.0462
siesta:    5    -6851.2248    -6851.2729    -6851.3076  0.0046 -3.0457
siesta:    6    -6851.2246    -6851.2642    -6851.2989  0.0025 -3.0500
siesta:    7    -6851.2245    -6851.2417    -6851.2763  0.0008 -3.0556

siesta: E_KS(eV) =            -6851.2302

siesta: Atomic forces (eV/Ang):
----------------------------------------
   Tot   -0.004595    0.003472    0.000927
----------------------------------------
   Max    0.334056
   Res    0.158392    sqrt( Sum f_i^2 / 3N )
----------------------------------------
   Max    0.334056    constrained

Stress-tensor-Voigt (kbar):      -70.21      -70.21      -70.21       -3.49       -3.50       -3.49
(Free)E + p*V (eV/cell)    -6795.1368
Target enthalpy (eV/cell)    -6851.2649

* Maximum dynamic memory allocated =    11 MB

siesta:                 ==============================
                            Begin CG move =      9
                        ==============================

outcell: Unit cell vectors (Ang):
       10.860000    0.000000    0.000000
        0.000000   10.860000    0.000000
        0.000000    0.000000   10.860000

outcell: Cell vector modules (Ang)   :   10.860000   10.860000   10.860000
outcell: Cell angles (23,13,12) (deg):     90.0000     90.0000     90.0000
outcell: Cell volume (Ang**3)        :   1280.8241
New_DM. Step:    10
Re-using DM from previous geometry...
Extrapolating Density Matrix...
Density Matrix sparsity pattern changed.

siesta: iscf   Eharris(eV)      E_KS(eV)   FreeEng(eV)   dDmax  Ef(eV)
siesta:    1    -6851.4265    -6851.1682    -6851.2029  0.0453 -2.9859
siesta:    2    -6851.8069    -6851.1213    -6851.1560  0.0707 -3.4759
siesta:    3    -6851.3235    -6851.2099    -6851.2446  0.0163 -3.0855
siesta:    4    -6851.3193    -6851.3046    -6851.3393  0.0061 -3.0863
siesta:    5    -6851.3184    -6851.3355    -6851.3702  0.0030 -3.0737
siesta:    6    -6851.3183    -6851.3312    -6851.3658  0.0011 -3.0789
siesta:    7    -6851.3183    -6851.3252    -6851.3598  0.0003 -3.0782

siesta: E_KS(eV) =            -6851.3215

siesta: Atomic forces (eV/Ang):
----------------------------------------
   Tot   -0.001649    0.000457    0.000977
----------------------------------------
   Max    0.111805
   Res    0.053680    sqrt( Sum f_i^2 / 3N )
----------------------------------------
   Max    0.111805    constrained

Stress-tensor-Voigt (kbar):      -69.81      -69.81      -69.81       -3.13       -3.14       -3.13
(Free)E + p*V (eV/cell)    -6795.5506
Target enthalpy (eV/cell)    -6851.3562

cgvc: Finished line minimization    3.  Mean atomic displacement =    0.0190

* Maximum dynamic memory allocated =    11 MB

siesta:                 ==============================
                            Begin CG move =     10
                        ==============================

outcell: Unit cell vectors (Ang):
       10.860000    0.000000    0.000000
        0.000000   10.860000    0.000000
        0.000000    0.000000   10.860000

outcell: Cell vector modules (Ang)   :   10.860000   10.860000   10.860000
outcell: Cell angles (23,13,12) (deg):     90.0000     90.0000     90.0000
outcell: Cell volume (Ang**3)        :   1280.8241
New_DM. Step:    11
Re-using DM from previous geometry...
Extrapolating Density Matrix...
Density Matrix sparsity pattern changed.

siesta: iscf   Eharris(eV)      E_KS(eV)   FreeEng(eV)   dDmax  Ef(eV)
siesta:    1    -6851.3429    -6851.3667    -6851.4013  0.0199 -3.1031
siesta:    2    -6851.4156    -6851.2743    -6851.3090  0.0292 -3.0034
siesta:    3    -6851.3182    -6851.3357    -6851.3704  0.0049 -3.0968
siesta:    4    -6851.3175    -6851.3228    -6851.3574  0.0029 -3.0913
siesta:    5    -6851.3172    -6851.3196    -6851.3543  0.0006 -3.0974

siesta: E_KS(eV) =            -6851.3184

siesta: Atomic forces (eV/Ang):
----------------------------------------
   Tot   -0.002160    0.000999    0.000287
----------------------------------------
   Max    0.210213
   Res    0.071470    sqrt( Sum f_i^2 / 3N )
----------------------------------------
   Max    0.210213    constrained

Stress-tensor-Voigt (kbar):      -69.66      -69.66      -69.66       -2.01       -1.99       -2.01
(Free)E + p*V (eV/cell)    -6795.6679
Target enthalpy (eV/cell)    -6851.3530

* Maximum dynamic memory allocated =    11 MB

siesta:                 ==============================
                            Begin CG move =     11
                        ==============================

outcell: Unit cell vectors (Ang):
       10.860000    0.000000    0.000000
        0.000000   10.860000    0.000000
        0.000000    0.000000   10.860000

outcell: Cell vector modules (Ang)   :   10.860000   10.860000   10.860000
outcell: Cell angles (23,13,12) (deg):     90.0000     90.0000     90.0000
outcell: Cell volume (Ang**3)        :   1280.8241
New_DM. Step:    12
Re-using DM from previous geometry...
Extrapolating Density Matrix...
Density Matrix sparsity pattern changed.

siesta: iscf   Eharris(eV)      E_KS(eV)   FreeEng(eV)   dDmax  Ef(eV)
siesta:    1    -6851.3541    -6851.3346    -6851.3693  0.0984 -3.1309
siesta:    2    -6851.3699    -6851.3088    -6851.3435  0.0318 -3.0176
siesta:    3    -6851.3334    -6851.3274    -6851.3621  0.0303 -3.0778
siesta:    4    -6851.3332    -6851.3282    -6851.3629  0.0030 -3.0899
siesta:    5    -6851.3330    -6851.3298    -6851.3645  0.0009 -3.0852

siesta: E_KS(eV) =            -6851.3307

siesta: Atomic forces (eV/Ang):
----------------------------------------
   Tot   -0.001324    0.000862    0.000297
----------------------------------------
   Max    0.051500
   Res    0.025424    sqrt( Sum f_i^2 / 3N )
----------------------------------------
   Max    0.051500    constrained

Stress-tensor-Voigt (kbar):      -70.16      -70.16      -70.16       -2.64       -2.64       -2.64
(Free)E + p*V (eV/cell)    -6795.2761
Target enthalpy (eV/cell)    -6851.3654

cgvc: Finished line minimization    4.  Mean atomic displacement =    0.0094

* Maximum dynamic memory allocated =    11 MB

siesta:                 ==============================
                            Begin CG move =     12
                        ==============================

outcell: Unit cell vectors (Ang):
       10.860000    0.000000    0.000000
        0.000000   10.860000    0.000000
        0.000000    0.000000   10.860000

outcell: Cell vector modules (Ang)   :   10.860000   10.860000   10.860000
outcell: Cell angles (23,13,12) (deg):     90.0000     90.0000     90.0000
outcell: Cell volume (Ang**3)        :   1280.8241
New_DM. Step:    13
Re-using DM from previous geometry...
Extrapolating Density Matrix...
Density Matrix sparsity pattern changed.

siesta: iscf   Eharris(eV)      E_KS(eV)   FreeEng(eV)   dDmax  Ef(eV)
siesta:    1    -6851.3399    -6851.3448    -6851.3795  0.0500 -3.0563
siesta:    2    -6851.3490    -6851.3254    -6851.3601  0.0171 -3.1210
siesta:    3    -6851.3340    -6851.3359    -6851.3706  0.0185 -3.0885
siesta:    4    -6851.3340    -6851.3331    -6851.3677  0.0029 -3.0812
siesta:    5    -6851.3340    -6851.3331    -6851.3678  0.0003 -3.0849

siesta: E_KS(eV) =            -6851.3333

siesta: Atomic forces (eV/Ang):
----------------------------------------
   Tot   -0.001819    0.000540    0.000940
----------------------------------------
   Max    0.080789
   Res    0.029624    sqrt( Sum f_i^2 / 3N )
----------------------------------------
   Max    0.080789    constrained

Stress-tensor-Voigt (kbar):      -69.91      -69.91      -69.91       -2.84       -2.85       -2.84
(Free)E + p*V (eV/cell)    -6795.4806
Target enthalpy (eV/cell)    -6851.3680

* Maximum dynamic memory allocated =    11 MB

siesta:                 ==============================
                            Begin CG move =     13
                        ==============================

outcell: Unit cell vectors (Ang):
       10.860000    0.000000    0.000000
        0.000000   10.860000    0.000000
        0.000000    0.000000   10.860000

outcell: Cell vector modules (Ang)   :   10.860000   10.860000   10.860000
outcell: Cell angles (23,13,12) (deg):     90.0000     90.0000     90.0000
outcell: Cell volume (Ang**3)        :   1280.8241
New_DM. Step:    14
Re-using DM from previous geometry...
Extrapolating Density Matrix...
Density Matrix sparsity pattern changed.

siesta: iscf   Eharris(eV)      E_KS(eV)   FreeEng(eV)   dDmax  Ef(eV)
siesta:    1    -6851.3398    -6851.3125    -6851.3472  0.0061 -3.1047
siesta:    2    -6851.3450    -6851.3312    -6851.3659  0.0099 -3.0639
siesta:    3    -6851.3363    -6851.3251    -6851.3598  0.0027 -3.0844
siesta:    4    -6851.3362    -6851.3337    -6851.3684  0.0007 -3.0875

siesta: E_KS(eV) =            -6851.3358

siesta: Atomic forces (eV/Ang):
----------------------------------------
   Tot    0.006713    0.008421    0.007863
----------------------------------------
   Max    0.032891
   Res    0.014437    sqrt( Sum f_i^2 / 3N )
----------------------------------------
   Max    0.032891    constrained

Stress-tensor-Voigt (kbar):      -69.75      -69.75      -69.75       -2.80       -2.80       -2.80
(Free)E + p*V (eV/cell)    -6795.6135
Target enthalpy (eV/cell)    -6851.3705

* Maximum dynamic memory allocated =    11 MB

outcoor: Relaxed atomic coordinates (scaled):               
   -0.00034262   -0.00034277   -0.00034270   1       1  Si
    0.25034516    0.25034467    0.25034373   1       2  Si
    0.00023717    0.50094391    0.50094383   1       3  Si
    0.25172771    0.75040095    0.75040111   1       4  Si
    0.50094358    0.00023655    0.50094457   1       5  Si
    0.75040151    0.25172799    0.75040103   1       6  Si
    0.50094325    0.50094545    0.00023624   1       7  Si
    0.75040137    0.75040071    0.25172773   1       8  Si
    1.00040301    0.00147461    0.00146747   1       9  Si
    1.24957798    0.24853958    0.24853868   1      10  Si
    1.00021521    0.49632688    0.49632694   1      11  Si
    1.25576884    0.74031846    0.74031782   1      12  Si
    1.49999567    0.00094773    0.49881322   1      13  Si
    1.75118440    0.24905370    0.75000118   1      14  Si
    1.49999709    0.49881358    0.00094815   1      15  Si
    1.75118476    0.75000182    0.24905371   1      16  Si
    0.00146228    1.00041973    0.00146215   1      17  Si
    0.24853798    1.24957943    0.24853874   1      18  Si
    0.00094735    1.49999660    0.49881574   1      19  Si
    0.24905351    1.75118567    0.75000270   1      20  Si
    0.49632671    1.00021366    0.49632658   1      21  Si
    0.74031822    1.25576971    0.74031715   1      22  Si
    0.49881394    1.49999790    0.00094766   1      23  Si
    0.74999768    1.75118396    0.24905672   1      24  Si
    0.00146225    0.00146302    1.00041944   1      25  Si
    0.24853760    0.24853877    1.24957946   1      26  Si
    0.00094662    0.49881419    1.49999769   1      27  Si
    0.24905293    0.75000253    1.75118523   1      28  Si
    0.49881331    0.00094524    1.49999658   1      29  Si
    0.74999435    0.24905940    1.75117748   1      30  Si
    0.49632676    0.49632671    1.00021415   1      31  Si
    0.74031801    0.74031827    1.25576948   1      32  Si
    0.99971431    0.99971393    0.00132943   1      33  Si
    1.25028747    1.25028753    0.24867225   1      34  Si
    1.00153525    1.50114198    0.49776258   1      35  Si
    1.24846577    1.75223593    0.74885817   1      36  Si
    1.50114245    1.00153436    0.49776372   1      37  Si
    1.75223531    1.24846486    0.74885800   1      38  Si
    1.49959514    1.49960625   -0.00173141   1      39  Si
    1.74905570    1.74905547    0.24976264   1      40  Si
    0.99971309    0.00132864    0.99971363   1      41  Si
    1.25028634    0.24867382    1.25028509   1      42  Si
    1.00153574    0.49776500    1.50114002   1      43  Si
    1.24846624    0.74885769    1.75223629   1      44  Si
    1.49959374   -0.00172780    1.49960277   1      45  Si
    1.74905449    0.24976105    1.74905662   1      46  Si
    1.50114340    0.49776496    1.00153338   1      47  Si
    1.75223555    0.74885744    1.24846607   1      48  Si
    0.00132793    0.99971250    0.99971330   1      49  Si
    0.24867325    1.25028658    1.25028640   1      50  Si
   -0.00172582    1.49959916    1.49959821   1      51  Si
    0.24976175    1.74905613    1.74905679   1      52  Si
    0.49776454    1.00153398    1.50114183   1      53  Si
    0.74885787    1.24846597    1.75223702   1      54  Si
    0.49776462    1.50114158    1.00153350   1      55  Si
    0.74885772    1.75223556    1.24846533   1      56  Si
    0.95149674    0.95149656    0.95149636   1      57  Si
    1.29849772    1.29850104    1.29850020   1      58  Si
    0.99423059    1.50968498    1.50968480   1      59  Si
    1.24977121    1.75368314    1.75368411   1      60  Si
    1.50968027    0.99423068    1.50968026   1      61  Si
    1.75366950    1.24978911    1.75367540   1      62  Si
    1.50968124    1.50968060    0.99423021   1      63  Si
    1.75366800    1.75367781    1.24979009   1      64  Si
    1.12499886    1.12499939    1.12499889   2      65  H

siesta: Program's energy decomposition (eV):
siesta: Eions   =     12205.375277
siesta: Ena     =      3675.792085
siesta: Ekin    =      2573.417949
siesta: Enl     =       951.655497
siesta: DEna    =       213.824644
siesta: DUscf   =         5.345437
siesta: DUext   =         0.000000
siesta: Exc     =     -2065.996162
siesta: eta*DQ  =         0.000000
siesta: Emadel  =         0.000000
siesta: Emeta   =         0.000000
siesta: Emolmec =         0.000000
siesta: Ekinion =         0.000000
siesta: Eharris =     -6851.336204
siesta: Etot    =     -6851.335827
siesta: FreeEng =     -6851.370484

siesta: Final energy (eV):
siesta:       Kinetic =    2573.417949
siesta:       Hartree =     405.713453
siesta:    Ext. field =       0.000000
siesta:   Exch.-corr. =   -2065.996162
siesta:  Ion-electron =   -3075.615874
siesta:       Ion-ion =   -4688.855193
siesta:       Ekinion =       0.000000
siesta:         Total =   -6851.335827

siesta: Stress tensor (static) (eV/Ang**3):
siesta:    -0.043531   -0.001745   -0.001745
siesta:    -0.001745   -0.043533   -0.001746
siesta:    -0.001745   -0.001746   -0.043533

siesta: Cell volume =       1280.824056 Ang**3

siesta: Pressure (static):
siesta:                Solid            Molecule  Units
siesta:           0.00047412          0.00047114  Ry/Bohr**3
siesta:           0.04353214          0.04325816  eV/Ang**3
siesta:          69.74693522         69.30796367  kBar
(Free)E+ p_basis*V_orbitals  =       -6834.168186
(Free)Eharris+ p_basis*V_orbitals  =       -6834.170695

* Maximum dynamic memory allocated : Node    0 =    11 MB
* Maximum dynamic memory allocated : Node    1 =    11 MB
* Maximum dynamic memory allocated : Node    2 =    11 MB
* Maximum dynamic memory allocated : Node    3 =    11 MB

* Maximum memory occured during matrixMtoO                    

timer: CPU execution times:
timer:  Routine       Calls   Time/call    Tot.time        %
timer:  siesta            1     173.151     173.151   100.00
timer:  Setup             1       0.821       0.821     0.47
timer:  bands             1       0.000       0.000     0.00
timer:  writewave         1       0.004       0.004     0.00
timer:  KSV_init          1       0.004       0.004     0.00
timer:  IterMD           14      12.306     172.283    99.50
timer:  hsparse          14       0.063       0.886     0.51
timer:  overlap          14       0.029       0.409     0.24
timer:  IterSCF          97       1.334     129.373    74.72
timer:  kinefsm          28       0.029       0.813     0.47
timer:  nlefsm           28       0.340       9.533     5.51
timer:  DHSCF           111       0.968     107.430    62.04
timer:  DHSCF1            1       0.076       0.076     0.04
timer:  DHSCF2           14       0.898      12.573     7.26
timer:  REORD           694       0.000       0.176     0.10
timer:  POISON          125       0.038       4.689     2.71
timer:  DHSCF3          111       0.706      78.312    45.23
timer:  rhoofd          111       0.320      35.520    20.51
timer:  cellXC          111       0.046       5.059     2.92
timer:  vmat            111       0.289      32.070    18.52
timer:  MolMec           28       0.000       0.001     0.00
timer:  diagon           97       0.191      18.572    10.73
timer:  r-eigvec         97       0.159      15.425     8.91
timer:  r-buildHS        97       0.001       0.085     0.05
timer:  rdiag            97       0.158      15.339     8.86
timer:  rdiag1           97       0.005       0.461     0.27
timer:  rdiag2           97       0.016       1.586     0.92
timer:  rdiag3           97       0.126      12.197     7.04
timer:  rdiag4           97       0.007       0.703     0.41
timer:  r-buildD         97       0.031       3.008     1.74
timer:  DHSCF4           14       1.170      16.387     9.46
timer:  dfscf            14       0.959      13.423     7.75
timer:  overfsm          14       0.027       0.383     0.22
timer:  optical           1       0.036       0.036     0.02
  

elaps: ELAPSED times:
elaps:  Routine       Calls   Time/call    Tot.time        %
elaps:  siesta            1      45.147      45.147   100.00
elaps:  Setup             1       0.208       0.208     0.46
elaps:  bands             1       0.000       0.000     0.00
elaps:  writewave         1       0.001       0.001     0.00
elaps:  KSV_init          1       0.000       0.000     0.00
elaps:  IterMD           14       3.209      44.927    99.51
elaps:  hsparse          14       0.017       0.236     0.52
elaps:  overlap          14       0.008       0.111     0.25
elaps:  IterSCF          97       0.344      33.400    73.98
elaps:  kinefsm          28       0.008       0.225     0.50
elaps:  nlefsm           28       0.091       2.534     5.61
elaps:  DHSCF           111       0.242      26.903    59.59
elaps:  DHSCF1            1       0.019       0.019     0.04
elaps:  DHSCF2           14       0.225       3.143     6.96
elaps:  REORD           694       0.000       0.043     0.10
elaps:  POISON          125       0.009       1.179     2.61
elaps:  DHSCF3          111       0.177      19.598    43.41
elaps:  rhoofd          111       0.081       9.009    19.95
elaps:  cellXC          111       0.011       1.262     2.79
elaps:  vmat            111       0.072       8.020    17.76
elaps:  MolMec           28       0.000       0.001     0.00
elaps:  diagon           97       0.048       4.648    10.29
elaps:  r-eigvec         97       0.040       3.858     8.54
elaps:  r-buildHS        97       0.000       0.027     0.06
elaps:  rdiag            97       0.039       3.830     8.48
elaps:  rdiag1           97       0.001       0.113     0.25
elaps:  rdiag2           97       0.004       0.400     0.88
elaps:  rdiag3           97       0.031       3.052     6.76
elaps:  rdiag4           97       0.002       0.176     0.39
elaps:  r-buildD         97       0.008       0.751     1.66
elaps:  DHSCF4           14       0.295       4.123     9.13
elaps:  dfscf            14       0.241       3.370     7.46
elaps:  overfsm          14       0.008       0.107     0.24
elaps:  optical           1       0.000       0.000     0.00
  
>> End of run:  29-SEP-2009  17:19:41
