Siesta Version: siesta-4.0--527
Architecture  : x86_64-linux-n-62-18-14
Compiler flags: mpifort -m64 -fPIC -O3 -march=native -ftree-vectorize -fexpensive-optimizatioons -funroll-loops -fprefetch-loop-arrays -fno-second-underscore 
PP flags      : -I/zdata/groups/common/nicpa/2016-oct/generic/build-tools/1.0/include -I/zdatta/groups/common/nicpa/2016-oct/generic/gmp/6.1.0/include -I/zdata/groups/common/nicpa/2016-oct/generic/mpfr/3.1.4/include -I/zdata/groups/common/nicpa/2016-oct/generic/mpc/1.0.3/include -I/zdata/groups/common/nicpa/2016-oct/generic/isl/0.16.1/include -I/zdata/groups/common/nicpa/2016-oct/generic/gcc/6.2.0/include -I/zdata/groups/common/nicpa/2016-oct/generic/numactl/2.0.11/include -I/zdata/groups/common/nicpa/2016-oct/XeonE5-2665/zlib/1.2.8/gnu-6.2.0/include -I/zdata/groups/common/nicpa/2016-oct/XeonE5-2665/libxml2/2.9.4/gnu-6.2.0/include -I/zdata/groups/common/nicpa/2016-oct/XeonE5-2665/hwloc/1.11.4/gnu-6.2.0/include -I/zdata/groups/common/nicpa/2016-oct/XeonE5-2665/openmpi/2.0.1/gnu-6.2.0/include -I/zdata/groups/common/nicpa/2016-oct/XeonE5-2665/hdf5/1.8.17/gnu-6.2.0/include -I/zdata/groups/common/nicpa/2016-oct/XeonE5-2665/pnetcdf/1.7.0/gnu-6.2.0/include -I/zdata/groups/common/nicpa/2016-oct/XeonE5-2665/netcdf/4.4.1/gnu-6.2.0/include -I/zdata/groups/common/nicpa/2016-oct/XeonE5-2665/flook/0.7.0/gnu-6.2.0/include -I/zdata/groups/common/nicpa/2016-oct/XeonE5-2665/parmetis/4.0.3/gnu-6.2.0/include -I/zdata/groups/common/nicpa/2016-oct/XeonE5-2665/scalapack/204/gnu-6.2.0/include -I/zdata/groups/common/nicpa/2016-oct/XeonE5-2665/openblas/0.2.19/gnu-6.2.0/include -I/zdata/groups/common/nicpa/2016-oct/XeonE5-2665/mumps/5.0.2/gnu-6.2.0/include -I/zdata/groups/common/nicpa/2016-oct/XeonE5-2665/fftw/3.3.5/gnu-6.2.0/include -DMPI -DFC_HAVE_FLUSH -DFC_HAVE_ABORT -DCDF  -DSIESTA__METIS -DSIESTA__MUMPS -DTS_NOCHECKS -DSIESTA__FLOOK  
PARALLEL version
NetCDF support

* Running on    8 nodes in parallel
>> Start of run:   2-JUL-2017  11:55:42

                           ***********************       
                           *  WELCOME TO SIESTA  *       
                           ***********************       

reinit: Reading from standard input
************************** Dump of input data file ****************************
# -----------------------------------------------------------------------------
# FDF for interstitial H in a cubic c-Si supercell with 64 atoms
#
# E. Artacho, April 1999
# -----------------------------------------------------------------------------
SystemName          H in 64-atom silicon
SystemLabel         sih
NumberOfAtoms       65
NumberOfSpecies     2
%block ChemicalSpeciesLabel
 1  14  Si
 2   1  H
%endblock ChemicalSpeciesLabel
PAO.BasisSize       SZ
PAO.EnergyShift     300 meV
%block PAO.Basis
  H  1
  0  1
  0.
  0.8
%endblock PAO.Basis
LatticeConstant     5.430 Ang
%block LatticeVectors
  2.000  0.000  0.000
  0.000  2.000  0.000
  0.000  0.000  2.000
%endblock LatticeVectors
MeshCutoff          40.0 Ry
MaxSCFIterations    50
DM.MixingWeight      0.3
DM.NumberPulay       4
DM.Tolerance         1.d-3
DM.UseSaveDM
SolutionMethod       diagon
ElectronicTemperature  25 meV
MD.TypeOfRun         cg
MD.NumCGsteps        50
MD.MaxCGDispl         0.1  Ang
MD.MaxForceTol        0.04 eV/Ang
AtomicCoordinatesFormat  ScaledCartesian
%block AtomicCoordinatesAndAtomicSpecies
    0.000    0.000    0.000   1 #  Si  1
    0.250    0.250    0.250   1 #  Si  2
    0.000    0.500    0.500   1 #  Si  3
    0.250    0.750    0.750   1 #  Si  4
    0.500    0.000    0.500   1 #  Si  5
    0.750    0.250    0.750   1 #  Si  6
    0.500    0.500    0.000   1 #  Si  7
    0.750    0.750    0.250   1 #  Si  8
    1.000    0.000    0.000   1 #  Si  9
    1.250    0.250    0.250   1 #  Si 10
    1.000    0.500    0.500   1 #  Si 11
    1.250    0.750    0.750   1 #  Si 12
    1.500    0.000    0.500   1 #  Si 13
    1.750    0.250    0.750   1 #  Si 14
    1.500    0.500    0.000   1 #  Si 15
    1.750    0.750    0.250   1 #  Si 16
    0.000    1.000    0.000   1 #  Si 17
    0.250    1.250    0.250   1 #  Si 18
    0.000    1.500    0.500   1 #  Si 19
    0.250    1.750    0.750   1 #  Si 20
    0.500    1.000    0.500   1 #  Si 21
    0.750    1.250    0.750   1 #  Si 22
    0.500    1.500    0.000   1 #  Si 23
    0.750    1.750    0.250   1 #  Si 24
    0.000    0.000    1.000   1 #  Si 25
    0.250    0.250    1.250   1 #  Si 26
    0.000    0.500    1.500   1 #  Si 27
    0.250    0.750    1.750   1 #  Si 28
    0.500    0.000    1.500   1 #  Si 29
    0.750    0.250    1.750   1 #  Si 30
    0.500    0.500    1.000   1 #  Si 31
    0.750    0.750    1.250   1 #  Si 32
    1.000    1.000    0.000   1 #  Si 33
    1.250    1.250    0.250   1 #  Si 34
    1.000    1.500    0.500   1 #  Si 35
    1.250    1.750    0.750   1 #  Si 36
    1.500    1.000    0.500   1 #  Si 37
    1.750    1.250    0.750   1 #  Si 38
    1.500    1.500    0.000   1 #  Si 39
    1.750    1.750    0.250   1 #  Si 40
    1.000    0.000    1.000   1 #  Si 41
    1.250    0.250    1.250   1 #  Si 42
    1.000    0.500    1.500   1 #  Si 43
    1.250    0.750    1.750   1 #  Si 44
    1.500    0.000    1.500   1 #  Si 45
    1.750    0.250    1.750   1 #  Si 46
    1.500    0.500    1.000   1 #  Si 47
    1.750    0.750    1.250   1 #  Si 48
    0.000    1.000    1.000   1 #  Si 49
    0.250    1.250    1.250   1 #  Si 50
    0.000    1.500    1.500   1 #  Si 51
    0.250    1.750    1.750   1 #  Si 52
    0.500    1.000    1.500   1 #  Si 53
    0.750    1.250    1.750   1 #  Si 54
    0.500    1.500    1.000   1 #  Si 55
    0.750    1.750    1.250   1 #  Si 56
    1.000    1.000    1.000   1 #  Si 57
    1.250    1.250    1.250   1 #  Si 58
    1.000    1.500    1.500   1 #  Si 59
    1.250    1.750    1.750   1 #  Si 60
    1.500    1.000    1.500   1 #  Si 61
    1.750    1.250    1.750   1 #  Si 62
    1.500    1.500    1.000   1 #  Si 63
    1.750    1.750    1.250   1 #  Si 64
    1.125    1.125    1.125   2 #  H  65
%endblock AtomicCoordinatesAndAtomicSpecies
************************** End of input data file *****************************

reinit: -----------------------------------------------------------------------
reinit: System Name: H in 64-atom silicon
reinit: -----------------------------------------------------------------------
reinit: System Label: sih                                                         
reinit: -----------------------------------------------------------------------

initatom: Reading input for the pseudopotentials and atomic orbitals ----------
 Species number:            1  Label: Si Atomic number:          14
 Species number:            2  Label: H Atomic number:           1
Ground state valence configuration:   3s02  3p02
Reading pseudopotential information in formatted form from Si.psf

Valence configuration for pseudopotential generation:
3s( 2.00) rc: 1.89
3p( 2.00) rc: 1.89
3d( 0.00) rc: 1.89
4f( 0.00) rc: 1.89
Ground state valence configuration:   1s01
Reading pseudopotential information in formatted form from H.psf

Valence configuration for pseudopotential generation:
1s( 1.00) rc: 1.25
2p( 0.00) rc: 1.25
3d( 0.00) rc: 1.25
4f( 0.00) rc: 1.25
For Si, standard SIESTA heuristics set lmxkb to 2
 (one more than the basis l, including polarization orbitals).
Use PS.lmax or PS.KBprojectors blocks to override.
For H, standard SIESTA heuristics set lmxkb to 1
 (one more than the basis l, including polarization orbitals).
Use PS.lmax or PS.KBprojectors blocks to override.

<basis_specs>
===============================================================================
Si                   Z=  14    Mass=  28.090        Charge= 0.17977+309
Lmxo=1 Lmxkb= 2    BasisType=split      Semic=F
L=0  Nsemic=0  Cnfigmx=3
          n=1  nzeta=1  polorb=0
            splnorm:   0.15000    
               vcte:    0.0000    
               rinn:    0.0000    
               qcoe:    0.0000    
               qyuk:    0.0000    
               qwid:   0.10000E-01
                rcs:    0.0000    
            lambdas:    1.0000    
L=1  Nsemic=0  Cnfigmx=3
          n=1  nzeta=1  polorb=0
            splnorm:   0.15000    
               vcte:    0.0000    
               rinn:    0.0000    
               qcoe:    0.0000    
               qyuk:    0.0000    
               qwid:   0.10000E-01
                rcs:    0.0000    
            lambdas:    1.0000    
-------------------------------------------------------------------------------
L=0  Nkbl=1  erefs: 0.17977+309
L=1  Nkbl=1  erefs: 0.17977+309
L=2  Nkbl=1  erefs: 0.17977+309
===============================================================================
</basis_specs>

atom: Called for Si                    (Z =  14)

read_vps: Pseudopotential generation method:
read_vps: ATM3      Troullier-Martins                       
Total valence charge:    4.00000

xc_check: Exchange-correlation functional:
xc_check: Ceperley-Alder
V l=0 = -2*Zval/r beyond r=  2.5494
V l=1 = -2*Zval/r beyond r=  2.5494
V l=2 = -2*Zval/r beyond r=  2.5494
All V_l potentials equal beyond r=  1.8652
This should be close to max(r_c) in ps generation
All pots = -2*Zval/r beyond r=  2.5494
Using large-core scheme for Vlocal

atom: Estimated core radius    2.54944

atom: Including non-local core corrections could be a good idea
atom: Maximum radius for 4*pi*r*r*local-pseudopot. charge    2.85303
atom: Maximum radius for r*vlocal+2*Zval:    2.58151
GHOST: No ghost state for L =  0
GHOST: No ghost state for L =  1
GHOST: No ghost state for L =  2

KBgen: Kleinman-Bylander projectors: 
   l= 0   rc=  1.936440   el= -0.796617   Ekb=  4.661340   kbcos=  0.299756
   l= 1   rc=  1.936440   el= -0.307040   Ekb=  1.494238   kbcos=  0.301471
   l= 2   rc=  1.936440   el=  0.002313   Ekb= -2.808672   kbcos= -0.054903

KBgen: Total number of  Kleinman-Bylander projectors:    9
atom: -------------------------------------------------------------------------

atom: SANKEY-TYPE ORBITALS:

SPLIT: Orbitals with angular momentum L= 0

SPLIT: Basis orbitals for state 3s

SPLIT: PAO cut-off radius determined from an
SPLIT: energy shift=  0.022049 Ry

   izeta = 1
                 lambda =    1.000000
                     rc =    4.883716
                 energy =   -0.773554
                kinetic =    0.585471
    potential(screened) =   -1.359025
       potential(ionic) =   -3.840954

SPLIT: Orbitals with angular momentum L= 1

SPLIT: Basis orbitals for state 3p

SPLIT: PAO cut-off radius determined from an
SPLIT: energy shift=  0.022049 Ry

   izeta = 1
                 lambda =    1.000000
                     rc =    6.116033
                 energy =   -0.285742
                kinetic =    0.892202
    potential(screened) =   -1.177944
       potential(ionic) =   -3.446720
atom: Total number of Sankey-type orbitals:  4

atm_pop: Valence configuration (for local Pseudopot. screening):
 3s( 2.00)                                                            
 3p( 2.00)                                                            
Vna: chval, zval:    4.00000   4.00000

Vna:  Cut-off radius for the neutral-atom potential:   6.116033

atom: _________________________________________________________________________

<basis_specs>
===============================================================================
H                    Z=   1    Mass=  1.0100        Charge= 0.17977+309
Lmxo=0 Lmxkb= 1    BasisType=split      Semic=F
L=0  Nsemic=0  Cnfigmx=1
          n=1  nzeta=1  polorb=0
            splnorm:   0.15000    
               vcte:    0.0000    
               rinn:    0.0000    
               qcoe:    0.0000    
               qyuk:    0.0000    
               qwid:   0.10000E-01
                rcs:    0.0000    
            lambdas:   0.80000    
-------------------------------------------------------------------------------
L=0  Nkbl=1  erefs: 0.17977+309
L=1  Nkbl=1  erefs: 0.17977+309
===============================================================================
</basis_specs>

atom: Called for H                     (Z =   1)

read_vps: Pseudopotential generation method:
read_vps: ATM3      Troullier-Martins                       
Total valence charge:    1.00000

xc_check: Exchange-correlation functional:
xc_check: Ceperley-Alder
V l=0 = -2*Zval/r beyond r=  1.2343
V l=1 = -2*Zval/r beyond r=  1.2189
All V_l potentials equal beyond r=  1.2343
This should be close to max(r_c) in ps generation
All pots = -2*Zval/r beyond r=  1.2343

VLOCAL1: 99.0% of the norm of Vloc inside     28.493 Ry
VLOCAL1: 99.9% of the norm of Vloc inside     64.935 Ry
atom: Maximum radius for 4*pi*r*r*local-pseudopot. charge    1.45251
atom: Maximum radius for r*vlocal+2*Zval:    1.21892
GHOST: No ghost state for L =  0
GHOST: No ghost state for L =  1

KBgen: Kleinman-Bylander projectors: 
   l= 0   rc=  1.364359   el= -0.467325   Ekb= -2.005361   kbcos= -0.336422
   l= 1   rc=  1.434438   el=  0.001430   Ekb= -0.501708   kbcos= -0.021697

KBgen: Total number of  Kleinman-Bylander projectors:    4
atom: -------------------------------------------------------------------------

atom: SANKEY-TYPE ORBITALS:

SPLIT: Orbitals with angular momentum L= 0

SPLIT: Basis orbitals for state 1s

SPLIT: PAO cut-off radius determined from an
SPLIT: energy shift=  0.022049 Ry

   izeta = 1
                 lambda =    0.800000
                     rc =    4.718242
                 energy =   -0.396561
                kinetic =    1.341628
    potential(screened) =   -1.738188
       potential(ionic) =   -2.295884
atom: Total number of Sankey-type orbitals:  1

atm_pop: Valence configuration (for local Pseudopot. screening):
 1s( 1.00)                                                            
Vna: chval, zval:    1.00000   1.00000

Vna:  Cut-off radius for the neutral-atom potential:   4.708991

atom: _________________________________________________________________________

prinput: Basis input ----------------------------------------------------------

PAO.BasisType split     

%block ChemicalSpeciesLabel
    1   14 Si                      # Species index, atomic number, species label
    2    1 H                       # Species index, atomic number, species label
%endblock ChemicalSpeciesLabel

%block PAO.Basis                 # Define Basis set
Si                    2                    # Species label, number of l-shells
 n=3   0   1                         # n, l, Nzeta 
   4.884   
   1.000   
 n=3   1   1                         # n, l, Nzeta 
   6.116   
   1.000   
H                     1                    # Species label, number of l-shells
 n=1   0   1                         # n, l, Nzeta 
   4.718   
   0.800   
%endblock PAO.Basis

prinput: ----------------------------------------------------------------------

Dumping basis to NetCDF file Si.ion.nc
Dumping basis to NetCDF file H.ion.nc
coor:   Atomic-coordinates input format  =     Cartesian coordinates
coor:                                          (in units of alat)

siesta: Atomic coordinates (Bohr) and species
siesta:      0.00000   0.00000   0.00000  1        1
siesta:      2.56530   2.56530   2.56530  1        2
siesta:      0.00000   5.13061   5.13061  1        3
siesta:      2.56530   7.69591   7.69591  1        4
siesta:      5.13061   0.00000   5.13061  1        5
siesta:      7.69591   2.56530   7.69591  1        6
siesta:      5.13061   5.13061   0.00000  1        7
siesta:      7.69591   7.69591   2.56530  1        8
siesta:     10.26122   0.00000   0.00000  1        9
siesta:     12.82652   2.56530   2.56530  1       10
siesta:     10.26122   5.13061   5.13061  1       11
siesta:     12.82652   7.69591   7.69591  1       12
siesta:     15.39183   0.00000   5.13061  1       13
siesta:     17.95713   2.56530   7.69591  1       14
siesta:     15.39183   5.13061   0.00000  1       15
siesta:     17.95713   7.69591   2.56530  1       16
siesta:      0.00000  10.26122   0.00000  1       17
siesta:      2.56530  12.82652   2.56530  1       18
siesta:      0.00000  15.39183   5.13061  1       19
siesta:      2.56530  17.95713   7.69591  1       20
siesta:      5.13061  10.26122   5.13061  1       21
siesta:      7.69591  12.82652   7.69591  1       22
siesta:      5.13061  15.39183   0.00000  1       23
siesta:      7.69591  17.95713   2.56530  1       24
siesta:      0.00000   0.00000  10.26122  1       25
siesta:      2.56530   2.56530  12.82652  1       26
siesta:      0.00000   5.13061  15.39183  1       27
siesta:      2.56530   7.69591  17.95713  1       28
siesta:      5.13061   0.00000  15.39183  1       29
siesta:      7.69591   2.56530  17.95713  1       30
siesta:      5.13061   5.13061  10.26122  1       31
siesta:      7.69591   7.69591  12.82652  1       32
siesta:     10.26122  10.26122   0.00000  1       33
siesta:     12.82652  12.82652   2.56530  1       34
siesta:     10.26122  15.39183   5.13061  1       35
siesta:     12.82652  17.95713   7.69591  1       36
siesta:     15.39183  10.26122   5.13061  1       37
siesta:     17.95713  12.82652   7.69591  1       38
siesta:     15.39183  15.39183   0.00000  1       39
siesta:     17.95713  17.95713   2.56530  1       40
siesta:     10.26122   0.00000  10.26122  1       41
siesta:     12.82652   2.56530  12.82652  1       42
siesta:     10.26122   5.13061  15.39183  1       43
siesta:     12.82652   7.69591  17.95713  1       44
siesta:     15.39183   0.00000  15.39183  1       45
siesta:     17.95713   2.56530  17.95713  1       46
siesta:     15.39183   5.13061  10.26122  1       47
siesta:     17.95713   7.69591  12.82652  1       48
siesta:      0.00000  10.26122  10.26122  1       49
siesta:      2.56530  12.82652  12.82652  1       50
siesta:      0.00000  15.39183  15.39183  1       51
siesta:      2.56530  17.95713  17.95713  1       52
siesta:      5.13061  10.26122  15.39183  1       53
siesta:      7.69591  12.82652  17.95713  1       54
siesta:      5.13061  15.39183  10.26122  1       55
siesta:      7.69591  17.95713  12.82652  1       56
siesta:     10.26122  10.26122  10.26122  1       57
siesta:     12.82652  12.82652  12.82652  1       58
siesta:     10.26122  15.39183  15.39183  1       59
siesta:     12.82652  17.95713  17.95713  1       60
siesta:     15.39183  10.26122  15.39183  1       61
siesta:     17.95713  12.82652  17.95713  1       62
siesta:     15.39183  15.39183  10.26122  1       63
siesta:     17.95713  17.95713  12.82652  1       64
siesta:     11.54387  11.54387  11.54387  2       65

siesta: System type = bulk      

initatomlists: Number of atoms, orbitals, and projectors:     65   257   580

siesta: ******************** Simulation parameters ****************************
siesta:
siesta: The following are some of the parameters of the simulation.
siesta: A complete list of the parameters used, including default values,
siesta: can be found in file out.fdf
siesta:
redata: Non-Collinear-spin run           =     F
redata: SpinPolarized (Up/Down) run      =     F
redata: Number of spin components        =     1
redata: Long output                      =     F
redata: Number of Atomic Species         =        2
redata: Charge density info will appear in .RHO file
redata: Write Mulliken Pop.              =     NO
redata: Mesh Cutoff                      =    40.0000  Ry
redata: Net charge of the system         =     0.0000 |e|
redata: Min. number of SCF Iter          =        0
redata: Max. number of SCF Iter          =       50
redata: Mix DM or H after convergence    =     F
redata: Recompute H after scf cycle      =     F
redata: Performing Pulay mixing using    =     4 iterations
redata: Mix DM in first SCF step ?       =     F
redata: Write Pulay info on disk?        =     F
redata: Discard 1st Pulay DM after  kick =     F
redata: New DM Mixing Weight             =     0.3000
redata: New DM Occupancy tolerance       = 0.000000000001
redata: No kicks to SCF
redata: DM Mixing Weight for Kicks       =     0.5000
redata: DM Tolerance for SCF             =     0.001000
redata: Require (free) Energy convergence in SCF =     F
redata: DM (free)Energy tolerance for SCF =     0.000010 eV
redata: Require Harris convergence for SCF =     F
redata: DM Harris energy tolerance for SCF =     0.000010 eV
redata: Using Saved Data (generic)   =     F
redata: Use continuation files for DM    =     T
redata: Neglect nonoverlap interactions  =     F
redata: Method of Calculation            =     Diagonalization
redata: Divide and Conquer               =     T
redata: Electronic Temperature           =     0.0018  Ry
redata: Fix the spin of the system       =     F
redata: Dynamics option                  =     CG coord. optimization
redata: Variable cell                    =     F
redata: Use continuation files for CG    =     F
redata: Max atomic displ per move        =     0.1890  Bohr
redata: Maximum number of CG moves       =       50
redata: Force tolerance                  =     0.0016  Ry/Bohr
redata: ***********************************************************************
Total number of electrons:   257.000000
Total ionic charge:   257.000000

* ProcessorY, Blocksize:    2  24


* Orbital distribution balance (max,min):    48    24

 Kpoints in:            1 . Kpoints trimmed:            1

siesta: k-grid: Number of k-points =     1
siesta: k-grid: Cutoff (effective) =     5.430 Ang
siesta: k-grid: Supercell and displacements
siesta: k-grid:    1   0   0      0.000
siesta: k-grid:    0   1   0      0.000
siesta: k-grid:    0   0   1      0.000

                     ====================================
                        Begin CG opt. move =      0
                     ====================================

outcell: Unit cell vectors (Ang):
       10.860000    0.000000    0.000000
        0.000000   10.860000    0.000000
        0.000000    0.000000   10.860000

outcell: Cell vector modules (Ang)   :   10.860000   10.860000   10.860000
outcell: Cell angles (23,13,12) (deg):     90.0000     90.0000     90.0000
outcell: Cell volume (Ang**3)        :   1280.8241
 Folding of H and S is implicitly performed
New_DM. Step:     1
Initializing Density Matrix...
New grid distribution:   1
           1       1:   24    1:   12    1:    6
           2       1:   24    1:   12    7:   12
           3       1:   24    1:   12   13:   18
           4       1:   24    1:   12   19:   24
           5       1:   24   13:   24    1:    6
           6       1:   24   13:   24    7:   12
           7       1:   24   13:   24   13:   18
           8       1:   24   13:   24   19:   24

InitMesh: MESH =    48 x    48 x    48 =      110592
InitMesh: (bp) =    24 x    24 x    24 =       13824
InitMesh: Mesh cutoff (required, used) =    40.000    53.991 Ry
ExtMesh (bp) on 0 =    56 x    44 x    38 =       93632
New grid distribution:   2
           1       1:   12   13:   24   13:   24
           2      13:   24    1:   12    1:   12
           3      13:   24    1:   12   13:   24
           4      13:   24   13:   24    1:   12
           5       1:   12    1:   12   13:   24
           6       1:   12    1:   12    1:   12
           7      13:   24   13:   24   13:   24
           8       1:   12   13:   24    1:   12
New grid distribution:   3
           1       1:   12   13:   24   13:   24
           2      13:   24    1:   12    1:   12
           3      13:   24    1:   12   13:   24
           4      13:   24   13:   24    1:   12
           5       1:   12    1:   12   13:   24
           6       1:   12    1:   12    1:   12
           7      13:   24   13:   24   13:   24
           8       1:   12   13:   24    1:   12
Setting up quadratic distribution...
ExtMesh (bp) on 0 =    44 x    44 x    44 =       85184
PhiOnMesh: Number of (b)points on node 0 =                 1728
PhiOnMesh: nlist on node 0 =                50324

stepf: Fermi-Dirac step function

siesta: Program's energy decomposition (eV):
siesta: Ebs     =     -2348.063640
siesta: Eions   =     12205.375277
siesta: Ena     =      3677.554544
siesta: Ekin    =      2591.199431
siesta: Enl     =      1150.368409
siesta: DEna    =         0.000014
siesta: DUscf   =         0.000000
siesta: DUext   =         0.000000
siesta: Exc     =     -2083.290181
siesta: eta*DQ  =         0.000000
siesta: Emadel  =         0.000000
siesta: Emeta   =         0.000000
siesta: Emolmec =         0.000000
siesta: Ekinion =         0.000000
siesta: Eharris =     -6847.408181
siesta: Etot    =     -6869.543060
siesta: FreeEng =     -6869.605732

   scf: iscf   Eharris(eV)      E_KS(eV)   FreeEng(eV)    dDmax  Ef(eV)
   scf:    1    -6847.4082    -6869.5431    -6869.6057  1.04096 -2.0995
timer: Routine,Calls,Time,% =    IterSCF     1       0.115  18.91
   scf:    2    -6848.5322    -6844.5898    -6844.6245  0.73862 -3.6120
   scf:    3    -6846.0153    -6845.8288    -6845.8856  0.18803 -2.2220
   scf:    4    -6845.5677    -6844.8994    -6844.9341  0.14518 -2.4521
   scf:    5    -6845.5610    -6844.9200    -6844.9548  0.13394 -2.4412
   scf:    6    -6845.5356    -6845.3180    -6845.3530  0.02483 -2.3668
   scf:    7    -6845.5350    -6845.5248    -6845.5600  0.00117 -2.3574
   scf:    8    -6845.5350    -6845.5478    -6845.5830  0.00091 -2.3582

SCF Convergence by dMax criterion
max |DM_out - DM_in|:     0.00091485
SCF cycle converged after    8 iterations

Using DM_out to compute the final energy and forces

siesta: E_KS(eV) =            -6845.5350

siesta: E_KS - E_eggbox =     -6845.5350

siesta: Atomic forces (eV/Ang):
----------------------------------------
   Tot    0.000000    0.000000   -0.000000
----------------------------------------
   Max    9.571118
   Res    1.679966    sqrt( Sum f_i^2 / 3N )
----------------------------------------
   Max    9.571118    constrained

Stress-tensor-Voigt (kbar):      -77.70      -77.70      -77.70      -15.43      -15.43      -15.43
(Free)E + p*V (eV/cell)    -6783.4543
Target enthalpy (eV/cell)    -6845.5702

                     ====================================
                        Begin CG opt. move =      1
                     ====================================

outcell: Unit cell vectors (Ang):
       10.860000    0.000000    0.000000
        0.000000   10.860000    0.000000
        0.000000    0.000000   10.860000

outcell: Cell vector modules (Ang)   :   10.860000   10.860000   10.860000
outcell: Cell angles (23,13,12) (deg):     90.0000     90.0000     90.0000
outcell: Cell volume (Ang**3)        :   1280.8241
 Folding of H and S is implicitly performed
New_DM. Step:     2
Re-using DM from previous geometry...
Re-using DM without extrapolation (not allowed)
Density Matrix sparsity pattern changed.
New grid distribution:   1
           1       1:   24    1:   12    1:    6
           2       1:   24    1:   12    7:   12
           3       1:   24    1:   12   13:   18
           4       1:   24    1:   12   19:   24
           5       1:   24   13:   24    1:    6
           6       1:   24   13:   24    7:   12
           7       1:   24   13:   24   13:   18
           8       1:   24   13:   24   19:   24

InitMesh: MESH =    48 x    48 x    48 =      110592
InitMesh: (bp) =    24 x    24 x    24 =       13824
InitMesh: Mesh cutoff (required, used) =    40.000    53.991 Ry
ExtMesh (bp) on 0 =    56 x    44 x    38 =       93632
New grid distribution:   2
           1       1:   12   13:   24   13:   24
           2      13:   24    1:   12    1:   12
           3      13:   24    1:   12   13:   24
           4      13:   24   13:   24    1:   12
           5       1:   12    1:   12   13:   24
           6       1:   12    1:   12    1:   12
           7      13:   24   13:   24   13:   24
           8       1:   12   13:   24    1:   12
New grid distribution:   3
           1       1:   12   13:   24   13:   24
           2      13:   24    1:   12    1:   12
           3      13:   24    1:   12   13:   24
           4      13:   24   13:   24    1:   12
           5       1:   12    1:   12   13:   24
           6       1:   12    1:   12    1:   12
           7      13:   24   13:   24   13:   24
           8       1:   12   13:   24    1:   12
Setting up quadratic distribution...
ExtMesh (bp) on 0 =    44 x    44 x    44 =       85184
PhiOnMesh: Number of (b)points on node 0 =                 1728
PhiOnMesh: nlist on node 0 =                50307

   scf: iscf   Eharris(eV)      E_KS(eV)   FreeEng(eV)    dDmax  Ef(eV)
   scf:    1    -6847.7471    -6846.8830    -6846.9181  0.30940 -2.3143
   scf:    2    -6850.1776    -6846.8190    -6846.8607  0.48323 -3.7467
   scf:    3    -6847.5466    -6847.0143    -6847.0490  0.11744 -2.5356
   scf:    4    -6847.5461    -6847.1492    -6847.1839  0.09005 -2.5409
   scf:    5    -6847.5439    -6847.6573    -6847.6920  0.01346 -2.5137
   scf:    6    -6847.5434    -6847.5594    -6847.5941  0.00718 -2.5259
   scf:    7    -6847.5434    -6847.5669    -6847.6015  0.00173 -2.5265
   scf:    8    -6847.5434    -6847.5453    -6847.5800  0.00036 -2.5266

SCF Convergence by dMax criterion
max |DM_out - DM_in|:     0.00035571
SCF cycle converged after    8 iterations

Using DM_out to compute the final energy and forces

siesta: E_KS(eV) =            -6847.5434

siesta: Atomic forces (eV/Ang):
----------------------------------------
   Tot    0.000000    0.000000   -0.000000
----------------------------------------
   Max    6.924411
   Res    1.215680    sqrt( Sum f_i^2 / 3N )
----------------------------------------
   Max    6.924411    constrained

Stress-tensor-Voigt (kbar):      -75.10      -75.10      -75.10      -11.88      -11.88      -11.88
(Free)E + p*V (eV/cell)    -6787.5419
Target enthalpy (eV/cell)    -6847.5780

                     ====================================
                        Begin CG opt. move =      2
                     ====================================

outcell: Unit cell vectors (Ang):
       10.860000    0.000000    0.000000
        0.000000   10.860000    0.000000
        0.000000    0.000000   10.860000

outcell: Cell vector modules (Ang)   :   10.860000   10.860000   10.860000
outcell: Cell angles (23,13,12) (deg):     90.0000     90.0000     90.0000
outcell: Cell volume (Ang**3)        :   1280.8241
 Folding of H and S is implicitly performed
New_DM. Step:     3
Re-using DM from previous geometry...
Re-using DM without extrapolation (not allowed)
New grid distribution:   1
           1       1:   24    1:   12    1:    6
           2       1:   24    1:   12    7:   12
           3       1:   24    1:   12   13:   18
           4       1:   24    1:   12   19:   24
           5       1:   24   13:   24    1:    6
           6       1:   24   13:   24    7:   12
           7       1:   24   13:   24   13:   18
           8       1:   24   13:   24   19:   24

InitMesh: MESH =    48 x    48 x    48 =      110592
InitMesh: (bp) =    24 x    24 x    24 =       13824
InitMesh: Mesh cutoff (required, used) =    40.000    53.991 Ry
ExtMesh (bp) on 0 =    56 x    44 x    38 =       93632
New grid distribution:   2
           1       1:   12   13:   24   13:   24
           2      13:   24    1:   12    1:   12
           3      13:   24    1:   12   13:   24
           4      13:   24   13:   24    1:   12
           5       1:   12    1:   12   13:   24
           6       1:   12    1:   12    1:   12
           7      13:   24   13:   24   13:   24
           8       1:   12   13:   24    1:   12
New grid distribution:   3
           1       1:   12   13:   24   13:   24
           2      13:   24    1:   12    1:   12
           3      13:   24    1:   12   13:   24
           4      13:   24   13:   24    1:   12
           5       1:   12    1:   12   13:   24
           6       1:   12    1:   12    1:   12
           7      13:   24   13:   24   13:   24
           8       1:   12   13:   24    1:   12
Setting up quadratic distribution...
ExtMesh (bp) on 0 =    44 x    44 x    44 =       85184
PhiOnMesh: Number of (b)points on node 0 =                 1728
PhiOnMesh: nlist on node 0 =                50268

   scf: iscf   Eharris(eV)      E_KS(eV)   FreeEng(eV)    dDmax  Ef(eV)
   scf:    1    -6849.9070    -6848.6141    -6848.6488  0.32624 -2.4813
   scf:    2    -6853.3566    -6848.6684    -6848.7320  0.54447 -3.8186
   scf:    3    -6849.6320    -6848.8073    -6848.8419  0.14242 -2.7549
   scf:    4    -6849.6264    -6849.0585    -6849.0931  0.08473 -2.7960
   scf:    5    -6849.6250    -6849.6211    -6849.6557  0.00560 -2.8110
   scf:    6    -6849.6247    -6849.6596    -6849.6942  0.00496 -2.8016
   scf:    7    -6849.6246    -6849.6426    -6849.6773  0.00104 -2.7949
   scf:    8    -6849.6246    -6849.6265    -6849.6612  0.00070 -2.7949

SCF Convergence by dMax criterion
max |DM_out - DM_in|:     0.00070367
SCF cycle converged after    8 iterations

Using DM_out to compute the final energy and forces

siesta: E_KS(eV) =            -6849.6246

siesta: Atomic forces (eV/Ang):
----------------------------------------
   Tot    0.000000   -0.000000    0.000000
----------------------------------------
   Max    3.844145
   Res    0.681464    sqrt( Sum f_i^2 / 3N )
----------------------------------------
   Max    3.844145    constrained

Stress-tensor-Voigt (kbar):      -72.88      -72.88      -72.88       -7.15       -7.15       -7.15
(Free)E + p*V (eV/cell)    -6791.4000
Target enthalpy (eV/cell)    -6849.6592

                     ====================================
                        Begin CG opt. move =      3
                     ====================================

outcell: Unit cell vectors (Ang):
       10.860000    0.000000    0.000000
        0.000000   10.860000    0.000000
        0.000000    0.000000   10.860000

outcell: Cell vector modules (Ang)   :   10.860000   10.860000   10.860000
outcell: Cell angles (23,13,12) (deg):     90.0000     90.0000     90.0000
outcell: Cell volume (Ang**3)        :   1280.8241
 Folding of H and S is implicitly performed
New_DM. Step:     4
Re-using DM from previous geometry...
Re-using DM without extrapolation (not allowed)
Density Matrix sparsity pattern changed.
New grid distribution:   1
           1       1:   24    1:   12    1:    6
           2       1:   24    1:   12    7:   12
           3       1:   24    1:   12   13:   18
           4       1:   24    1:   12   19:   24
           5       1:   24   13:   24    1:    6
           6       1:   24   13:   24    7:   12
           7       1:   24   13:   24   13:   18
           8       1:   24   13:   24   19:   24

InitMesh: MESH =    48 x    48 x    48 =      110592
InitMesh: (bp) =    24 x    24 x    24 =       13824
InitMesh: Mesh cutoff (required, used) =    40.000    53.991 Ry
ExtMesh (bp) on 0 =    56 x    44 x    38 =       93632
New grid distribution:   2
           1       1:   12   13:   24   13:   24
           2      13:   24    1:   12    1:   12
           3      13:   24    1:   12   13:   24
           4      13:   24   13:   24    1:   12
           5       1:   12    1:   12   13:   24
           6       1:   12    1:   12    1:   12
           7      13:   24   13:   24   13:   24
           8       1:   12   13:   24    1:   12
New grid distribution:   3
           1       1:   12   13:   24   13:   24
           2      13:   24    1:   12    1:   12
           3      13:   24    1:   12   13:   24
           4      13:   24   13:   24    1:   12
           5       1:   12    1:   12   13:   24
           6       1:   12    1:   12    1:   12
           7      13:   24   13:   24   13:   24
           8       1:   12   13:   24    1:   12
Setting up quadratic distribution...
ExtMesh (bp) on 0 =    44 x    44 x    44 =       85184
PhiOnMesh: Number of (b)points on node 0 =                 1728
PhiOnMesh: nlist on node 0 =                50188

   scf: iscf   Eharris(eV)      E_KS(eV)   FreeEng(eV)    dDmax  Ef(eV)
   scf:    1    -6851.0530    -6849.9905    -6850.0252  0.23846 -2.8908
   scf:    2    -6852.2552    -6850.5332    -6850.6031  0.33698 -3.8714
   scf:    3    -6850.9349    -6850.2721    -6850.3068  0.10671 -3.0361
   scf:    4    -6850.9220    -6850.5682    -6850.6029  0.02919 -3.0944
   scf:    5    -6850.9205    -6850.7834    -6850.8180  0.00729 -3.1102
   scf:    6    -6850.9203    -6850.8652    -6850.8998  0.00449 -3.1137
   scf:    7    -6850.9201    -6850.9214    -6850.9560  0.00157 -3.1295
   scf:    8    -6850.9200    -6850.9230    -6850.9576  0.00136 -3.1263
   scf:    9    -6850.9200    -6850.9207    -6850.9554  0.00080 -3.1272

SCF Convergence by dMax criterion
max |DM_out - DM_in|:     0.00080420
SCF cycle converged after    9 iterations

Using DM_out to compute the final energy and forces

siesta: E_KS(eV) =            -6850.9200

siesta: Atomic forces (eV/Ang):
----------------------------------------
   Tot   -0.000000   -0.000000   -0.000000
----------------------------------------
   Max    0.791400
   Res    0.241792    sqrt( Sum f_i^2 / 3N )
----------------------------------------
   Max    0.791400    constrained

Stress-tensor-Voigt (kbar):      -70.87      -70.87      -70.87       -1.48       -1.48       -1.48
(Free)E + p*V (eV/cell)    -6794.3004
Target enthalpy (eV/cell)    -6850.9547

                     ====================================
                        Begin CG opt. move =      4
                     ====================================

outcell: Unit cell vectors (Ang):
       10.860000    0.000000    0.000000
        0.000000   10.860000    0.000000
        0.000000    0.000000   10.860000

outcell: Cell vector modules (Ang)   :   10.860000   10.860000   10.860000
outcell: Cell angles (23,13,12) (deg):     90.0000     90.0000     90.0000
outcell: Cell volume (Ang**3)        :   1280.8241
 Folding of H and S is implicitly performed
New_DM. Step:     5
Re-using DM from previous geometry...
Re-using DM without extrapolation (not allowed)
Density Matrix sparsity pattern changed.
New grid distribution:   1
           1       1:   24    1:   12    1:    6
           2       1:   24    1:   12    7:   12
           3       1:   24    1:   12   13:   18
           4       1:   24    1:   12   19:   24
           5       1:   24   13:   24    1:    6
           6       1:   24   13:   24    7:   12
           7       1:   24   13:   24   13:   18
           8       1:   24   13:   24   19:   24

InitMesh: MESH =    48 x    48 x    48 =      110592
InitMesh: (bp) =    24 x    24 x    24 =       13824
InitMesh: Mesh cutoff (required, used) =    40.000    53.991 Ry
ExtMesh (bp) on 0 =    56 x    44 x    38 =       93632
New grid distribution:   2
           1       1:   12   13:   24   13:   24
           2      13:   24    1:   12    1:   12
           3      13:   24    1:   12   13:   24
           4      13:   24   13:   24    1:   12
           5       1:   12    1:   12   13:   24
           6       1:   12    1:   12    1:   12
           7      13:   24   13:   24   13:   24
           8       1:   12   13:   24    1:   12
New grid distribution:   3
           1       1:   12   13:   24   13:   24
           2      13:   24    1:   12    1:   12
           3      13:   24    1:   12   13:   24
           4      13:   24   13:   24    1:   12
           5       1:   12    1:   12   13:   24
           6       1:   12    1:   12    1:   12
           7      13:   24   13:   24   13:   24
           8       1:   12   13:   24    1:   12
Setting up quadratic distribution...
ExtMesh (bp) on 0 =    44 x    44 x    44 =       85184
PhiOnMesh: Number of (b)points on node 0 =                 1728
PhiOnMesh: nlist on node 0 =                50113

   scf: iscf   Eharris(eV)      E_KS(eV)   FreeEng(eV)    dDmax  Ef(eV)
   scf:    1    -6850.8264    -6850.6777    -6850.7123  0.08100 -3.4795
   scf:    2    -6850.9500    -6850.7511    -6850.7857  0.05636 -3.0885
   scf:    3    -6850.8044    -6850.7373    -6850.7720  0.02880 -3.3872
   scf:    4    -6850.8017    -6850.7749    -6850.8095  0.00706 -3.3468
   scf:    5    -6850.8014    -6850.7858    -6850.8205  0.00212 -3.3565
   scf:    6    -6850.8014    -6850.7922    -6850.8269  0.00066 -3.3573

SCF Convergence by dMax criterion
max |DM_out - DM_in|:     0.00065588
SCF cycle converged after    6 iterations

Using DM_out to compute the final energy and forces

siesta: E_KS(eV) =            -6850.8014

siesta: Atomic forces (eV/Ang):
----------------------------------------
   Tot   -0.000000   -0.000000    0.000000
----------------------------------------
   Max    0.926387
   Res    0.325310    sqrt( Sum f_i^2 / 3N )
----------------------------------------
   Max    0.926387    constrained

Stress-tensor-Voigt (kbar):      -70.37      -70.37      -70.37        2.41        2.41        2.41
(Free)E + p*V (eV/cell)    -6794.5826
Target enthalpy (eV/cell)    -6850.8360

                     ====================================
                        Begin CG opt. move =      5
                     ====================================

outcell: Unit cell vectors (Ang):
       10.860000    0.000000    0.000000
        0.000000   10.860000    0.000000
        0.000000    0.000000   10.860000

outcell: Cell vector modules (Ang)   :   10.860000   10.860000   10.860000
outcell: Cell angles (23,13,12) (deg):     90.0000     90.0000     90.0000
outcell: Cell volume (Ang**3)        :   1280.8241
 Folding of H and S is implicitly performed
New_DM. Step:     6
Re-using DM from previous geometry...
Re-using DM without extrapolation (not allowed)
Density Matrix sparsity pattern changed.
New grid distribution:   1
           1       1:   24    1:   12    1:    6
           2       1:   24    1:   12    7:   12
           3       1:   24    1:   12   13:   18
           4       1:   24    1:   12   19:   24
           5       1:   24   13:   24    1:    6
           6       1:   24   13:   24    7:   12
           7       1:   24   13:   24   13:   18
           8       1:   24   13:   24   19:   24

InitMesh: MESH =    48 x    48 x    48 =      110592
InitMesh: (bp) =    24 x    24 x    24 =       13824
InitMesh: Mesh cutoff (required, used) =    40.000    53.991 Ry
ExtMesh (bp) on 0 =    56 x    44 x    38 =       93632
New grid distribution:   2
           1       1:   12   13:   24   13:   24
           2      13:   24    1:   12    1:   12
           3      13:   24    1:   12   13:   24
           4      13:   24   13:   24    1:   12
           5       1:   12    1:   12   13:   24
           6       1:   12    1:   12    1:   12
           7      13:   24   13:   24   13:   24
           8       1:   12   13:   24    1:   12
New grid distribution:   3
           1       1:   12   13:   24   13:   24
           2      13:   24    1:   12    1:   12
           3      13:   24    1:   12   13:   24
           4      13:   24   13:   24    1:   12
           5       1:   12    1:   12   13:   24
           6       1:   12    1:   12    1:   12
           7      13:   24   13:   24   13:   24
           8       1:   12   13:   24    1:   12
Setting up quadratic distribution...
ExtMesh (bp) on 0 =    44 x    44 x    44 =       85184
PhiOnMesh: Number of (b)points on node 0 =                 1728
PhiOnMesh: nlist on node 0 =                50148

   scf: iscf   Eharris(eV)      E_KS(eV)   FreeEng(eV)    dDmax  Ef(eV)
   scf:    1    -6851.0207    -6851.0830    -6851.1177  0.03217 -3.1175
   scf:    2    -6851.1829    -6850.9371    -6850.9718  0.06956 -3.5790
   scf:    3    -6850.9977    -6851.0238    -6851.0584  0.02015 -3.2288
   scf:    4    -6850.9972    -6850.9914    -6851.0261  0.00847 -3.2516
   scf:    5    -6850.9970    -6850.9908    -6851.0255  0.00258 -3.2432
   scf:    6    -6850.9970    -6850.9934    -6851.0280  0.00082 -3.2427

SCF Convergence by dMax criterion
max |DM_out - DM_in|:     0.00081970
SCF cycle converged after    6 iterations

Using DM_out to compute the final energy and forces

siesta: E_KS(eV) =            -6850.9970

siesta: Atomic forces (eV/Ang):
----------------------------------------
   Tot    0.000000   -0.000000    0.000000
----------------------------------------
   Max    0.772127
   Res    0.240177    sqrt( Sum f_i^2 / 3N )
----------------------------------------
   Max    0.772127    constrained

Stress-tensor-Voigt (kbar):      -70.47      -70.47      -70.47        0.39        0.39        0.39
(Free)E + p*V (eV/cell)    -6794.6965
Target enthalpy (eV/cell)    -6851.0316

cgvc: Finished line minimization    1.  Mean atomic displacement =    0.1024

                     ====================================
                        Begin CG opt. move =      6
                     ====================================

outcell: Unit cell vectors (Ang):
       10.860000    0.000000    0.000000
        0.000000   10.860000    0.000000
        0.000000    0.000000   10.860000

outcell: Cell vector modules (Ang)   :   10.860000   10.860000   10.860000
outcell: Cell angles (23,13,12) (deg):     90.0000     90.0000     90.0000
outcell: Cell volume (Ang**3)        :   1280.8241
 Folding of H and S is implicitly performed
New_DM. Step:     7
Re-using DM from previous geometry...
Re-using DM without extrapolation (not allowed)
Density Matrix sparsity pattern changed.
New grid distribution:   1
           1       1:   24    1:   12    1:    6
           2       1:   24    1:   12    7:   12
           3       1:   24    1:   12   13:   18
           4       1:   24    1:   12   19:   24
           5       1:   24   13:   24    1:    6
           6       1:   24   13:   24    7:   12
           7       1:   24   13:   24   13:   18
           8       1:   24   13:   24   19:   24

InitMesh: MESH =    48 x    48 x    48 =      110592
InitMesh: (bp) =    24 x    24 x    24 =       13824
InitMesh: Mesh cutoff (required, used) =    40.000    53.991 Ry
ExtMesh (bp) on 0 =    56 x    44 x    38 =       93632
New grid distribution:   2
           1       1:   12   13:   24   13:   24
           2      13:   24    1:   12    1:   12
           3      13:   24    1:   12   13:   24
           4      13:   24   13:   24    1:   12
           5       1:   12    1:   12   13:   24
           6       1:   12    1:   12    1:   12
           7      13:   24   13:   24   13:   24
           8       1:   12   13:   24    1:   12
New grid distribution:   3
           1       1:   12   13:   24   13:   24
           2      13:   24    1:   12    1:   12
           3      13:   24    1:   12   13:   24
           4      13:   24   13:   24    1:   12
           5       1:   12    1:   12   13:   24
           6       1:   12    1:   12    1:   12
           7      13:   24   13:   24   13:   24
           8       1:   12   13:   24    1:   12
Setting up quadratic distribution...
ExtMesh (bp) on 0 =    44 x    44 x    44 =       85184
PhiOnMesh: Number of (b)points on node 0 =                 1728
PhiOnMesh: nlist on node 0 =                50289

   scf: iscf   Eharris(eV)      E_KS(eV)   FreeEng(eV)    dDmax  Ef(eV)
   scf:    1    -6851.0369    -6851.2823    -6851.3170  0.20437 -3.3736
   scf:    2    -6852.4584    -6850.1394    -6850.2205  0.32746 -2.2724
   scf:    3    -6850.7548    -6850.9480    -6850.9826  0.06558 -3.0022
   scf:    4    -6850.7413    -6850.8450    -6850.8797  0.03451 -2.9565
   scf:    5    -6850.7378    -6850.6990    -6850.7336  0.00476 -2.9390
   scf:    6    -6850.7375    -6850.7083    -6850.7429  0.00176 -2.9443
   scf:    7    -6850.7374    -6850.7201    -6850.7547  0.00049 -2.9375

SCF Convergence by dMax criterion
max |DM_out - DM_in|:     0.00048560
SCF cycle converged after    7 iterations

Using DM_out to compute the final energy and forces

siesta: E_KS(eV) =            -6850.7373

siesta: Atomic forces (eV/Ang):
----------------------------------------
   Tot   -0.000000   -0.000000   -0.000000
----------------------------------------
   Max    1.074747
   Res    0.364766    sqrt( Sum f_i^2 / 3N )
----------------------------------------
   Max    1.074747    constrained

Stress-tensor-Voigt (kbar):      -71.03      -71.03      -71.03       -6.70       -6.70       -6.70
(Free)E + p*V (eV/cell)    -6793.9872
Target enthalpy (eV/cell)    -6850.7720

                     ====================================
                        Begin CG opt. move =      7
                     ====================================

outcell: Unit cell vectors (Ang):
       10.860000    0.000000    0.000000
        0.000000   10.860000    0.000000
        0.000000    0.000000   10.860000

outcell: Cell vector modules (Ang)   :   10.860000   10.860000   10.860000
outcell: Cell angles (23,13,12) (deg):     90.0000     90.0000     90.0000
outcell: Cell volume (Ang**3)        :   1280.8241
 Folding of H and S is implicitly performed
New_DM. Step:     8
Re-using DM from previous geometry...
Re-using DM without extrapolation (not allowed)
Density Matrix sparsity pattern changed.
New grid distribution:   1
           1       1:   24    1:   12    1:    6
           2       1:   24    1:   12    7:   12
           3       1:   24    1:   12   13:   18
           4       1:   24    1:   12   19:   24
           5       1:   24   13:   24    1:    6
           6       1:   24   13:   24    7:   12
           7       1:   24   13:   24   13:   18
           8       1:   24   13:   24   19:   24

InitMesh: MESH =    48 x    48 x    48 =      110592
InitMesh: (bp) =    24 x    24 x    24 =       13824
InitMesh: Mesh cutoff (required, used) =    40.000    53.991 Ry
ExtMesh (bp) on 0 =    56 x    44 x    38 =       93632
New grid distribution:   2
           1       1:   12   13:   24   13:   24
           2      13:   24    1:   12    1:   12
           3      13:   24    1:   12   13:   24
           4      13:   24   13:   24    1:   12
           5       1:   12    1:   12   13:   24
           6       1:   12    1:   12    1:   12
           7      13:   24   13:   24   13:   24
           8       1:   12   13:   24    1:   12
New grid distribution:   3
           1       1:   12   13:   24   13:   24
           2      13:   24    1:   12    1:   12
           3      13:   24    1:   12   13:   24
           4      13:   24   13:   24    1:   12
           5       1:   12    1:   12   13:   24
           6       1:   12    1:   12    1:   12
           7      13:   24   13:   24   13:   24
           8       1:   12   13:   24    1:   12
Setting up quadratic distribution...
ExtMesh (bp) on 0 =    44 x    44 x    44 =       85184
PhiOnMesh: Number of (b)points on node 0 =                 1728
PhiOnMesh: nlist on node 0 =                50222

   scf: iscf   Eharris(eV)      E_KS(eV)   FreeEng(eV)    dDmax  Ef(eV)
   scf:    1    -6851.3723    -6850.9789    -6851.0135  0.12274 -2.8620
   scf:    2    -6851.8461    -6851.0489    -6851.0851  0.16243 -3.7765
   scf:    3    -6851.2718    -6851.0778    -6851.1125  0.02817 -3.0899
   scf:    4    -6851.2698    -6851.1818    -6851.2164  0.01312 -3.1092
   scf:    5    -6851.2691    -6851.2793    -6851.3139  0.00344 -3.0952
   scf:    6    -6851.2691    -6851.2802    -6851.3148  0.00168 -3.0983
   scf:    7    -6851.2690    -6851.2731    -6851.3077  0.00017 -3.0970

SCF Convergence by dMax criterion
max |DM_out - DM_in|:     0.00016686
SCF cycle converged after    7 iterations

Using DM_out to compute the final energy and forces

siesta: E_KS(eV) =            -6851.2690

siesta: Atomic forces (eV/Ang):
----------------------------------------
   Tot    0.000000    0.000000    0.000000
----------------------------------------
   Max    0.209859
   Res    0.103738    sqrt( Sum f_i^2 / 3N )
----------------------------------------
   Max    0.209859    constrained

Stress-tensor-Voigt (kbar):      -69.44      -69.44      -69.44       -3.07       -3.07       -3.07
(Free)E + p*V (eV/cell)    -6795.7907
Target enthalpy (eV/cell)    -6851.3037

cgvc: Finished line minimization    2.  Mean atomic displacement =    0.0460

                     ====================================
                        Begin CG opt. move =      8
                     ====================================

outcell: Unit cell vectors (Ang):
       10.860000    0.000000    0.000000
        0.000000   10.860000    0.000000
        0.000000    0.000000   10.860000

outcell: Cell vector modules (Ang)   :   10.860000   10.860000   10.860000
outcell: Cell angles (23,13,12) (deg):     90.0000     90.0000     90.0000
outcell: Cell volume (Ang**3)        :   1280.8241
 Folding of H and S is implicitly performed
New_DM. Step:     9
Re-using DM from previous geometry...
Re-using DM without extrapolation (not allowed)
Density Matrix sparsity pattern changed.
New grid distribution:   1
           1       1:   24    1:   12    1:    6
           2       1:   24    1:   12    7:   12
           3       1:   24    1:   12   13:   18
           4       1:   24    1:   12   19:   24
           5       1:   24   13:   24    1:    6
           6       1:   24   13:   24    7:   12
           7       1:   24   13:   24   13:   18
           8       1:   24   13:   24   19:   24

InitMesh: MESH =    48 x    48 x    48 =      110592
InitMesh: (bp) =    24 x    24 x    24 =       13824
InitMesh: Mesh cutoff (required, used) =    40.000    53.991 Ry
ExtMesh (bp) on 0 =    56 x    44 x    38 =       93632
New grid distribution:   2
           1       1:   12   13:   24   13:   24
           2      13:   24    1:   12    1:   12
           3      13:   24    1:   12   13:   24
           4      13:   24   13:   24    1:   12
           5       1:   12    1:   12   13:   24
           6       1:   12    1:   12    1:   12
           7      13:   24   13:   24   13:   24
           8       1:   12   13:   24    1:   12
New grid distribution:   3
           1       1:   12   13:   24   13:   24
           2      13:   24    1:   12    1:   12
           3      13:   24    1:   12   13:   24
           4      13:   24   13:   24    1:   12
           5       1:   12    1:   12   13:   24
           6       1:   12    1:   12    1:   12
           7      13:   24   13:   24   13:   24
           8       1:   12   13:   24    1:   12
Setting up quadratic distribution...
ExtMesh (bp) on 0 =    44 x    44 x    44 =       85184
PhiOnMesh: Number of (b)points on node 0 =                 1728
PhiOnMesh: nlist on node 0 =                50203

   scf: iscf   Eharris(eV)      E_KS(eV)   FreeEng(eV)    dDmax  Ef(eV)
   scf:    1    -6851.2673    -6851.3506    -6851.3852  0.02930 -3.1133
   scf:    2    -6851.4173    -6851.1474    -6851.1820  0.04776 -2.8379
   scf:    3    -6851.2267    -6851.2836    -6851.3183  0.01088 -3.0508
   scf:    4    -6851.2250    -6851.2497    -6851.2843  0.00428 -3.0441
   scf:    5    -6851.2245    -6851.2360    -6851.2706  0.00167 -3.0559
   scf:    6    -6851.2245    -6851.2308    -6851.2654  0.00081 -3.0539

SCF Convergence by dMax criterion
max |DM_out - DM_in|:     0.00081208
SCF cycle converged after    6 iterations

Using DM_out to compute the final energy and forces

siesta: E_KS(eV) =            -6851.2245

siesta: Atomic forces (eV/Ang):
----------------------------------------
   Tot    0.000000    0.000000    0.000000
----------------------------------------
   Max    0.334773
   Res    0.158710    sqrt( Sum f_i^2 / 3N )
----------------------------------------
   Max    0.334773    constrained

Stress-tensor-Voigt (kbar):      -70.23      -70.23      -70.23       -3.49       -3.49       -3.49
(Free)E + p*V (eV/cell)    -6795.1168
Target enthalpy (eV/cell)    -6851.2591

                     ====================================
                        Begin CG opt. move =      9
                     ====================================

outcell: Unit cell vectors (Ang):
       10.860000    0.000000    0.000000
        0.000000   10.860000    0.000000
        0.000000    0.000000   10.860000

outcell: Cell vector modules (Ang)   :   10.860000   10.860000   10.860000
outcell: Cell angles (23,13,12) (deg):     90.0000     90.0000     90.0000
outcell: Cell volume (Ang**3)        :   1280.8241
 Folding of H and S is implicitly performed
New_DM. Step:    10
Re-using DM from previous geometry...
Re-using DM without extrapolation (not allowed)
Density Matrix sparsity pattern changed.
New grid distribution:   1
           1       1:   24    1:   12    1:    6
           2       1:   24    1:   12    7:   12
           3       1:   24    1:   12   13:   18
           4       1:   24    1:   12   19:   24
           5       1:   24   13:   24    1:    6
           6       1:   24   13:   24    7:   12
           7       1:   24   13:   24   13:   18
           8       1:   24   13:   24   19:   24

InitMesh: MESH =    48 x    48 x    48 =      110592
InitMesh: (bp) =    24 x    24 x    24 =       13824
InitMesh: Mesh cutoff (required, used) =    40.000    53.991 Ry
ExtMesh (bp) on 0 =    56 x    44 x    38 =       93632
New grid distribution:   2
           1       1:   12   13:   24   13:   24
           2      13:   24    1:   12    1:   12
           3      13:   24    1:   12   13:   24
           4      13:   24   13:   24    1:   12
           5       1:   12    1:   12   13:   24
           6       1:   12    1:   12    1:   12
           7      13:   24   13:   24   13:   24
           8       1:   12   13:   24    1:   12
New grid distribution:   3
           1       1:   12   13:   24   13:   24
           2      13:   24    1:   12    1:   12
           3      13:   24    1:   12   13:   24
           4      13:   24   13:   24    1:   12
           5       1:   12    1:   12   13:   24
           6       1:   12    1:   12    1:   12
           7      13:   24   13:   24   13:   24
           8       1:   12   13:   24    1:   12
Setting up quadratic distribution...
ExtMesh (bp) on 0 =    44 x    44 x    44 =       85184
PhiOnMesh: Number of (b)points on node 0 =                 1728
PhiOnMesh: nlist on node 0 =                50277

   scf: iscf   Eharris(eV)      E_KS(eV)   FreeEng(eV)    dDmax  Ef(eV)
   scf:    1    -6851.3323    -6851.2572    -6851.2919  0.01661 -3.0455
   scf:    2    -6851.3794    -6851.2931    -6851.3277  0.02487 -3.2105
   scf:    3    -6851.3188    -6851.2822    -6851.3168  0.00621 -3.0799
   scf:    4    -6851.3183    -6851.3115    -6851.3461  0.00222 -3.0820
   scf:    5    -6851.3182    -6851.3200    -6851.3546  0.00104 -3.0765
   scf:    6    -6851.3182    -6851.3200    -6851.3547  0.00043 -3.0782

SCF Convergence by dMax criterion
max |DM_out - DM_in|:     0.00043184
SCF cycle converged after    6 iterations

Using DM_out to compute the final energy and forces

siesta: E_KS(eV) =            -6851.3182

siesta: Atomic forces (eV/Ang):
----------------------------------------
   Tot    0.000000    0.000000    0.000000
----------------------------------------
   Max    0.112808
   Res    0.053865    sqrt( Sum f_i^2 / 3N )
----------------------------------------
   Max    0.112808    constrained

Stress-tensor-Voigt (kbar):      -69.80      -69.80      -69.80       -3.14       -3.14       -3.14
(Free)E + p*V (eV/cell)    -6795.5523
Target enthalpy (eV/cell)    -6851.3528

cgvc: Finished line minimization    3.  Mean atomic displacement =    0.0189

                     ====================================
                        Begin CG opt. move =     10
                     ====================================

outcell: Unit cell vectors (Ang):
       10.860000    0.000000    0.000000
        0.000000   10.860000    0.000000
        0.000000    0.000000   10.860000

outcell: Cell vector modules (Ang)   :   10.860000   10.860000   10.860000
outcell: Cell angles (23,13,12) (deg):     90.0000     90.0000     90.0000
outcell: Cell volume (Ang**3)        :   1280.8241
 Folding of H and S is implicitly performed
New_DM. Step:    11
Re-using DM from previous geometry...
Re-using DM without extrapolation (not allowed)
Density Matrix sparsity pattern changed.
New grid distribution:   1
           1       1:   24    1:   12    1:    6
           2       1:   24    1:   12    7:   12
           3       1:   24    1:   12   13:   18
           4       1:   24    1:   12   19:   24
           5       1:   24   13:   24    1:    6
           6       1:   24   13:   24    7:   12
           7       1:   24   13:   24   13:   18
           8       1:   24   13:   24   19:   24

InitMesh: MESH =    48 x    48 x    48 =      110592
InitMesh: (bp) =    24 x    24 x    24 =       13824
InitMesh: Mesh cutoff (required, used) =    40.000    53.991 Ry
ExtMesh (bp) on 0 =    56 x    44 x    38 =       93632
New grid distribution:   2
           1       1:   12   13:   24   13:   24
           2      13:   24    1:   12    1:   12
           3      13:   24    1:   12   13:   24
           4      13:   24   13:   24    1:   12
           5       1:   12    1:   12   13:   24
           6       1:   12    1:   12    1:   12
           7      13:   24   13:   24   13:   24
           8       1:   12   13:   24    1:   12
New grid distribution:   3
           1       1:   12   13:   24   13:   24
           2      13:   24    1:   12    1:   12
           3      13:   24    1:   12   13:   24
           4      13:   24   13:   24    1:   12
           5       1:   12    1:   12   13:   24
           6       1:   12    1:   12    1:   12
           7      13:   24   13:   24   13:   24
           8       1:   12   13:   24    1:   12
Setting up quadratic distribution...
ExtMesh (bp) on 0 =    44 x    44 x    44 =       85184
PhiOnMesh: Number of (b)points on node 0 =                 1728
PhiOnMesh: nlist on node 0 =                50246

   scf: iscf   Eharris(eV)      E_KS(eV)   FreeEng(eV)    dDmax  Ef(eV)
   scf:    1    -6851.3259    -6851.3132    -6851.3478  0.02334 -3.0660
   scf:    2    -6851.3323    -6851.3068    -6851.3415  0.02180 -3.1494
   scf:    3    -6851.3173    -6851.3139    -6851.3486  0.00399 -3.0989
   scf:    4    -6851.3171    -6851.3161    -6851.3508  0.00113 -3.0952
   scf:    5    -6851.3171    -6851.3167    -6851.3514  0.00059 -3.0972

SCF Convergence by dMax criterion
max |DM_out - DM_in|:     0.00058766
SCF cycle converged after    5 iterations

Using DM_out to compute the final energy and forces

siesta: E_KS(eV) =            -6851.3170

siesta: Atomic forces (eV/Ang):
----------------------------------------
   Tot    0.000000   -0.000000   -0.000000
----------------------------------------
   Max    0.211761
   Res    0.072425    sqrt( Sum f_i^2 / 3N )
----------------------------------------
   Max    0.211761    constrained

Stress-tensor-Voigt (kbar):      -69.67      -69.67      -69.67       -1.99       -1.99       -1.99
(Free)E + p*V (eV/cell)    -6795.6527
Target enthalpy (eV/cell)    -6851.3517

                     ====================================
                        Begin CG opt. move =     11
                     ====================================

outcell: Unit cell vectors (Ang):
       10.860000    0.000000    0.000000
        0.000000   10.860000    0.000000
        0.000000    0.000000   10.860000

outcell: Cell vector modules (Ang)   :   10.860000   10.860000   10.860000
outcell: Cell angles (23,13,12) (deg):     90.0000     90.0000     90.0000
outcell: Cell volume (Ang**3)        :   1280.8241
 Folding of H and S is implicitly performed
New_DM. Step:    12
Re-using DM from previous geometry...
Re-using DM without extrapolation (not allowed)
Density Matrix sparsity pattern changed.
New grid distribution:   1
           1       1:   24    1:   12    1:    6
           2       1:   24    1:   12    7:   12
           3       1:   24    1:   12   13:   18
           4       1:   24    1:   12   19:   24
           5       1:   24   13:   24    1:    6
           6       1:   24   13:   24    7:   12
           7       1:   24   13:   24   13:   18
           8       1:   24   13:   24   19:   24

InitMesh: MESH =    48 x    48 x    48 =      110592
InitMesh: (bp) =    24 x    24 x    24 =       13824
InitMesh: Mesh cutoff (required, used) =    40.000    53.991 Ry
ExtMesh (bp) on 0 =    56 x    44 x    38 =       93632
New grid distribution:   2
           1       1:   12   13:   24   13:   24
           2      13:   24    1:   12    1:   12
           3      13:   24    1:   12   13:   24
           4      13:   24   13:   24    1:   12
           5       1:   12    1:   12   13:   24
           6       1:   12    1:   12    1:   12
           7      13:   24   13:   24   13:   24
           8       1:   12   13:   24    1:   12
New grid distribution:   3
           1       1:   12   13:   24   13:   24
           2      13:   24    1:   12    1:   12
           3      13:   24    1:   12   13:   24
           4      13:   24   13:   24    1:   12
           5       1:   12    1:   12   13:   24
           6       1:   12    1:   12    1:   12
           7      13:   24   13:   24   13:   24
           8       1:   12   13:   24    1:   12
Setting up quadratic distribution...
ExtMesh (bp) on 0 =    44 x    44 x    44 =       85184
PhiOnMesh: Number of (b)points on node 0 =                 1728
PhiOnMesh: nlist on node 0 =                50292

   scf: iscf   Eharris(eV)      E_KS(eV)   FreeEng(eV)    dDmax  Ef(eV)
   scf:    1    -6851.3353    -6851.3349    -6851.3696  0.01118 -3.0983
   scf:    2    -6851.3380    -6851.3301    -6851.3647  0.00885 -3.0744
   scf:    3    -6851.3330    -6851.3334    -6851.3680  0.00223 -3.0846
   scf:    4    -6851.3330    -6851.3329    -6851.3675  0.00077 -3.0884

SCF Convergence by dMax criterion
max |DM_out - DM_in|:     0.00077362
SCF cycle converged after    4 iterations

Using DM_out to compute the final energy and forces

siesta: E_KS(eV) =            -6851.3329

siesta: Atomic forces (eV/Ang):
----------------------------------------
   Tot    0.000000   -0.000000    0.000000
----------------------------------------
   Max    0.050160
   Res    0.025140    sqrt( Sum f_i^2 / 3N )
----------------------------------------
   Max    0.050160    constrained

Stress-tensor-Voigt (kbar):      -70.16      -70.16      -70.16       -2.63       -2.63       -2.63
(Free)E + p*V (eV/cell)    -6795.2833
Target enthalpy (eV/cell)    -6851.3675

cgvc: Finished line minimization    4.  Mean atomic displacement =    0.0093

                     ====================================
                        Begin CG opt. move =     12
                     ====================================

outcell: Unit cell vectors (Ang):
       10.860000    0.000000    0.000000
        0.000000   10.860000    0.000000
        0.000000    0.000000   10.860000

outcell: Cell vector modules (Ang)   :   10.860000   10.860000   10.860000
outcell: Cell angles (23,13,12) (deg):     90.0000     90.0000     90.0000
outcell: Cell volume (Ang**3)        :   1280.8241
 Folding of H and S is implicitly performed
New_DM. Step:    13
Re-using DM from previous geometry...
Re-using DM without extrapolation (not allowed)
Density Matrix sparsity pattern changed.
New grid distribution:   1
           1       1:   24    1:   12    1:    6
           2       1:   24    1:   12    7:   12
           3       1:   24    1:   12   13:   18
           4       1:   24    1:   12   19:   24
           5       1:   24   13:   24    1:    6
           6       1:   24   13:   24    7:   12
           7       1:   24   13:   24   13:   18
           8       1:   24   13:   24   19:   24

InitMesh: MESH =    48 x    48 x    48 =      110592
InitMesh: (bp) =    24 x    24 x    24 =       13824
InitMesh: Mesh cutoff (required, used) =    40.000    53.991 Ry
ExtMesh (bp) on 0 =    56 x    44 x    38 =       93632
New grid distribution:   2
           1       1:   12   13:   24   13:   24
           2      13:   24    1:   12    1:   12
           3      13:   24    1:   12   13:   24
           4      13:   24   13:   24    1:   12
           5       1:   12    1:   12   13:   24
           6       1:   12    1:   12    1:   12
           7      13:   24   13:   24   13:   24
           8       1:   12   13:   24    1:   12
New grid distribution:   3
           1       1:   12   13:   24   13:   24
           2      13:   24    1:   12    1:   12
           3      13:   24    1:   12   13:   24
           4      13:   24   13:   24    1:   12
           5       1:   12    1:   12   13:   24
           6       1:   12    1:   12    1:   12
           7      13:   24   13:   24   13:   24
           8       1:   12   13:   24    1:   12
Setting up quadratic distribution...
ExtMesh (bp) on 0 =    44 x    44 x    44 =       85184
PhiOnMesh: Number of (b)points on node 0 =                 1728
PhiOnMesh: nlist on node 0 =                50265

   scf: iscf   Eharris(eV)      E_KS(eV)   FreeEng(eV)    dDmax  Ef(eV)
   scf:    1    -6851.3358    -6851.3513    -6851.3859  0.00480 -3.0621
   scf:    2    -6851.3387    -6851.3318    -6851.3665  0.01146 -3.1304
   scf:    3    -6851.3342    -6851.3415    -6851.3761  0.00171 -3.0812
   scf:    4    -6851.3342    -6851.3353    -6851.3699  0.00091 -3.0864

SCF Convergence by dMax criterion
max |DM_out - DM_in|:     0.00091043
SCF cycle converged after    4 iterations

Using DM_out to compute the final energy and forces

siesta: E_KS(eV) =            -6851.3341

siesta: Atomic forces (eV/Ang):
----------------------------------------
   Tot   -0.000000    0.000000    0.000000
----------------------------------------
   Max    0.077611
   Res    0.029315    sqrt( Sum f_i^2 / 3N )
----------------------------------------
   Max    0.077611    constrained

Stress-tensor-Voigt (kbar):      -69.85      -69.85      -69.85       -2.85       -2.85       -2.85
(Free)E + p*V (eV/cell)    -6795.5256
Target enthalpy (eV/cell)    -6851.3688

                     ====================================
                        Begin CG opt. move =     13
                     ====================================

outcell: Unit cell vectors (Ang):
       10.860000    0.000000    0.000000
        0.000000   10.860000    0.000000
        0.000000    0.000000   10.860000

outcell: Cell vector modules (Ang)   :   10.860000   10.860000   10.860000
outcell: Cell angles (23,13,12) (deg):     90.0000     90.0000     90.0000
outcell: Cell volume (Ang**3)        :   1280.8241
 Folding of H and S is implicitly performed
New_DM. Step:    14
Re-using DM from previous geometry...
Re-using DM without extrapolation (not allowed)
Density Matrix sparsity pattern changed.
New grid distribution:   1
           1       1:   24    1:   12    1:    6
           2       1:   24    1:   12    7:   12
           3       1:   24    1:   12   13:   18
           4       1:   24    1:   12   19:   24
           5       1:   24   13:   24    1:    6
           6       1:   24   13:   24    7:   12
           7       1:   24   13:   24   13:   18
           8       1:   24   13:   24   19:   24

InitMesh: MESH =    48 x    48 x    48 =      110592
InitMesh: (bp) =    24 x    24 x    24 =       13824
InitMesh: Mesh cutoff (required, used) =    40.000    53.991 Ry
ExtMesh (bp) on 0 =    56 x    44 x    38 =       93632
New grid distribution:   2
           1       1:   12   13:   24   13:   24
           2      13:   24    1:   12    1:   12
           3      13:   24    1:   12   13:   24
           4      13:   24   13:   24    1:   12
           5       1:   12    1:   12   13:   24
           6       1:   12    1:   12    1:   12
           7      13:   24   13:   24   13:   24
           8       1:   12   13:   24    1:   12
New grid distribution:   3
           1       1:   12   13:   24   13:   24
           2      13:   24    1:   12    1:   12
           3      13:   24    1:   12   13:   24
           4      13:   24   13:   24    1:   12
           5       1:   12    1:   12   13:   24
           6       1:   12    1:   12    1:   12
           7      13:   24   13:   24   13:   24
           8       1:   12   13:   24    1:   12
Setting up quadratic distribution...
ExtMesh (bp) on 0 =    44 x    44 x    44 =       85184
PhiOnMesh: Number of (b)points on node 0 =                 1728
PhiOnMesh: nlist on node 0 =                50265

   scf: iscf   Eharris(eV)      E_KS(eV)   FreeEng(eV)    dDmax  Ef(eV)
   scf:    1    -6851.3368    -6851.3289    -6851.3635  0.00202 -3.0811
   scf:    2    -6851.3411    -6851.3348    -6851.3694  0.00363 -3.1105
   scf:    3    -6851.3362    -6851.3320    -6851.3666  0.00091 -3.0849

SCF Convergence by dMax criterion
max |DM_out - DM_in|:     0.00091429
SCF cycle converged after    3 iterations

Using DM_out to compute the final energy and forces

siesta: E_KS(eV) =            -6851.3362

siesta: Atomic forces (eV/Ang):
----------------------------------------
   Tot    0.000000    0.000000    0.000000
----------------------------------------
   Max    0.031667
   Res    0.013985    sqrt( Sum f_i^2 / 3N )
----------------------------------------
   Max    0.031667    constrained

Stress-tensor-Voigt (kbar):      -69.74      -69.74      -69.74       -2.79       -2.79       -2.79
(Free)E + p*V (eV/cell)    -6795.6231
Target enthalpy (eV/cell)    -6851.3709

outcoor: Relaxed atomic coordinates (scaled):               
   -0.00033148   -0.00033148   -0.00033148   1       1  Si
    0.25033148    0.25033148    0.25033148   1       2  Si
    0.00023647    0.50093365    0.50093365   1       3  Si
    0.25173232    0.75039469    0.75039469   1       4  Si
    0.50093365    0.00023647    0.50093365   1       5  Si
    0.75039469    0.25173232    0.75039469   1       6  Si
    0.50093365    0.50093365    0.00023647   1       7  Si
    0.75039469    0.75039469    0.25173232   1       8  Si
    1.00040513    0.00146846    0.00146846   1       9  Si
    1.24959487    0.24853154    0.24853154   1      10  Si
    1.00024037    0.49633122    0.49633122   1      11  Si
    1.25581171    0.74030546    0.74030546   1      12  Si
    1.50001276    0.00095584    0.49881061   1      13  Si
    1.75118939    0.24904416    0.74998724   1      14  Si
    1.50001276    0.49881061    0.00095584   1      15  Si
    1.75118939    0.74998724    0.24904416   1      16  Si
    0.00146846    1.00040513    0.00146846   1      17  Si
    0.24853154    1.24959487    0.24853154   1      18  Si
    0.00095584    1.50001276    0.49881061   1      19  Si
    0.24904416    1.75118939    0.74998724   1      20  Si
    0.49633122    1.00024037    0.49633122   1      21  Si
    0.74030546    1.25581171    0.74030546   1      22  Si
    0.49881061    1.50001276    0.00095584   1      23  Si
    0.74998724    1.75118939    0.24904416   1      24  Si
    0.00146846    0.00146846    1.00040513   1      25  Si
    0.24853154    0.24853154    1.24959487   1      26  Si
    0.00095584    0.49881061    1.50001276   1      27  Si
    0.24904416    0.74998724    1.75118939   1      28  Si
    0.49881061    0.00095584    1.50001276   1      29  Si
    0.74998724    0.24904416    1.75118939   1      30  Si
    0.49633122    0.49633122    1.00024037   1      31  Si
    0.74030546    0.74030546    1.25581171   1      32  Si
    0.99970216    0.99970216    0.00132715   1      33  Si
    1.25029784    1.25029784    0.24867285   1      34  Si
    1.00152234    1.50115368    0.49776589   1      35  Si
    1.24847766    1.75223411    0.74884632   1      36  Si
    1.50115368    1.00152234    0.49776589   1      37  Si
    1.75223411    1.24847766    0.74884632   1      38  Si
    1.49960531    1.49960531   -0.00173232   1      39  Si
    1.74906635    1.74906635    0.24976353   1      40  Si
    0.99970216    0.00132715    0.99970216   1      41  Si
    1.25029784    0.24867285    1.25029784   1      42  Si
    1.00152234    0.49776589    1.50115368   1      43  Si
    1.24847766    0.74884632    1.75223411   1      44  Si
    1.49960531   -0.00173232    1.49960531   1      45  Si
    1.74906635    0.24976353    1.74906635   1      46  Si
    1.50115368    0.49776589    1.00152234   1      47  Si
    1.75223411    0.74884632    1.24847766   1      48  Si
    0.00132715    0.99970216    0.99970216   1      49  Si
    0.24867285    1.25029784    1.25029784   1      50  Si
   -0.00173232    1.49960531    1.49960531   1      51  Si
    0.24976353    1.74906635    1.74906635   1      52  Si
    0.49776589    1.00152234    1.50115368   1      53  Si
    0.74884632    1.24847766    1.75223411   1      54  Si
    0.49776589    1.50115368    1.00152234   1      55  Si
    0.74884632    1.75223411    1.24847766   1      56  Si
    0.95148152    0.95148152    0.95148152   1      57  Si
    1.29851848    1.29851848    1.29851848   1      58  Si
    0.99418829    1.50969454    1.50969454   1      59  Si
    1.24975963    1.75366878    1.75366878   1      60  Si
    1.50969454    0.99418829    1.50969454   1      61  Si
    1.75366878    1.24975963    1.75366878   1      62  Si
    1.50969454    1.50969454    0.99418829   1      63  Si
    1.75366878    1.75366878    1.24975963   1      64  Si
    1.12500000    1.12500000    1.12500000   2      65  H

siesta: Program's energy decomposition (eV):
siesta: Ebs     =     -2384.370708
siesta: Eions   =     12205.375277
siesta: Ena     =      3675.792764
siesta: Ekin    =      2573.415956
siesta: Enl     =       951.656288
siesta: DEna    =       213.823971
siesta: DUscf   =         5.345464
siesta: DUext   =         0.000000
siesta: Exc     =     -2065.995383
siesta: eta*DQ  =         0.000000
siesta: Emadel  =         0.000000
siesta: Emeta   =         0.000000
siesta: Emolmec =         0.000000
siesta: Ekinion =         0.000000
siesta: Eharris =     -6851.336240
siesta: Etot    =     -6851.336217
siesta: FreeEng =     -6851.370875

siesta: Final energy (eV):
siesta:  Band Struct. =   -2384.370708
siesta:       Kinetic =    2573.415956
siesta:       Hartree =     405.712547
siesta:    Ext. field =       0.000000
siesta:   Exch.-corr. =   -2065.995383
siesta:  Ion-electron =   -3075.608560
siesta:       Ion-ion =   -4688.860778
siesta:       Ekinion =       0.000000
siesta:         Total =   -6851.336217

siesta: Stress tensor (static) (eV/Ang**3):
siesta:    -0.043525   -0.001738   -0.001738
siesta:    -0.001738   -0.043525   -0.001738
siesta:    -0.001738   -0.001738   -0.043525

siesta: Cell volume =       1280.824056 Ang**3

siesta: Pressure (static):
siesta:                Solid            Molecule  Units
siesta:           0.00047404          0.00047090  Ry/Bohr**3
siesta:           0.04352492          0.04323641  eV/Ang**3
siesta:          69.73536034         69.27310841  kBar
(Free)E+ p_basis*V_orbitals  =       -6834.168576
(Free)Eharris+ p_basis*V_orbitals  =       -6834.168599
>> End of run:   2-JUL-2017  11:55:58
Job completed
