Siesta Version (Arch framework):
agarcia@siesta.arch--2005/siesta-devel--agarcia--1.5--patch-11
Architecture  : powerpc-apple-darwin8.3.0--Xlf
Compiler flags: xlf95 -g  -O2 -qarch=auto -qtune=auto -qcache=auto -qnolm
SERIAL version

* Running in serial mode
>> Start of run:   7-DEC-2005  11:36:53

                           ***********************       
                           *  WELCOME TO SIESTA  *       
                           ***********************       

reinit: Reading from standard input
************************** Dump of input data file ****************************
# -----------------------------------------------------------------------------
# FDF for interstitial H in a cubic c-Si supercell with 64 atoms
#
# E. Artacho, April 1999
# -----------------------------------------------------------------------------
SystemName          H in 64-atom silicon
SystemLabel         sih
NumberOfAtoms       65
NumberOfSpecies     2
%block ChemicalSpeciesLabel
 1  14  Si
 2   1  H
%endblock ChemicalSpeciesLabel
PAO.BasisSize       SZ
PAO.EnergyShift     300 meV
%block PAO.Basis
  H  1
  0  1
  0.
  0.8
%endblock PAO.Basis
LatticeConstant     5.430 Ang
%block LatticeVectors
  2.000  0.000  0.000
  0.000  2.000  0.000
  0.000  0.000  2.000
%endblock LatticeVectors
MeshCutoff          40.0 Ry
MaxSCFIterations    50
DM.MixingWeight      0.3
DM.NumberPulay       4
DM.Tolerance         1.d-3
DM.UseSaveDM
SolutionMethod       diagon
ElectronicTemperature  25 meV
MD.TypeOfRun         cg
MD.NumCGsteps        50
MD.MaxCGDispl         0.1  Ang
MD.MaxForceTol        0.04 eV/Ang
AtomicCoordinatesFormat  ScaledCartesian
%block AtomicCoordinatesAndAtomicSpecies
    0.000    0.000    0.000   1 #  Si  1
    0.250    0.250    0.250   1 #  Si  2
    0.000    0.500    0.500   1 #  Si  3
    0.250    0.750    0.750   1 #  Si  4
    0.500    0.000    0.500   1 #  Si  5
    0.750    0.250    0.750   1 #  Si  6
    0.500    0.500    0.000   1 #  Si  7
    0.750    0.750    0.250   1 #  Si  8
    1.000    0.000    0.000   1 #  Si  9
    1.250    0.250    0.250   1 #  Si 10
    1.000    0.500    0.500   1 #  Si 11
    1.250    0.750    0.750   1 #  Si 12
    1.500    0.000    0.500   1 #  Si 13
    1.750    0.250    0.750   1 #  Si 14
    1.500    0.500    0.000   1 #  Si 15
    1.750    0.750    0.250   1 #  Si 16
    0.000    1.000    0.000   1 #  Si 17
    0.250    1.250    0.250   1 #  Si 18
    0.000    1.500    0.500   1 #  Si 19
    0.250    1.750    0.750   1 #  Si 20
    0.500    1.000    0.500   1 #  Si 21
    0.750    1.250    0.750   1 #  Si 22
    0.500    1.500    0.000   1 #  Si 23
    0.750    1.750    0.250   1 #  Si 24
    0.000    0.000    1.000   1 #  Si 25
    0.250    0.250    1.250   1 #  Si 26
    0.000    0.500    1.500   1 #  Si 27
    0.250    0.750    1.750   1 #  Si 28
    0.500    0.000    1.500   1 #  Si 29
    0.750    0.250    1.750   1 #  Si 30
    0.500    0.500    1.000   1 #  Si 31
    0.750    0.750    1.250   1 #  Si 32
    1.000    1.000    0.000   1 #  Si 33
    1.250    1.250    0.250   1 #  Si 34
    1.000    1.500    0.500   1 #  Si 35
    1.250    1.750    0.750   1 #  Si 36
    1.500    1.000    0.500   1 #  Si 37
    1.750    1.250    0.750   1 #  Si 38
    1.500    1.500    0.000   1 #  Si 39
    1.750    1.750    0.250   1 #  Si 40
    1.000    0.000    1.000   1 #  Si 41
    1.250    0.250    1.250   1 #  Si 42
    1.000    0.500    1.500   1 #  Si 43
    1.250    0.750    1.750   1 #  Si 44
    1.500    0.000    1.500   1 #  Si 45
    1.750    0.250    1.750   1 #  Si 46
    1.500    0.500    1.000   1 #  Si 47
    1.750    0.750    1.250   1 #  Si 48
    0.000    1.000    1.000   1 #  Si 49
    0.250    1.250    1.250   1 #  Si 50
    0.000    1.500    1.500   1 #  Si 51
    0.250    1.750    1.750   1 #  Si 52
    0.500    1.000    1.500   1 #  Si 53
    0.750    1.250    1.750   1 #  Si 54
    0.500    1.500    1.000   1 #  Si 55
    0.750    1.750    1.250   1 #  Si 56
    1.000    1.000    1.000   1 #  Si 57
    1.250    1.250    1.250   1 #  Si 58
    1.000    1.500    1.500   1 #  Si 59
    1.250    1.750    1.750   1 #  Si 60
    1.500    1.000    1.500   1 #  Si 61
    1.750    1.250    1.750   1 #  Si 62
    1.500    1.500    1.000   1 #  Si 63
    1.750    1.750    1.250   1 #  Si 64
    1.125    1.125    1.125   2 #  H  65
%endblock AtomicCoordinatesAndAtomicSpecies
************************** End of input data file *****************************

reinit: -----------------------------------------------------------------------
reinit: System Name: H in 64-atom silicon                                       
reinit: -----------------------------------------------------------------------
reinit: System Label: sih                 
reinit: -----------------------------------------------------------------------

initatom: Reading input for the pseudopotentials and atomic orbitals ----------
 Species number:  1  Label: Si Atomic number: 14
 Species number:  2  Label: H Atomic number: 1
Ground state valence configuration:   3s02  3p02
Reading pseudopotential information in formatted form from Si.psf
Ground state valence configuration:   1s01
Reading pseudopotential information in formatted form from H.psf
For Si, standard SIESTA heuristics set lmxkb to 2
 (one more than the basis l, including polarization orbitals).
Use PS.lmax or PS.KBprojectors blocks to override.
For H, standard SIESTA heuristics set lmxkb to 1
 (one more than the basis l, including polarization orbitals).
Use PS.lmax or PS.KBprojectors blocks to override.

<basis_specs>
===============================================================================
Si                   Z=  14    Mass=  28.090        Charge=  0.0000    
Lmxo=1 Lmxkb=2     BasisType=split      Semic=F
L=0  Nsemic=0  Cnfigmx=3
          n=1  nzeta=1  polorb=0
               vcte:    0.0000    
               rinn:    0.0000    
                rcs:    0.0000    
            lambdas:    1.0000    
L=1  Nsemic=0  Cnfigmx=3
          n=1  nzeta=1  polorb=0
               vcte:    0.0000    
               rinn:    0.0000    
                rcs:    0.0000    
            lambdas:    1.0000    
-------------------------------------------------------------------------------
L=0  Nkbl=1  erefs: 0.17977+309
L=1  Nkbl=1  erefs: 0.17977+309
L=2  Nkbl=1  erefs: 0.17977+309
===============================================================================
</basis_specs>

atom: Called for Si  (Z =  14)

read_vps: Pseudopotential generation method:
read_vps: ATM3      Troullier-Martins                       

read_vps: Valence configuration (pseudopotential and basis set generation):
3s( 2.00) rc: 1.89
3p( 2.00) rc: 1.89
3d( 0.00) rc: 1.89
Total valence charge:    4.00000

xc_check: Exchange-correlation functional:
xc_check: Ceperley-Alder
V l=0 = -2*Zval/r beyond r=  2.5494
V l=1 = -2*Zval/r beyond r=  2.5494
V l=2 = -2*Zval/r beyond r=  2.5494
All V_l potentials equal beyond r=  1.8652
This should be close to max(r_c) in ps generation
All pots = -2*Zval/r beyond r=  2.5494
Using large-core scheme for Vlocal

atom: Estimated core radius    2.54944

atom: Including non-local core corrections could be a good idea
atom: Maximum radius for 4*pi*r*r*local-pseudopot. charge    2.85303
atom: Maximum radius for r*vlocal+2*Zval:    2.58151
GHOST: No ghost state for L =  0
GHOST: No ghost state for L =  1
GHOST: No ghost state for L =  2

KBgen: Kleinman-Bylander projectors: 
   l= 0   rc=  1.936440   el= -0.796617   Ekb=  4.661340   kbcos=  0.299756
   l= 1   rc=  1.936440   el= -0.307040   Ekb=  1.494238   kbcos=  0.301471
   l= 2   rc=  1.936440   el=  0.002313   Ekb= -2.808672   kbcos= -0.054903

KBgen: Total number of  Kleinman-Bylander projectors:    9
atom: -------------------------------------------------------------------------

atom: SANKEY-TYPE ORBITALS:

SPLIT: Orbitals with angular momentum L= 0

SPLIT: Basis orbitals for state 3s

SPLIT: PAO cut-off radius determinated from an
SPLIT: energy shift=  0.022049 Ry

   izeta = 1
                 lambda =    1.000000
                     rc =    4.883716
                 energy =   -0.773554
                kinetic =    0.585471
    potential(screened) =   -1.359025
       potential(ionic) =   -3.840954

SPLIT: Orbitals with angular momentum L= 1

SPLIT: Basis orbitals for state 3p

SPLIT: PAO cut-off radius determinated from an
SPLIT: energy shift=  0.022049 Ry

   izeta = 1
                 lambda =    1.000000
                     rc =    6.116033
                 energy =   -0.285742
                kinetic =    0.892202
    potential(screened) =   -1.177944
       potential(ionic) =   -3.446720
atom: Total number of Sankey-type orbitals:  4

atm_pop: Valence configuration(local Pseudopot. screening):
 3s( 2.00)                                                            
 3p( 2.00)                                                            
Vna: chval, zval:    4.00000   4.00000

Vna:  Cut-off radius for the neutral-atom potential:   6.116033

atom: _________________________________________________________________________

<basis_specs>
===============================================================================
H                    Z=   1    Mass=  1.0100        Charge=  0.0000    
Lmxo=0 Lmxkb=1     BasisType=split      Semic=F
L=0  Nsemic=0  Cnfigmx=1
          n=1  nzeta=1  polorb=0
               vcte:    0.0000    
               rinn:    0.0000    
                rcs:    0.0000    
            lambdas:   0.80000    
-------------------------------------------------------------------------------
L=0  Nkbl=1  erefs: 0.17977+309
L=1  Nkbl=1  erefs: 0.17977+309
===============================================================================
</basis_specs>

atom: Called for H   (Z =   1)

read_vps: Pseudopotential generation method:
read_vps: ATM3      Troullier-Martins                       

read_vps: Valence configuration (pseudopotential and basis set generation):
1s( 1.00) rc: 1.25
2p( 0.00) rc: 1.25
Total valence charge:    1.00000

xc_check: Exchange-correlation functional:
xc_check: Ceperley-Alder
V l=0 = -2*Zval/r beyond r=  1.2343
V l=1 = -2*Zval/r beyond r=  1.2189
All V_l potentials equal beyond r=  1.2343
This should be close to max(r_c) in ps generation
All pots = -2*Zval/r beyond r=  1.2343

VLOCAL1: 99.0% of the norm of Vloc inside     28.493 Ry
VLOCAL1: 99.9% of the norm of Vloc inside     64.935 Ry
atom: Maximum radius for 4*pi*r*r*local-pseudopot. charge    1.45251
atom: Maximum radius for r*vlocal+2*Zval:    1.21892
GHOST: No ghost state for L =  0
GHOST: No ghost state for L =  1

KBgen: Kleinman-Bylander projectors: 
   l= 0   rc=  1.364359   el= -0.467325   Ekb= -2.005361   kbcos= -0.336422
   l= 1   rc=  1.434438   el=  0.001430   Ekb= -0.501708   kbcos= -0.021697

KBgen: Total number of  Kleinman-Bylander projectors:    4
atom: -------------------------------------------------------------------------

atom: SANKEY-TYPE ORBITALS:

SPLIT: Orbitals with angular momentum L= 0

SPLIT: Basis orbitals for state 1s

SPLIT: PAO cut-off radius determinated from an
SPLIT: energy shift=  0.022049 Ry

   izeta = 1
                 lambda =    0.800000
                     rc =    4.718242
                 energy =   -0.396561
                kinetic =    1.341628
    potential(screened) =   -1.738188
       potential(ionic) =   -2.295884
atom: Total number of Sankey-type orbitals:  1

atm_pop: Valence configuration(local Pseudopot. screening):
 1s( 1.00)                                                            
Vna: chval, zval:    1.00000   1.00000

Vna:  Cut-off radius for the neutral-atom potential:   4.708991

atom: _________________________________________________________________________

prinput: Basis input ----------------------------------------------------------

PAO.BasisType split     

%block ChemicalSpeciesLabel
    1   14 Si                      # Species index, atomic number, species label
    2    1 H                       # Species index, atomic number, species label
%endblock ChemicalSpeciesLabel

%block PAO.Basis                 # Define Basis set
Si          2                    # Species label, number of l-shells
 n=3   0   1                         # n, l, Nzeta 
   4.884   
   1.000   
 n=3   1   1                         # n, l, Nzeta 
   6.116   
   1.000   
H           1                    # Species label, number of l-shells
 n=1   0   1                         # n, l, Nzeta 
   4.718   
   0.800   
%endblock PAO.Basis

prinput: ----------------------------------------------------------------------


siesta: ******************** Simulation parameters ****************************
siesta:
siesta: The following are some of the parameters of the simulation.
siesta: A complete list of the parameters used, including defect values,
siesta: can be found in file out.fdf
siesta:
coor:   Atomic-coordinates input format  =     Cartesian coordinates
coor:                                          (in units of alat)
redata: Number of spin components        =     1
redata: Long output                      =     F
redata: Number of Atomic Species         =     2
redata: Charge density info will appear in .RHO file
redata: Write Mulliken Pop.              =     NO
redata: Mesh Cutoff                      =    40.0000  Ry
redata: Net charge of the system         =     0.0000 |e|
redata: Max. number of SCF Iter          =    50
redata: One Pulay mixing every           =     4 iterations
redata: Mix DM in first SCF step ?       =     F
redata: Write Pulay info on disk?        =     F
redata: New DM Mixing Weight             =     0.3000
redata: New DM Occupancy tolerance       = 0.000000000001
redata: No kicks to SCF
redata: DM Mixing Weight for Kicks       =     0.5000
redata: DM Tolerance for SCF             =     0.001000
redata: Require Energy convergence for SCF =     F
redata: DM Energy tolerance for SCF      =     0.000100 eV
redata: Using Saved Data (generic)   =     F
redata: Use continuation files for DM    =     T
redata: Neglect nonoverlap interactions  =     F
redata: Method of Calculation            =     Diagonalization
redata: Divide and Conquer               =     T
redata: Electronic Temperature           =     0.0018  Ry
redata: Fix the spin of the system       =     F
redata: Dynamics option                  =     CG coord. optimization
redata: Variable cell                    =     F
redata: Use continuation files for CG    =     F
redata: Maximum number of CG moves       =    50
redata: Max atomic displ per move        =     0.1890  Bohr
redata: Force tolerance                  =     0.0016  Ry/Bohr
redata: Broyden Optimization             = F
redata: ***********************************************************************

siesta: Atomic coordinates (Bohr) and species
siesta:      0.00000   0.00000   0.00000  1        1
siesta:      2.56530   2.56530   2.56530  1        2
siesta:      0.00000   5.13061   5.13061  1        3
siesta:      2.56530   7.69591   7.69591  1        4
siesta:      5.13061   0.00000   5.13061  1        5
siesta:      7.69591   2.56530   7.69591  1        6
siesta:      5.13061   5.13061   0.00000  1        7
siesta:      7.69591   7.69591   2.56530  1        8
siesta:     10.26122   0.00000   0.00000  1        9
siesta:     12.82652   2.56530   2.56530  1       10
siesta:     10.26122   5.13061   5.13061  1       11
siesta:     12.82652   7.69591   7.69591  1       12
siesta:     15.39183   0.00000   5.13061  1       13
siesta:     17.95713   2.56530   7.69591  1       14
siesta:     15.39183   5.13061   0.00000  1       15
siesta:     17.95713   7.69591   2.56530  1       16
siesta:      0.00000  10.26122   0.00000  1       17
siesta:      2.56530  12.82652   2.56530  1       18
siesta:      0.00000  15.39183   5.13061  1       19
siesta:      2.56530  17.95713   7.69591  1       20
siesta:      5.13061  10.26122   5.13061  1       21
siesta:      7.69591  12.82652   7.69591  1       22
siesta:      5.13061  15.39183   0.00000  1       23
siesta:      7.69591  17.95713   2.56530  1       24
siesta:      0.00000   0.00000  10.26122  1       25
siesta:      2.56530   2.56530  12.82652  1       26
siesta:      0.00000   5.13061  15.39183  1       27
siesta:      2.56530   7.69591  17.95713  1       28
siesta:      5.13061   0.00000  15.39183  1       29
siesta:      7.69591   2.56530  17.95713  1       30
siesta:      5.13061   5.13061  10.26122  1       31
siesta:      7.69591   7.69591  12.82652  1       32
siesta:     10.26122  10.26122   0.00000  1       33
siesta:     12.82652  12.82652   2.56530  1       34
siesta:     10.26122  15.39183   5.13061  1       35
siesta:     12.82652  17.95713   7.69591  1       36
siesta:     15.39183  10.26122   5.13061  1       37
siesta:     17.95713  12.82652   7.69591  1       38
siesta:     15.39183  15.39183   0.00000  1       39
siesta:     17.95713  17.95713   2.56530  1       40
siesta:     10.26122   0.00000  10.26122  1       41
siesta:     12.82652   2.56530  12.82652  1       42
siesta:     10.26122   5.13061  15.39183  1       43
siesta:     12.82652   7.69591  17.95713  1       44
siesta:     15.39183   0.00000  15.39183  1       45
siesta:     17.95713   2.56530  17.95713  1       46
siesta:     15.39183   5.13061  10.26122  1       47
siesta:     17.95713   7.69591  12.82652  1       48
siesta:      0.00000  10.26122  10.26122  1       49
siesta:      2.56530  12.82652  12.82652  1       50
siesta:      0.00000  15.39183  15.39183  1       51
siesta:      2.56530  17.95713  17.95713  1       52
siesta:      5.13061  10.26122  15.39183  1       53
siesta:      7.69591  12.82652  17.95713  1       54
siesta:      5.13061  15.39183  10.26122  1       55
siesta:      7.69591  17.95713  12.82652  1       56
siesta:     10.26122  10.26122  10.26122  1       57
siesta:     12.82652  12.82652  12.82652  1       58
siesta:     10.26122  15.39183  15.39183  1       59
siesta:     12.82652  17.95713  17.95713  1       60
siesta:     15.39183  10.26122  15.39183  1       61
siesta:     17.95713  12.82652  17.95713  1       62
siesta:     15.39183  15.39183  10.26122  1       63
siesta:     17.95713  17.95713  12.82652  1       64
siesta:     11.54387  11.54387  11.54387  2       65

initatomlists: Number of atoms, orbitals, and projectors:        65      257      580

siesta: System type = bulk      

* Maximum dynamic memory allocated =     1 MB

siesta:                 ==============================
                            Begin CG move =      0
                        ==============================

InitMesh: MESH =    48 x    48 x    48 =      110592
InitMesh: Mesh cutoff (required, used) =    40.000    53.991 Ry

* Maximum dynamic memory allocated =    28 MB

stepf: Fermi-Dirac step function

siesta: Program's energy decomposition (eV):
siesta: Eions   =     12205.375277
siesta: Ena     =      3677.554548
siesta: Ekin    =      2591.199431
siesta: Enl     =      1150.368408
siesta: DEna    =         0.000011
siesta: DUscf   =         0.000000
siesta: DUext   =         0.000000
siesta: Exc     =     -2083.290198
siesta: eta*DQ  =         0.000000
siesta: Emadel  =         0.000000
siesta: Ekinion =         0.000000
siesta: Eharris =     -6847.408198
siesta: Etot    =     -6869.543078
siesta: FreeEng =     -6869.543078

siesta: iscf   Eharris(eV)      E_KS(eV)   FreeEng(eV)   dDmax  Ef(eV)
siesta:    1    -6847.4082    -6869.5431    -6869.5431  1.0410 -2.0995
timer: Routine,Calls,Time,% = IterSCF        1       2.880  75.39
elaps: Routine,Calls,Wall,% = IterSCF        1       2.890  72.61
siesta:    2    -6848.5321    -6844.5897    -6844.6524  0.7386 -3.6120
siesta:    3    -6846.0153    -6845.8287    -6845.8634  0.1880 -2.2220
siesta:    4    -6845.5677    -6844.8994    -6844.9562  0.1452 -2.4521
siesta:    5    -6845.5610    -6844.9200    -6844.9547  0.1339 -2.4412
siesta:    6    -6845.5356    -6845.3180    -6845.3527  0.0248 -2.3668
siesta:    7    -6845.5350    -6845.5248    -6845.5599  0.0012 -2.3574
siesta:    8    -6845.5350    -6845.5478    -6845.5830  0.0009 -2.3582

siesta: E_KS(eV) =            -6845.5436

siesta: E_KS - E_eggbox =     -6845.5436

siesta: Atomic forces (eV/Ang):
----------------------------------------
 Tot    0.001706    0.001706    0.001712
----------------------------------------
 Max    9.571194
 Res    1.679960    sqrt( Sum f_i^2 / 3N )
----------------------------------------
 Max    9.571194    constrained

Stress-tensor-Voigt (kbar):      -77.67      -77.67      -77.67      -15.44      -15.44      -15.44
Target enthalpy (eV/cell)    -6845.5787

* Maximum dynamic memory allocated =    30 MB

siesta:                 ==============================
                            Begin CG move =      1
                        ==============================

siesta: iscf   Eharris(eV)      E_KS(eV)   FreeEng(eV)   dDmax  Ef(eV)
siesta:    1    -6847.7456    -6846.8921    -6846.9273  0.3087 -2.3150
siesta:    2    -6850.1567    -6846.8251    -6846.8602  0.4782 -3.7411
siesta:    3    -6847.5466    -6847.0216    -6847.0620  0.1169 -2.5361
siesta:    4    -6847.5460    -6847.1545    -6847.1891  0.0898 -2.5408
siesta:    5    -6847.5439    -6847.6534    -6847.6881  0.0136 -2.5134
siesta:    6    -6847.5434    -6847.5576    -6847.5923  0.0071 -2.5261
siesta:    7    -6847.5434    -6847.5669    -6847.6015  0.0018 -2.5265
siesta:    8    -6847.5434    -6847.5454    -6847.5801  0.0004 -2.5266

siesta: E_KS(eV) =            -6847.5439

siesta: Atomic forces (eV/Ang):
----------------------------------------
 Tot    0.006983    0.018822    0.016634
----------------------------------------
 Max    6.926055
 Res    1.215962    sqrt( Sum f_i^2 / 3N )
----------------------------------------
 Max    6.926055    constrained

Stress-tensor-Voigt (kbar):      -75.10      -75.10      -75.10      -11.88      -11.88      -11.88
Target enthalpy (eV/cell)    -6847.5786

* Maximum dynamic memory allocated =    30 MB

siesta:                 ==============================
                            Begin CG move =      2
                        ==============================

siesta: iscf   Eharris(eV)      E_KS(eV)   FreeEng(eV)   dDmax  Ef(eV)
siesta:    1    -6849.9029    -6848.6157    -6848.6504  0.3260 -2.4834
siesta:    2    -6853.2812    -6848.6849    -6848.7196  0.5415 -3.8201
siesta:    3    -6849.6319    -6848.8116    -6848.8752  0.1426 -2.7550
siesta:    4    -6849.6263    -6849.0626    -6849.0972  0.0845 -2.7960
siesta:    5    -6849.6250    -6849.6198    -6849.6545  0.0056 -2.8111
siesta:    6    -6849.6246    -6849.6586    -6849.6933  0.0050 -2.8016
siesta:    7    -6849.6245    -6849.6424    -6849.6770  0.0011 -2.7951
siesta:    8    -6849.6245    -6849.6265    -6849.6612  0.0007 -2.7950

siesta: E_KS(eV) =            -6849.6249

siesta: Atomic forces (eV/Ang):
----------------------------------------
 Tot    0.004329    0.011569    0.010229
----------------------------------------
 Max    3.843867
 Res    0.681417    sqrt( Sum f_i^2 / 3N )
----------------------------------------
 Max    3.843867    constrained

Stress-tensor-Voigt (kbar):      -72.87      -72.87      -72.87       -7.15       -7.15       -7.15
Target enthalpy (eV/cell)    -6849.6596

* Maximum dynamic memory allocated =    30 MB

siesta:                 ==============================
                            Begin CG move =      3
                        ==============================

siesta: iscf   Eharris(eV)      E_KS(eV)   FreeEng(eV)   dDmax  Ef(eV)
siesta:    1    -6851.0542    -6849.9900    -6850.0247  0.2390 -2.8896
siesta:    2    -6852.2809    -6850.5278    -6850.5624  0.3390 -3.8709
siesta:    3    -6850.9347    -6850.2702    -6850.3396  0.1070 -3.0362
siesta:    4    -6850.9217    -6850.5654    -6850.6001  0.0295 -3.0944
siesta:    5    -6850.9202    -6850.7820    -6850.8167  0.0073 -3.1104
siesta:    6    -6850.9201    -6850.8643    -6850.8989  0.0045 -3.1137
siesta:    7    -6850.9199    -6850.9208    -6850.9555  0.0016 -3.1297
siesta:    8    -6850.9198    -6850.9228    -6850.9574  0.0014 -3.1264
siesta:    9    -6850.9198    -6850.9205    -6850.9552  0.0008 -3.1273

siesta: E_KS(eV) =            -6850.9196

siesta: Atomic forces (eV/Ang):
----------------------------------------
 Tot    0.002336    0.005999    0.005327
----------------------------------------
 Max    0.791324
 Res    0.241853    sqrt( Sum f_i^2 / 3N )
----------------------------------------
 Max    0.791324    constrained

Stress-tensor-Voigt (kbar):      -70.88      -70.88      -70.88       -1.48       -1.48       -1.48
Target enthalpy (eV/cell)    -6850.9543

* Maximum dynamic memory allocated =    30 MB

siesta:                 ==============================
                            Begin CG move =      4
                        ==============================

siesta: iscf   Eharris(eV)      E_KS(eV)   FreeEng(eV)   dDmax  Ef(eV)
siesta:    1    -6850.8259    -6850.6768    -6850.7115  0.0812 -3.4796
siesta:    2    -6850.9491    -6850.7508    -6850.7854  0.0564 -3.0890
siesta:    3    -6850.8039    -6850.7369    -6850.7715  0.0287 -3.3874
siesta:    4    -6850.8013    -6850.7745    -6850.8091  0.0069 -3.3470
siesta:    5    -6850.8010    -6850.7854    -6850.8200  0.0021 -3.3567
siesta:    6    -6850.8010    -6850.7918    -6850.8264  0.0006 -3.3575

siesta: E_KS(eV) =            -6850.7964

siesta: Atomic forces (eV/Ang):
----------------------------------------
 Tot    0.001602    0.003860    0.003439
----------------------------------------
 Max    0.923415
 Res    0.325114    sqrt( Sum f_i^2 / 3N )
----------------------------------------
 Max    0.923415    constrained

Stress-tensor-Voigt (kbar):      -70.37      -70.37      -70.37        2.42        2.42        2.42
Target enthalpy (eV/cell)    -6850.8311

* Maximum dynamic memory allocated =    30 MB

siesta:                 ==============================
                            Begin CG move =      5
                        ==============================

siesta: iscf   Eharris(eV)      E_KS(eV)   FreeEng(eV)   dDmax  Ef(eV)
siesta:    1    -6851.0209    -6851.0778    -6851.1124  0.0319 -3.1166
siesta:    2    -6851.1897    -6850.9348    -6850.9695  0.0703 -3.5842
siesta:    3    -6850.9973    -6851.0208    -6851.0555  0.0202 -3.2292
siesta:    4    -6850.9968    -6850.9908    -6851.0255  0.0085 -3.2517
siesta:    5    -6850.9966    -6850.9906    -6851.0253  0.0026 -3.2435
siesta:    6    -6850.9966    -6850.9931    -6851.0278  0.0008 -3.2430

siesta: E_KS(eV) =            -6850.9949

siesta: Atomic forces (eV/Ang):
----------------------------------------
 Tot    0.001890    0.004737    0.004213
----------------------------------------
 Max    0.773167
 Res    0.240536    sqrt( Sum f_i^2 / 3N )
----------------------------------------
 Max    0.773167    constrained

Stress-tensor-Voigt (kbar):      -70.48      -70.48      -70.48        0.39        0.39        0.39
Target enthalpy (eV/cell)    -6851.0295

cgvc: Finished line minimization    1.  Mean atomic displacement =    0.1024

* Maximum dynamic memory allocated =    30 MB

siesta:                 ==============================
                            Begin CG move =      6
                        ==============================

siesta: iscf   Eharris(eV)      E_KS(eV)   FreeEng(eV)   dDmax  Ef(eV)
siesta:    1    -6851.0378    -6851.2805    -6851.3152  0.2046 -3.3754
siesta:    2    -6852.4734    -6850.1362    -6850.1709  0.3283 -2.2728
siesta:    3    -6850.7549    -6850.9466    -6851.0276  0.0656 -3.0025
siesta:    4    -6850.7414    -6850.8445    -6850.8791  0.0346 -2.9570
siesta:    5    -6850.7379    -6850.6990    -6850.7336  0.0047 -2.9391
siesta:    6    -6850.7376    -6850.7084    -6850.7430  0.0017 -2.9447
siesta:    7    -6850.7375    -6850.7201    -6850.7548  0.0005 -2.9378

siesta: E_KS(eV) =            -6850.7274

siesta: Atomic forces (eV/Ang):
----------------------------------------
 Tot    0.000284   -0.000815   -0.000619
----------------------------------------
 Max    1.073514
 Res    0.364605    sqrt( Sum f_i^2 / 3N )
----------------------------------------
 Max    1.073514    constrained

Stress-tensor-Voigt (kbar):      -71.04      -71.04      -71.04       -6.69       -6.69       -6.69
Target enthalpy (eV/cell)    -6850.7620

* Maximum dynamic memory allocated =    30 MB

siesta:                 ==============================
                            Begin CG move =      7
                        ==============================

siesta: iscf   Eharris(eV)      E_KS(eV)   FreeEng(eV)   dDmax  Ef(eV)
siesta:    1    -6851.3749    -6850.9695    -6851.0042  0.1233 -2.8582
siesta:    2    -6851.8932    -6851.0361    -6851.0707  0.1680 -3.7995
siesta:    3    -6851.2718    -6851.0680    -6851.1064  0.0287 -3.0887
siesta:    4    -6851.2697    -6851.1764    -6851.2110  0.0135 -3.1106
siesta:    5    -6851.2690    -6851.2802    -6851.3148  0.0034 -3.0961
siesta:    6    -6851.2689    -6851.2810    -6851.3157  0.0016 -3.0983
siesta:    7    -6851.2689    -6851.2729    -6851.3076  0.0002 -3.0972

siesta: E_KS(eV) =            -6851.2709

siesta: Atomic forces (eV/Ang):
----------------------------------------
 Tot   -0.000601   -0.002539   -0.002184
----------------------------------------
 Max    0.210241
 Res    0.103855    sqrt( Sum f_i^2 / 3N )
----------------------------------------
 Max    0.210241    constrained

Stress-tensor-Voigt (kbar):      -69.49      -69.49      -69.49       -3.05       -3.05       -3.05
Target enthalpy (eV/cell)    -6851.3056

cgvc: Finished line minimization    2.  Mean atomic displacement =    0.0461

* Maximum dynamic memory allocated =    30 MB

siesta:                 ==============================
                            Begin CG move =      8
                        ==============================

siesta: iscf   Eharris(eV)      E_KS(eV)   FreeEng(eV)   dDmax  Ef(eV)
siesta:    1    -6851.2663    -6851.3530    -6851.3877  0.0294 -3.1127
siesta:    2    -6851.4143    -6851.1469    -6851.1816  0.0475 -2.8397
siesta:    3    -6851.2258    -6851.2846    -6851.3192  0.0110 -3.0508
siesta:    4    -6851.2241    -6851.2492    -6851.2839  0.0043 -3.0439
siesta:    5    -6851.2236    -6851.2350    -6851.2696  0.0017 -3.0557
siesta:    6    -6851.2236    -6851.2298    -6851.2645  0.0008 -3.0537

siesta: E_KS(eV) =            -6851.2270

siesta: Atomic forces (eV/Ang):
----------------------------------------
 Tot    0.002836    0.002949    0.002922
----------------------------------------
 Max    0.334549
 Res    0.158892    sqrt( Sum f_i^2 / 3N )
----------------------------------------
 Max    0.334549    constrained

Stress-tensor-Voigt (kbar):      -70.24      -70.24      -70.24       -3.47       -3.47       -3.47
Target enthalpy (eV/cell)    -6851.2617

* Maximum dynamic memory allocated =    30 MB

siesta:                 ==============================
                            Begin CG move =      9
                        ==============================

siesta: iscf   Eharris(eV)      E_KS(eV)   FreeEng(eV)   dDmax  Ef(eV)
siesta:    1    -6851.3330    -6851.2597    -6851.2943  0.0172 -3.0433
siesta:    2    -6851.3850    -6851.2911    -6851.3258  0.0265 -3.2195
siesta:    3    -6851.3188    -6851.2829    -6851.3176  0.0063 -3.0803
siesta:    4    -6851.3182    -6851.3115    -6851.3462  0.0023 -3.0821
siesta:    5    -6851.3181    -6851.3202    -6851.3548  0.0011 -3.0766
siesta:    6    -6851.3180    -6851.3201    -6851.3548  0.0004 -3.0783

siesta: E_KS(eV) =            -6851.3190

siesta: Atomic forces (eV/Ang):
----------------------------------------
 Tot    0.004874   -0.002268   -0.000951
----------------------------------------
 Max    0.109844
 Res    0.053883    sqrt( Sum f_i^2 / 3N )
----------------------------------------
 Max    0.109844    constrained

Stress-tensor-Voigt (kbar):      -69.81      -69.81      -69.81       -3.14       -3.14       -3.14
Target enthalpy (eV/cell)    -6851.3537

cgvc: Finished line minimization    3.  Mean atomic displacement =    0.0189

* Maximum dynamic memory allocated =    30 MB

siesta:                 ==============================
                            Begin CG move =     10
                        ==============================

siesta: iscf   Eharris(eV)      E_KS(eV)   FreeEng(eV)   dDmax  Ef(eV)
siesta:    1    -6851.3263    -6851.3143    -6851.3489  0.0232 -3.0667
siesta:    2    -6851.3331    -6851.3071    -6851.3418  0.0211 -3.1440
siesta:    3    -6851.3176    -6851.3145    -6851.3492  0.0041 -3.0991
siesta:    4    -6851.3175    -6851.3165    -6851.3511  0.0011 -3.0938
siesta:    5    -6851.3174    -6851.3170    -6851.3517  0.0006 -3.0970

siesta: E_KS(eV) =            -6851.3172

siesta: Atomic forces (eV/Ang):
----------------------------------------
 Tot   -0.004776    0.000164   -0.000763
----------------------------------------
 Max    0.204261
 Res    0.070883    sqrt( Sum f_i^2 / 3N )
----------------------------------------
 Max    0.204261    constrained

Stress-tensor-Voigt (kbar):      -69.68      -69.68      -69.68       -1.99       -1.99       -1.99
Target enthalpy (eV/cell)    -6851.3518

* Maximum dynamic memory allocated =    30 MB

siesta:                 ==============================
                            Begin CG move =     11
                        ==============================

siesta: iscf   Eharris(eV)      E_KS(eV)   FreeEng(eV)   dDmax  Ef(eV)
siesta:    1    -6851.3353    -6851.3346    -6851.3692  0.0115 -3.1013
siesta:    2    -6851.3370    -6851.3303    -6851.3649  0.0106 -3.0632
siesta:    3    -6851.3330    -6851.3333    -6851.3679  0.0021 -3.0853
siesta:    4    -6851.3329    -6851.3329    -6851.3675  0.0006 -3.0878

siesta: E_KS(eV) =            -6851.3329

siesta: Atomic forces (eV/Ang):
----------------------------------------
 Tot   -0.002811    0.003690    0.002472
----------------------------------------
 Max    0.051302
 Res    0.025240    sqrt( Sum f_i^2 / 3N )
----------------------------------------
 Max    0.051302    constrained

Stress-tensor-Voigt (kbar):      -70.16      -70.16      -70.16       -2.63       -2.63       -2.63
Target enthalpy (eV/cell)    -6851.3675

cgvc: Finished line minimization    4.  Mean atomic displacement =    0.0094

* Maximum dynamic memory allocated =    30 MB

siesta:                 ==============================
                            Begin CG move =     12
                        ==============================

siesta: iscf   Eharris(eV)      E_KS(eV)   FreeEng(eV)   dDmax  Ef(eV)
siesta:    1    -6851.3356    -6851.3517    -6851.3864  0.0042 -3.0693
siesta:    2    -6851.3379    -6851.3315    -6851.3662  0.0076 -3.1030
siesta:    3    -6851.3339    -6851.3412    -6851.3758  0.0018 -3.0844
siesta:    4    -6851.3339    -6851.3349    -6851.3695  0.0004 -3.0826

siesta: E_KS(eV) =            -6851.3339

siesta: Atomic forces (eV/Ang):
----------------------------------------
 Tot    0.003001   -0.002260   -0.001293
----------------------------------------
 Max    0.080191
 Res    0.029455    sqrt( Sum f_i^2 / 3N )
----------------------------------------
 Max    0.080191    constrained

Stress-tensor-Voigt (kbar):      -69.91      -69.91      -69.91       -2.85       -2.85       -2.85
Target enthalpy (eV/cell)    -6851.3685

* Maximum dynamic memory allocated =    30 MB

siesta:                 ==============================
                            Begin CG move =     13
                        ==============================

siesta: iscf   Eharris(eV)      E_KS(eV)   FreeEng(eV)   dDmax  Ef(eV)
siesta:    1    -6851.3365    -6851.3284    -6851.3631  0.0019 -3.0918
siesta:    2    -6851.3369    -6851.3357    -6851.3703  0.0034 -3.0764
siesta:    3    -6851.3362    -6851.3327    -6851.3674  0.0008 -3.0852

siesta: E_KS(eV) =            -6851.3356

siesta: Atomic forces (eV/Ang):
----------------------------------------
 Tot   -0.009838   -0.009532   -0.009484
----------------------------------------
 Max    0.032614
 Res    0.014439    sqrt( Sum f_i^2 / 3N )
----------------------------------------
 Max    0.032614    constrained

Stress-tensor-Voigt (kbar):      -69.75      -69.75      -69.75       -2.81       -2.81       -2.81
Target enthalpy (eV/cell)    -6851.3702

* Maximum dynamic memory allocated =    30 MB

outcoor: Relaxed atomic coordinates (scaled):               
   -0.00034413   -0.00034413   -0.00034412   1  Si         1
    0.25034478    0.25034478    0.25034476   1  Si         2
    0.00023346    0.50094508    0.50094509   1  Si         3
    0.25173067    0.75040358    0.75040360   1  Si         4
    0.50094508    0.00023345    0.50094507   1  Si         5
    0.75040362    0.25173070    0.75040358   1  Si         6
    0.50094508    0.50094507    0.00023345   1  Si         7
    0.75040363    0.75040357    0.25173068   1  Si         8
    1.00041490    0.00145967    0.00145966   1  Si         9
    1.24958605    0.24854347    0.24854344   1  Si        10
    1.00022022    0.49633636    0.49633636   1  Si        11
    1.25576923    0.74031776    0.74031773   1  Si        12
    1.50000177    0.00094676    0.49881391   1  Si        13
    1.75118728    0.24905381    0.74999908   1  Si        14
    1.50000180    0.49881391    0.00094677   1  Si        15
    1.75118730    0.74999908    0.24905384   1  Si        16
    0.00145933    1.00041503    0.00145938   1  Si        17
    0.24854317    1.24958622    0.24854316   1  Si        18
    0.00094680    1.50000182    0.49881398   1  Si        19
    0.24905386    1.75118725    0.74999921   1  Si        20
    0.49633565    1.00021941    0.49633566   1  Si        21
    0.74031827    1.25576998    0.74031831   1  Si        22
    0.49881400    1.50000173    0.00094678   1  Si        23
    0.74999916    1.75118721    0.24905384   1  Si        24
    0.00145941    0.00145941    1.00041501   1  Si        25
    0.24854323    0.24854326    1.24958617   1  Si        26
    0.00094680    0.49881395    1.50000184   1  Si        27
    0.24905386    0.74999921    1.75118728   1  Si        28
    0.49881398    0.00094678    1.50000172   1  Si        29
    0.74999915    0.24905382    1.75118722   1  Si        30
    0.49633578    0.49633580    1.00021955   1  Si        31
    0.74031816    0.74031821    1.25576985   1  Si        32
    0.99971302    0.99971306    0.00133015   1  Si        33
    1.25028810    1.25028816    0.24867007   1  Si        34
    1.00153288    1.50114174    0.49776507   1  Si        35
    1.24846783    1.75223587    0.74885897   1  Si        36
    1.50114175    1.00153301    0.49776516   1  Si        37
    1.75223592    1.24846780    0.74885900   1  Si        38
    1.49959712    1.49959706   -0.00173004   1  Si        39
    1.74905423    1.74905424    0.24976519   1  Si        40
    0.99971300    0.00133015    0.99971303   1  Si        41
    1.25028810    0.24867006    1.25028815   1  Si        42
    1.00153291    0.49776507    1.50114174   1  Si        43
    1.24846783    0.74885897    1.75223584   1  Si        44
    1.49959709   -0.00173002    1.49959706   1  Si        45
    1.74905423    0.24976519    1.74905423   1  Si        46
    1.50114176    0.49776515    1.00153297   1  Si        47
    1.75223589    0.74885898    1.24846778   1  Si        48
    0.00133016    0.99971298    0.99971299   1  Si        49
    0.24867006    1.25028811    1.25028809   1  Si        50
   -0.00173007    1.49959707    1.49959708   1  Si        51
    0.24976522    1.74905424    1.74905422   1  Si        52
    0.49776515    1.00153288    1.50114173   1  Si        53
    0.74885900    1.24846790    1.75223591   1  Si        54
    0.49776513    1.50114172    1.00153287   1  Si        55
    0.74885899    1.75223591    1.24846791   1  Si        56
    0.95150730    0.95150734    0.95150735   1  Si        57
    1.29851108    1.29851111    1.29851109   1  Si        58
    0.99422973    1.50968459    1.50968457   1  Si        59
    1.24978381    1.75366746    1.75366746   1  Si        60
    1.50968510    0.99423048    1.50968513   1  Si        61
    1.75366674    1.24978294    1.75366677   1  Si        62
    1.50968501    1.50968506    0.99423033   1  Si        63
    1.75366688    1.75366691    1.24978312   1  Si        64
    1.12500667    1.12500601    1.12500613   2  H         65

siesta: Eigenvalues (eV):
  ik is    eps
   1  1 -16.25 -15.32 -15.26 -15.26 -15.24 -15.24 -15.23 -14.35 -14.34 -14.28
        -14.28 -14.28 -14.28 -14.27 -14.27 -14.27 -14.24 -14.24 -14.20 -13.94
        -13.93 -13.93 -13.92 -12.21 -12.17 -12.15 -12.15 -12.09 -12.09 -11.98
        -11.98 -11.97 -11.96 -11.95 -11.95 -11.95 -11.93 -11.93 -11.93 -11.91
        -11.91 -11.36 -11.34 -11.27 -11.27  -9.82  -9.78  -9.74  -9.74  -9.73
         -9.73  -9.71  -9.69  -9.69  -9.69  -9.69  -9.69  -8.70  -8.17  -8.17
         -8.16  -8.16  -8.12  -8.11  -8.11  -8.10  -8.10  -8.04  -8.04  -8.04
         -8.04  -8.03  -8.03  -8.02  -8.02  -8.02  -8.02  -8.02  -8.02  -7.82
         -7.82  -7.76  -7.76  -7.76  -7.71  -7.69  -7.69  -7.18  -7.13  -7.13
         -7.09  -7.08  -7.08  -6.20  -6.14  -6.14  -6.13  -6.13  -6.11  -6.09
         -6.08  -6.05  -6.05  -6.03  -6.03  -5.66  -5.59  -5.59  -5.58  -5.58
         -5.55  -5.54  -5.53  -5.50  -5.50  -5.46  -5.46  -5.43  -5.43  -5.43
         -5.39  -5.39  -5.38  -5.36  -5.36  -3.98  -3.97  -3.97  -3.09  -2.15
         -2.12  -2.12  -2.06  -2.06  -2.06  -2.05  -1.89  -1.89  -1.68  -1.63
         -1.44  -1.44  -1.34  -1.34  -1.09  -0.98  -0.97  -0.97  -0.76  -0.57
         -0.49  -0.49  -0.47  -0.46  -0.46  -0.46  -0.43  -0.43  -0.15  -0.15
          0.70   1.10   1.10   1.10   1.12   1.13   1.13   1.17   1.22   1.22
          1.30   1.30   1.52   1.52   1.58   1.68   1.68   1.77   1.78   1.79
          1.79   1.80   1.83   1.83   1.96   1.96   1.96   2.00   2.10   2.14
          2.14   2.16   2.16   2.27   2.36   2.36   2.47   2.47   2.83   3.11
          3.11   3.13   3.13   3.14   3.14   3.16   3.21   3.21   3.23   3.23
          3.42   3.47   3.59   3.59   3.59   3.61   3.61   3.63   3.63   3.68
          3.68   3.70   3.98   4.14   4.14   4.23   4.30   4.30   4.31   4.33
          4.33   4.38   4.39   4.39   4.40   4.45   4.47   4.47   4.51   4.51
          4.54   4.64   4.89   4.89   5.24   5.24   7.02   7.02   7.03   7.05
          7.11   7.11   7.97   8.09   8.21   8.21  10.21
siesta: Fermi energy =      -3.085157 eV

siesta: Program's energy decomposition (eV):
siesta: Eions   =     12205.375277
siesta: Ena     =      3675.791990
siesta: Ekin    =      2573.419292
siesta: Enl     =       951.657090
siesta: DEna    =       213.822546
siesta: DUscf   =         5.345315
siesta: DUext   =         0.000000
siesta: Exc     =     -2065.996525
siesta: eta*DQ  =         0.000000
siesta: Emadel  =         0.000000
siesta: Ekinion =         0.000000
siesta: Eharris =     -6851.336162
siesta: Etot    =     -6851.335569
siesta: FreeEng =     -6851.370227

siesta: Final energy (eV):
siesta:       Kinetic =    2573.419292
siesta:       Hartree =     405.716117
siesta:    Ext. field =       0.000000
siesta:   Exch.-corr. =   -2065.996525
siesta:  Ion-electron =   -3075.620477
siesta:       Ion-ion =   -4688.853976
siesta:       Ekinion =       0.000000
siesta:         Total =   -6851.335569

siesta: Stress tensor (static) (eV/Ang**3):
siesta:    -0.043534   -0.001752   -0.001752
siesta:    -0.001752   -0.043534   -0.001752
siesta:    -0.001752   -0.001752   -0.043534

siesta: Cell volume =       1280.824056 Ang**3

siesta: Pressure (static):
siesta:                Solid            Molecule  Units
siesta:           0.00047415          0.00047135  Ry/Bohr**3
siesta:           0.04353443          0.04327732  eV/Ang**3
siesta:          69.75059825         69.33865470  kBar

* Maximum dynamic memory allocated : Node    0 =    30 MB

* Maximum memory occured during poison                        

timer: CPU execution times:
timer:  Routine       Calls   Time/call    Tot.time        %
timer:  siesta            1     164.070     164.070   100.00
timer:  Setup             1       0.380       0.380     0.23
timer:  bands             1       0.000       0.000     0.00
timer:  writewave         1       0.000       0.000     0.00
timer:  KSV_init          1       0.000       0.000     0.00
timer:  IterMD           14      11.691     163.680    99.76
timer:  hsparse          15       0.264       3.960     2.41
timer:  overfsm          28       0.094       2.620     1.60
timer:  IterSCF         101       1.567     158.240    96.45
timer:  kinefsm          28       0.096       2.690     1.64
timer:  nlefsm           28       0.374      10.480     6.39
timer:  DHSCF           101       1.206     121.760    74.21
timer:  DHSCF1            1       0.030       0.030     0.02
timer:  DHSCF2           14       1.283      17.960    10.95
timer:  REORD           634       0.001       0.400     0.24
timer:  POISON          115       0.027       3.130     1.91
timer:  DHSCF3          101       0.740      74.760    45.57
timer:  rhoofd          101       0.403      40.740    24.83
timer:  cellXC          101       0.074       7.490     4.57
timer:  vmat            101       0.223      22.490    13.71
timer:  diagon           87       0.213      18.520    11.29
timer:  rdiag            87       0.119      10.380     6.33
timer:  rdiag1           87       0.007       0.590     0.36
timer:  rdiag2           87       0.014       1.240     0.76
timer:  rdiag3           87       0.090       7.820     4.77
timer:  rdiag4           87       0.006       0.550     0.34
timer:  DHSCF4           14       2.060      28.840    17.58
timer:  dfscf            14       1.734      24.280    14.80
timer:  optical           1       0.000       0.000     0.00
  

elaps: ELAPSED times:
elaps:  Routine       Calls   Time/call    Tot.time        %
elaps:  siesta            1     164.140     164.140   100.00
elaps:  Setup             1       0.400       0.400     0.24
elaps:  bands             1       0.000       0.000     0.00
elaps:  writewave         1       0.010       0.010     0.01
elaps:  KSV_init          1       0.000       0.000     0.00
elaps:  IterMD           14      11.694     163.720    99.74
elaps:  hsparse          15       0.267       4.000     2.44
elaps:  overfsm          28       0.096       2.700     1.64
elaps:  IterSCF         101       1.566     158.140    96.34
elaps:  kinefsm          28       0.095       2.660     1.62
elaps:  nlefsm           28       0.375      10.510     6.40
elaps:  DHSCF           101       1.212     122.370    74.55
elaps:  DHSCF1            1       0.050       0.050     0.03
elaps:  DHSCF2           14       1.284      17.970    10.95
elaps:  REORD           634       0.000       0.300     0.18
elaps:  POISON          115       0.028       3.200     1.95
elaps:  DHSCF3          101       0.746      75.340    45.90
elaps:  rhoofd          101       0.407      41.100    25.04
elaps:  cellXC          101       0.075       7.560     4.61
elaps:  vmat            101       0.225      22.760    13.87
elaps:  diagon           87       0.203      17.700    10.78
elaps:  rdiag            87       0.110       9.540     5.81
elaps:  rdiag1           87       0.007       0.630     0.38
elaps:  rdiag2           87       0.012       1.060     0.65
elaps:  rdiag3           87       0.083       7.250     4.42
elaps:  rdiag4           87       0.006       0.500     0.30
elaps:  DHSCF4           14       2.063      28.880    17.59
elaps:  dfscf            14       1.739      24.340    14.83
elaps:  optical           1       0.000       0.000     0.00
  
>> End of run:   7-DEC-2005  11:39:37
