Siesta Version: siesta@uam.es--2006/siesta-devel--reference--2.1--patch-28
Architecture  : i686-pc-linux-gnu--Intel
Compiler flags: ifort -O2 -mp
SERIAL version

* Running in serial mode
>> Start of run:  17-DEC-2006  19:55:48

                           ***********************       
                           *  WELCOME TO SIESTA  *       
                           ***********************       

reinit: Reading from standard input
************************** Dump of input data file ****************************
# -----------------------------------------------------------------------------
# FDF for interstitial H in a cubic c-Si supercell with 64 atoms
#
# E. Artacho, April 1999
# -----------------------------------------------------------------------------
SystemName          H in 64-atom silicon
SystemLabel         sih
NumberOfAtoms       65
NumberOfSpecies     2
%block ChemicalSpeciesLabel
 1  14  Si
 2   1  H
%endblock ChemicalSpeciesLabel
PAO.BasisSize       SZ
PAO.EnergyShift     300 meV
%block PAO.Basis
  H  1
  0  1
  0.
  0.8
%endblock PAO.Basis
LatticeConstant     5.430 Ang
%block LatticeVectors
  2.000  0.000  0.000
  0.000  2.000  0.000
  0.000  0.000  2.000
%endblock LatticeVectors
MeshCutoff          40.0 Ry
MaxSCFIterations    50
DM.MixingWeight      0.3
DM.NumberPulay       4
DM.Tolerance         1.d-3
DM.UseSaveDM
SolutionMethod       diagon
ElectronicTemperature  25 meV
MD.TypeOfRun         cg
MD.NumCGsteps        50
MD.MaxCGDispl         0.1  Ang
MD.MaxForceTol        0.04 eV/Ang
AtomicCoordinatesFormat  ScaledCartesian
%block AtomicCoordinatesAndAtomicSpecies
    0.000    0.000    0.000   1 #  Si  1
    0.250    0.250    0.250   1 #  Si  2
    0.000    0.500    0.500   1 #  Si  3
    0.250    0.750    0.750   1 #  Si  4
    0.500    0.000    0.500   1 #  Si  5
    0.750    0.250    0.750   1 #  Si  6
    0.500    0.500    0.000   1 #  Si  7
    0.750    0.750    0.250   1 #  Si  8
    1.000    0.000    0.000   1 #  Si  9
    1.250    0.250    0.250   1 #  Si 10
    1.000    0.500    0.500   1 #  Si 11
    1.250    0.750    0.750   1 #  Si 12
    1.500    0.000    0.500   1 #  Si 13
    1.750    0.250    0.750   1 #  Si 14
    1.500    0.500    0.000   1 #  Si 15
    1.750    0.750    0.250   1 #  Si 16
    0.000    1.000    0.000   1 #  Si 17
    0.250    1.250    0.250   1 #  Si 18
    0.000    1.500    0.500   1 #  Si 19
    0.250    1.750    0.750   1 #  Si 20
    0.500    1.000    0.500   1 #  Si 21
    0.750    1.250    0.750   1 #  Si 22
    0.500    1.500    0.000   1 #  Si 23
    0.750    1.750    0.250   1 #  Si 24
    0.000    0.000    1.000   1 #  Si 25
    0.250    0.250    1.250   1 #  Si 26
    0.000    0.500    1.500   1 #  Si 27
    0.250    0.750    1.750   1 #  Si 28
    0.500    0.000    1.500   1 #  Si 29
    0.750    0.250    1.750   1 #  Si 30
    0.500    0.500    1.000   1 #  Si 31
    0.750    0.750    1.250   1 #  Si 32
    1.000    1.000    0.000   1 #  Si 33
    1.250    1.250    0.250   1 #  Si 34
    1.000    1.500    0.500   1 #  Si 35
    1.250    1.750    0.750   1 #  Si 36
    1.500    1.000    0.500   1 #  Si 37
    1.750    1.250    0.750   1 #  Si 38
    1.500    1.500    0.000   1 #  Si 39
    1.750    1.750    0.250   1 #  Si 40
    1.000    0.000    1.000   1 #  Si 41
    1.250    0.250    1.250   1 #  Si 42
    1.000    0.500    1.500   1 #  Si 43
    1.250    0.750    1.750   1 #  Si 44
    1.500    0.000    1.500   1 #  Si 45
    1.750    0.250    1.750   1 #  Si 46
    1.500    0.500    1.000   1 #  Si 47
    1.750    0.750    1.250   1 #  Si 48
    0.000    1.000    1.000   1 #  Si 49
    0.250    1.250    1.250   1 #  Si 50
    0.000    1.500    1.500   1 #  Si 51
    0.250    1.750    1.750   1 #  Si 52
    0.500    1.000    1.500   1 #  Si 53
    0.750    1.250    1.750   1 #  Si 54
    0.500    1.500    1.000   1 #  Si 55
    0.750    1.750    1.250   1 #  Si 56
    1.000    1.000    1.000   1 #  Si 57
    1.250    1.250    1.250   1 #  Si 58
    1.000    1.500    1.500   1 #  Si 59
    1.250    1.750    1.750   1 #  Si 60
    1.500    1.000    1.500   1 #  Si 61
    1.750    1.250    1.750   1 #  Si 62
    1.500    1.500    1.000   1 #  Si 63
    1.750    1.750    1.250   1 #  Si 64
    1.125    1.125    1.125   2 #  H  65
%endblock AtomicCoordinatesAndAtomicSpecies
************************** End of input data file *****************************

reinit: -----------------------------------------------------------------------
reinit: System Name: H in 64-atom silicon                                       
reinit: -----------------------------------------------------------------------
reinit: System Label: sih                                                         
reinit: -----------------------------------------------------------------------

initatom: Reading input for the pseudopotentials and atomic orbitals ----------
 Species number:            1  Label: Si Atomic number:          14
 Species number:            2  Label: H Atomic number:           1
Ground state valence configuration:   3s02  3p02
Reading pseudopotential information in formatted form from Si.psf

Valence configuration for pseudopotential generation:
3s( 2.00) rc: 1.89
3p( 2.00) rc: 1.89
3d( 0.00) rc: 1.89
4f( 0.00) rc: 1.89
Dumping pseudopotential information in formatted form in Si.psdump
Ground state valence configuration:   1s01
Reading pseudopotential information in formatted form from H.psf

Valence configuration for pseudopotential generation:
1s( 1.00) rc: 1.25
2p( 0.00) rc: 1.25
3d( 0.00) rc: 1.25
4f( 0.00) rc: 1.25
Dumping pseudopotential information in formatted form in H.psdump
For Si, standard SIESTA heuristics set lmxkb to 2
 (one more than the basis l, including polarization orbitals).
Use PS.lmax or PS.KBprojectors blocks to override.
For H, standard SIESTA heuristics set lmxkb to 1
 (one more than the basis l, including polarization orbitals).
Use PS.lmax or PS.KBprojectors blocks to override.

<basis_specs>
===============================================================================
Si                   Z=  14    Mass=  28.090        Charge= 0.17977+309
Lmxo=1 Lmxkb=2     BasisType=split      Semic=F
L=0  Nsemic=0  Cnfigmx=3
          n=1  nzeta=1  polorb=0
            splnorm:   0.15000    
               vcte:    0.0000    
               rinn:    0.0000    
                rcs:    0.0000    
            lambdas:    1.0000    
L=1  Nsemic=0  Cnfigmx=3
          n=1  nzeta=1  polorb=0
            splnorm:   0.15000    
               vcte:    0.0000    
               rinn:    0.0000    
                rcs:    0.0000    
            lambdas:    1.0000    
-------------------------------------------------------------------------------
L=0  Nkbl=1  erefs: 0.17977+309
L=1  Nkbl=1  erefs: 0.17977+309
L=2  Nkbl=1  erefs: 0.17977+309
===============================================================================
</basis_specs>

atom: Called for Si                    (Z =  14)

read_vps: Pseudopotential generation method:
read_vps: ATM3      Troullier-Martins                       
Total valence charge:    4.00000

xc_check: Exchange-correlation functional:
xc_check: Ceperley-Alder
V l=0 = -2*Zval/r beyond r=  2.5494
V l=1 = -2*Zval/r beyond r=  2.5494
V l=2 = -2*Zval/r beyond r=  2.5494
All V_l potentials equal beyond r=  1.8652
This should be close to max(r_c) in ps generation
All pots = -2*Zval/r beyond r=  2.5494
Using large-core scheme for Vlocal

atom: Estimated core radius    2.54944

atom: Including non-local core corrections could be a good idea
atom: Maximum radius for 4*pi*r*r*local-pseudopot. charge    2.85303
atom: Maximum radius for r*vlocal+2*Zval:    2.58151
GHOST: No ghost state for L =  0
GHOST: No ghost state for L =  1
GHOST: No ghost state for L =  2

KBgen: Kleinman-Bylander projectors: 
   l= 0   rc=  1.936440   el= -0.796617   Ekb=  4.661340   kbcos=  0.299756
   l= 1   rc=  1.936440   el= -0.307040   Ekb=  1.494238   kbcos=  0.301471
   l= 2   rc=  1.936440   el=  0.002313   Ekb= -2.808672   kbcos= -0.054903

KBgen: Total number of  Kleinman-Bylander projectors:    9
atom: -------------------------------------------------------------------------

atom: SANKEY-TYPE ORBITALS:

SPLIT: Orbitals with angular momentum L= 0

SPLIT: Basis orbitals for state 3s

SPLIT: PAO cut-off radius determined from an
SPLIT: energy shift=  0.022049 Ry

   izeta = 1
                 lambda =    1.000000
                     rc =    4.883716
                 energy =   -0.773554
                kinetic =    0.585471
    potential(screened) =   -1.359025
       potential(ionic) =   -3.840954

SPLIT: Orbitals with angular momentum L= 1

SPLIT: Basis orbitals for state 3p

SPLIT: PAO cut-off radius determined from an
SPLIT: energy shift=  0.022049 Ry

   izeta = 1
                 lambda =    1.000000
                     rc =    6.116033
                 energy =   -0.285742
                kinetic =    0.892202
    potential(screened) =   -1.177944
       potential(ionic) =   -3.446720
atom: Total number of Sankey-type orbitals:  4

atm_pop: Valence configuration (for local Pseudopot. screening):
 3s( 2.00)                                                            
 3p( 2.00)                                                            
Vna: chval, zval:    4.00000   4.00000

Vna:  Cut-off radius for the neutral-atom potential:   6.116033

atom: _________________________________________________________________________

<basis_specs>
===============================================================================
H                    Z=   1    Mass=  1.0100        Charge= 0.17977+309
Lmxo=0 Lmxkb=1     BasisType=split      Semic=F
L=0  Nsemic=0  Cnfigmx=1
          n=1  nzeta=1  polorb=0
            splnorm:   0.15000    
               vcte:    0.0000    
               rinn:    0.0000    
                rcs:    0.0000    
            lambdas:   0.80000    
-------------------------------------------------------------------------------
L=0  Nkbl=1  erefs: 0.17977+309
L=1  Nkbl=1  erefs: 0.17977+309
===============================================================================
</basis_specs>

atom: Called for H                     (Z =   1)

read_vps: Pseudopotential generation method:
read_vps: ATM3      Troullier-Martins                       
Total valence charge:    1.00000

xc_check: Exchange-correlation functional:
xc_check: Ceperley-Alder
V l=0 = -2*Zval/r beyond r=  1.2343
V l=1 = -2*Zval/r beyond r=  1.2189
All V_l potentials equal beyond r=  1.2343
This should be close to max(r_c) in ps generation
All pots = -2*Zval/r beyond r=  1.2343

VLOCAL1: 99.0% of the norm of Vloc inside     28.493 Ry
VLOCAL1: 99.9% of the norm of Vloc inside     64.935 Ry
atom: Maximum radius for 4*pi*r*r*local-pseudopot. charge    1.45251
atom: Maximum radius for r*vlocal+2*Zval:    1.21892
GHOST: No ghost state for L =  0
GHOST: No ghost state for L =  1

KBgen: Kleinman-Bylander projectors: 
   l= 0   rc=  1.364359   el= -0.467325   Ekb= -2.005361   kbcos= -0.336422
   l= 1   rc=  1.434438   el=  0.001430   Ekb= -0.501708   kbcos= -0.021697

KBgen: Total number of  Kleinman-Bylander projectors:    4
atom: -------------------------------------------------------------------------

atom: SANKEY-TYPE ORBITALS:

SPLIT: Orbitals with angular momentum L= 0

SPLIT: Basis orbitals for state 1s

SPLIT: PAO cut-off radius determined from an
SPLIT: energy shift=  0.022049 Ry

   izeta = 1
                 lambda =    0.800000
                     rc =    4.718242
                 energy =   -0.396561
                kinetic =    1.341628
    potential(screened) =   -1.738188
       potential(ionic) =   -2.295884
atom: Total number of Sankey-type orbitals:  1

atm_pop: Valence configuration (for local Pseudopot. screening):
 1s( 1.00)                                                            
Vna: chval, zval:    1.00000   1.00000

Vna:  Cut-off radius for the neutral-atom potential:   4.708991

atom: _________________________________________________________________________

prinput: Basis input ----------------------------------------------------------

PAO.BasisType split     

%block ChemicalSpeciesLabel
    1   14 Si                      # Species index, atomic number, species label
    2    1 H                       # Species index, atomic number, species label
%endblock ChemicalSpeciesLabel

%block PAO.Basis                 # Define Basis set
Si                    2                    # Species label, number of l-shells
 n=3   0   1                         # n, l, Nzeta 
   4.884   
   1.000   
 n=3   1   1                         # n, l, Nzeta 
   6.116   
   1.000   
H                     1                    # Species label, number of l-shells
 n=1   0   1                         # n, l, Nzeta 
   4.718   
   0.800   
%endblock PAO.Basis

prinput: ----------------------------------------------------------------------


siesta: ******************** Simulation parameters ****************************
siesta:
siesta: The following are some of the parameters of the simulation.
siesta: A complete list of the parameters used, including default values,
siesta: can be found in file out.fdf
siesta:
coor:   Atomic-coordinates input format  =     Cartesian coordinates
coor:                                          (in units of alat)
redata: Number of spin components        =     1
redata: Long output                      =     F
redata: Number of Atomic Species         =     2
redata: Charge density info will appear in .RHO file
redata: Write Mulliken Pop.              =     NO
redata: Mesh Cutoff                      =    40.0000  Ry
redata: Net charge of the system         =     0.0000 |e|
redata: Max. number of SCF Iter          =    50
redata: Performing Pulay mixing using    =     4 iterations
redata: Mix DM in first SCF step ?       =     F
redata: Write Pulay info on disk?        =     F
redata: New DM Mixing Weight             =     0.3000
redata: New DM Occupancy tolerance       = 0.000000000001
redata: No kicks to SCF
redata: DM Mixing Weight for Kicks       =     0.5000
redata: DM Tolerance for SCF             =     0.001000
redata: Require Energy convergence for SCF =     F
redata: DM Energy tolerance for SCF      =     0.000100 eV
redata: Using Saved Data (generic)   =     F
redata: Use continuation files for DM    =     T
redata: Neglect nonoverlap interactions  =     F
redata: Method of Calculation            =     Diagonalization
redata: Divide and Conquer               =     T
redata: Electronic Temperature           =     0.0018  Ry
redata: Fix the spin of the system       =     F
redata: Dynamics option                  =     CG coord. optimization
redata: Variable cell                    =     F
redata: Use continuation files for CG    =     F
redata: Max atomic displ per move        =     0.1890  Bohr
redata: Maximum number of CG moves       =    50
redata: Force tolerance                  =     0.0016  Ry/Bohr
redata: ***********************************************************************

siesta: Atomic coordinates (Bohr) and species
siesta:      0.00000   0.00000   0.00000  1        1
siesta:      2.56530   2.56530   2.56530  1        2
siesta:      0.00000   5.13061   5.13061  1        3
siesta:      2.56530   7.69591   7.69591  1        4
siesta:      5.13061   0.00000   5.13061  1        5
siesta:      7.69591   2.56530   7.69591  1        6
siesta:      5.13061   5.13061   0.00000  1        7
siesta:      7.69591   7.69591   2.56530  1        8
siesta:     10.26122   0.00000   0.00000  1        9
siesta:     12.82652   2.56530   2.56530  1       10
siesta:     10.26122   5.13061   5.13061  1       11
siesta:     12.82652   7.69591   7.69591  1       12
siesta:     15.39183   0.00000   5.13061  1       13
siesta:     17.95713   2.56530   7.69591  1       14
siesta:     15.39183   5.13061   0.00000  1       15
siesta:     17.95713   7.69591   2.56530  1       16
siesta:      0.00000  10.26122   0.00000  1       17
siesta:      2.56530  12.82652   2.56530  1       18
siesta:      0.00000  15.39183   5.13061  1       19
siesta:      2.56530  17.95713   7.69591  1       20
siesta:      5.13061  10.26122   5.13061  1       21
siesta:      7.69591  12.82652   7.69591  1       22
siesta:      5.13061  15.39183   0.00000  1       23
siesta:      7.69591  17.95713   2.56530  1       24
siesta:      0.00000   0.00000  10.26122  1       25
siesta:      2.56530   2.56530  12.82652  1       26
siesta:      0.00000   5.13061  15.39183  1       27
siesta:      2.56530   7.69591  17.95713  1       28
siesta:      5.13061   0.00000  15.39183  1       29
siesta:      7.69591   2.56530  17.95713  1       30
siesta:      5.13061   5.13061  10.26122  1       31
siesta:      7.69591   7.69591  12.82652  1       32
siesta:     10.26122  10.26122   0.00000  1       33
siesta:     12.82652  12.82652   2.56530  1       34
siesta:     10.26122  15.39183   5.13061  1       35
siesta:     12.82652  17.95713   7.69591  1       36
siesta:     15.39183  10.26122   5.13061  1       37
siesta:     17.95713  12.82652   7.69591  1       38
siesta:     15.39183  15.39183   0.00000  1       39
siesta:     17.95713  17.95713   2.56530  1       40
siesta:     10.26122   0.00000  10.26122  1       41
siesta:     12.82652   2.56530  12.82652  1       42
siesta:     10.26122   5.13061  15.39183  1       43
siesta:     12.82652   7.69591  17.95713  1       44
siesta:     15.39183   0.00000  15.39183  1       45
siesta:     17.95713   2.56530  17.95713  1       46
siesta:     15.39183   5.13061  10.26122  1       47
siesta:     17.95713   7.69591  12.82652  1       48
siesta:      0.00000  10.26122  10.26122  1       49
siesta:      2.56530  12.82652  12.82652  1       50
siesta:      0.00000  15.39183  15.39183  1       51
siesta:      2.56530  17.95713  17.95713  1       52
siesta:      5.13061  10.26122  15.39183  1       53
siesta:      7.69591  12.82652  17.95713  1       54
siesta:      5.13061  15.39183  10.26122  1       55
siesta:      7.69591  17.95713  12.82652  1       56
siesta:     10.26122  10.26122  10.26122  1       57
siesta:     12.82652  12.82652  12.82652  1       58
siesta:     10.26122  15.39183  15.39183  1       59
siesta:     12.82652  17.95713  17.95713  1       60
siesta:     15.39183  10.26122  15.39183  1       61
siesta:     17.95713  12.82652  17.95713  1       62
siesta:     15.39183  15.39183  10.26122  1       63
siesta:     17.95713  17.95713  12.82652  1       64
siesta:     11.54387  11.54387  11.54387  2       65

initatomlists: Number of atoms, orbitals, and projectors:     65   257   580
Total number of electrons:   257.000000
Total ionic charge:   257.000000

siesta: System type = bulk      

siesta: k-grid: Number of k-points =     1
siesta: k-grid: Cutoff (effective) =     5.430 Ang
siesta: k-grid: Supercell and displacements
siesta: k-grid:    0   1   0      0.000
siesta: k-grid:    0   0   1      0.000
siesta: k-grid:    1   0   0      0.000

* Maximum dynamic memory allocated =     1 MB

siesta:                 ==============================
                            Begin CG move =      0
                        ==============================

outcell: Unit cell vectors (Ang):
       10.860000    0.000000    0.000000
        0.000000   10.860000    0.000000
        0.000000    0.000000   10.860000

outcell: Cell vector modules (Ang)   :   10.860000   10.860000   10.860000
outcell: Cell angles (23,13,12) (deg):     90.0000     90.0000     90.0000
outcell: Cell volume (Ang**3)        :   1280.8241

InitMesh: MESH =    48 x    48 x    48 =      110592
InitMesh: Mesh cutoff (required, used) =    40.000    53.991 Ry

* Maximum dynamic memory allocated =    28 MB

stepf: Fermi-Dirac step function

siesta: Program's energy decomposition (eV):
siesta: Eions   =     12205.375277
siesta: Ena     =      3677.554544
siesta: Ekin    =      2591.199431
siesta: Enl     =      1150.368409
siesta: DEna    =         0.000011
siesta: DUscf   =         0.000000
siesta: DUext   =         0.000000
siesta: Exc     =     -2083.290198
siesta: eta*DQ  =         0.000000
siesta: Emadel  =         0.000000
siesta: Emeta   =         0.000000
siesta: Emolmec =         0.000000
siesta: Ekinion =         0.000000
siesta: Eharris =     -6847.408202
siesta: Etot    =     -6869.543081
siesta: FreeEng =     -6869.543081

siesta: iscf   Eharris(eV)      E_KS(eV)   FreeEng(eV)   dDmax  Ef(eV)
siesta:    1    -6847.4082    -6869.5431    -6869.5431  1.0410 -2.0995
timer: Routine,Calls,Time,% = IterSCF        1       3.999  80.26
elaps: Routine,Calls,Wall,% = IterSCF        1       4.047  79.64
siesta:    2    -6848.5321    -6844.5897    -6844.6524  0.7386 -3.6120
siesta:    3    -6846.0153    -6845.8287    -6845.8634  0.1880 -2.2220
siesta:    4    -6845.5677    -6844.8994    -6844.9562  0.1452 -2.4521
siesta:    5    -6845.5610    -6844.9200    -6844.9547  0.1339 -2.4412
siesta:    6    -6845.5356    -6845.3180    -6845.3527  0.0248 -2.3668
siesta:    7    -6845.5350    -6845.5248    -6845.5599  0.0012 -2.3574
siesta:    8    -6845.5350    -6845.5478    -6845.5830  0.0009 -2.3582

siesta: E_KS(eV) =            -6845.5436

siesta: E_KS - E_eggbox =     -6845.5436

siesta: Atomic forces (eV/Ang):
----------------------------------------
   Tot    0.001706    0.001705    0.001713
----------------------------------------
   Max    9.571237
   Res    1.679967    sqrt( Sum f_i^2 / 3N )
----------------------------------------
   Max    9.571237    constrained

Stress-tensor-Voigt (kbar):      -77.67      -77.67      -77.67      -15.44      -15.44      -15.44
Target enthalpy (eV/cell)    -6845.5787

* Maximum dynamic memory allocated =    30 MB

siesta:                 ==============================
                            Begin CG move =      1
                        ==============================

outcell: Unit cell vectors (Ang):
       10.860000    0.000000    0.000000
        0.000000   10.860000    0.000000
        0.000000    0.000000   10.860000

outcell: Cell vector modules (Ang)   :   10.860000   10.860000   10.860000
outcell: Cell angles (23,13,12) (deg):     90.0000     90.0000     90.0000
outcell: Cell volume (Ang**3)        :   1280.8241

siesta: iscf   Eharris(eV)      E_KS(eV)   FreeEng(eV)   dDmax  Ef(eV)
siesta:    1    -6847.7456    -6846.8921    -6846.9273  0.3087 -2.3150
siesta:    2    -6850.1567    -6846.8251    -6846.8602  0.4782 -3.7411
siesta:    3    -6847.5466    -6847.0216    -6847.0620  0.1169 -2.5361
siesta:    4    -6847.5460    -6847.1545    -6847.1891  0.0898 -2.5408
siesta:    5    -6847.5439    -6847.6534    -6847.6881  0.0136 -2.5134
siesta:    6    -6847.5434    -6847.5576    -6847.5923  0.0071 -2.5261
siesta:    7    -6847.5434    -6847.5669    -6847.6015  0.0018 -2.5265
siesta:    8    -6847.5434    -6847.5454    -6847.5801  0.0004 -2.5266

siesta: E_KS(eV) =            -6847.5440

siesta: Atomic forces (eV/Ang):
----------------------------------------
   Tot    0.013276    0.014700    0.016955
----------------------------------------
   Max    6.926055
   Res    1.215962    sqrt( Sum f_i^2 / 3N )
----------------------------------------
   Max    6.926055    constrained

Stress-tensor-Voigt (kbar):      -75.10      -75.10      -75.10      -11.88      -11.88      -11.88
Target enthalpy (eV/cell)    -6847.5786

* Maximum dynamic memory allocated =    30 MB

siesta:                 ==============================
                            Begin CG move =      2
                        ==============================

outcell: Unit cell vectors (Ang):
       10.860000    0.000000    0.000000
        0.000000   10.860000    0.000000
        0.000000    0.000000   10.860000

outcell: Cell vector modules (Ang)   :   10.860000   10.860000   10.860000
outcell: Cell angles (23,13,12) (deg):     90.0000     90.0000     90.0000
outcell: Cell volume (Ang**3)        :   1280.8241

siesta: iscf   Eharris(eV)      E_KS(eV)   FreeEng(eV)   dDmax  Ef(eV)
siesta:    1    -6849.9029    -6848.6157    -6848.6504  0.3260 -2.4834
siesta:    2    -6853.2812    -6848.6849    -6848.7196  0.5415 -3.8201
siesta:    3    -6849.6319    -6848.8116    -6848.8752  0.1426 -2.7550
siesta:    4    -6849.6263    -6849.0626    -6849.0972  0.0845 -2.7960
siesta:    5    -6849.6250    -6849.6198    -6849.6545  0.0056 -2.8111
siesta:    6    -6849.6246    -6849.6587    -6849.6933  0.0050 -2.8016
siesta:    7    -6849.6245    -6849.6424    -6849.6770  0.0011 -2.7951
siesta:    8    -6849.6245    -6849.6265    -6849.6612  0.0007 -2.7950

siesta: E_KS(eV) =            -6849.6249

siesta: Atomic forces (eV/Ang):
----------------------------------------
   Tot    0.008176    0.009047    0.010425
----------------------------------------
   Max    3.843865
   Res    0.681417    sqrt( Sum f_i^2 / 3N )
----------------------------------------
   Max    3.843865    constrained

Stress-tensor-Voigt (kbar):      -72.87      -72.87      -72.87       -7.15       -7.15       -7.15
Target enthalpy (eV/cell)    -6849.6596

* Maximum dynamic memory allocated =    30 MB

siesta:                 ==============================
                            Begin CG move =      3
                        ==============================

outcell: Unit cell vectors (Ang):
       10.860000    0.000000    0.000000
        0.000000   10.860000    0.000000
        0.000000    0.000000   10.860000

outcell: Cell vector modules (Ang)   :   10.860000   10.860000   10.860000
outcell: Cell angles (23,13,12) (deg):     90.0000     90.0000     90.0000
outcell: Cell volume (Ang**3)        :   1280.8241

siesta: iscf   Eharris(eV)      E_KS(eV)   FreeEng(eV)   dDmax  Ef(eV)
siesta:    1    -6851.0542    -6849.9900    -6850.0247  0.2390 -2.8896
siesta:    2    -6852.2809    -6850.5278    -6850.5624  0.3390 -3.8709
siesta:    3    -6850.9347    -6850.2702    -6850.3396  0.1070 -3.0362
siesta:    4    -6850.9217    -6850.5655    -6850.6001  0.0295 -3.0944
siesta:    5    -6850.9202    -6850.7821    -6850.8167  0.0073 -3.1104
siesta:    6    -6850.9201    -6850.8643    -6850.8989  0.0045 -3.1137
siesta:    7    -6850.9199    -6850.9208    -6850.9555  0.0016 -3.1297
siesta:    8    -6850.9198    -6850.9228    -6850.9575  0.0014 -3.1264
siesta:    9    -6850.9198    -6850.9205    -6850.9552  0.0008 -3.1273

siesta: E_KS(eV) =            -6850.9196

siesta: Atomic forces (eV/Ang):
----------------------------------------
   Tot    0.004289    0.004719    0.005425
----------------------------------------
   Max    0.791324
   Res    0.241853    sqrt( Sum f_i^2 / 3N )
----------------------------------------
   Max    0.791324    constrained

Stress-tensor-Voigt (kbar):      -70.88      -70.88      -70.88       -1.48       -1.48       -1.48
Target enthalpy (eV/cell)    -6850.9543

* Maximum dynamic memory allocated =    30 MB

siesta:                 ==============================
                            Begin CG move =      4
                        ==============================

outcell: Unit cell vectors (Ang):
       10.860000    0.000000    0.000000
        0.000000   10.860000    0.000000
        0.000000    0.000000   10.860000

outcell: Cell vector modules (Ang)   :   10.860000   10.860000   10.860000
outcell: Cell angles (23,13,12) (deg):     90.0000     90.0000     90.0000
outcell: Cell volume (Ang**3)        :   1280.8241

siesta: iscf   Eharris(eV)      E_KS(eV)   FreeEng(eV)   dDmax  Ef(eV)
siesta:    1    -6850.8259    -6850.6768    -6850.7115  0.0812 -3.4796
siesta:    2    -6850.9491    -6850.7508    -6850.7855  0.0564 -3.0890
siesta:    3    -6850.8040    -6850.7369    -6850.7715  0.0287 -3.3874
siesta:    4    -6850.8013    -6850.7745    -6850.8091  0.0069 -3.3470
siesta:    5    -6850.8010    -6850.7854    -6850.8200  0.0021 -3.3567
siesta:    6    -6850.8010    -6850.7918    -6850.8264  0.0006 -3.3575

siesta: E_KS(eV) =            -6850.7964

siesta: Atomic forces (eV/Ang):
----------------------------------------
   Tot    0.002804    0.003075    0.003499
----------------------------------------
   Max    0.923415
   Res    0.325114    sqrt( Sum f_i^2 / 3N )
----------------------------------------
   Max    0.923415    constrained

Stress-tensor-Voigt (kbar):      -70.37      -70.37      -70.37        2.42        2.42        2.42
Target enthalpy (eV/cell)    -6850.8311

* Maximum dynamic memory allocated =    30 MB

siesta:                 ==============================
                            Begin CG move =      5
                        ==============================

outcell: Unit cell vectors (Ang):
       10.860000    0.000000    0.000000
        0.000000   10.860000    0.000000
        0.000000    0.000000   10.860000

outcell: Cell vector modules (Ang)   :   10.860000   10.860000   10.860000
outcell: Cell angles (23,13,12) (deg):     90.0000     90.0000     90.0000
outcell: Cell volume (Ang**3)        :   1280.8241

siesta: iscf   Eharris(eV)      E_KS(eV)   FreeEng(eV)   dDmax  Ef(eV)
siesta:    1    -6851.0209    -6851.0778    -6851.1124  0.0319 -3.1166
siesta:    2    -6851.1898    -6850.9348    -6850.9695  0.0703 -3.5842
siesta:    3    -6850.9973    -6851.0208    -6851.0555  0.0202 -3.2292
siesta:    4    -6850.9968    -6850.9908    -6851.0255  0.0085 -3.2517
siesta:    5    -6850.9967    -6850.9906    -6851.0253  0.0026 -3.2435
siesta:    6    -6850.9966    -6850.9931    -6851.0278  0.0008 -3.2430

siesta: E_KS(eV) =            -6850.9949

siesta: Atomic forces (eV/Ang):
----------------------------------------
   Tot    0.003404    0.003747    0.004289
----------------------------------------
   Max    0.773167
   Res    0.240536    sqrt( Sum f_i^2 / 3N )
----------------------------------------
   Max    0.773167    constrained

Stress-tensor-Voigt (kbar):      -70.48      -70.48      -70.48        0.39        0.39        0.39
Target enthalpy (eV/cell)    -6851.0296

cgvc: Finished line minimization    1.  Mean atomic displacement =    0.1024

* Maximum dynamic memory allocated =    30 MB

siesta:                 ==============================
                            Begin CG move =      6
                        ==============================

outcell: Unit cell vectors (Ang):
       10.860000    0.000000    0.000000
        0.000000   10.860000    0.000000
        0.000000    0.000000   10.860000

outcell: Cell vector modules (Ang)   :   10.860000   10.860000   10.860000
outcell: Cell angles (23,13,12) (deg):     90.0000     90.0000     90.0000
outcell: Cell volume (Ang**3)        :   1280.8241

siesta: iscf   Eharris(eV)      E_KS(eV)   FreeEng(eV)   dDmax  Ef(eV)
siesta:    1    -6851.0378    -6851.2805    -6851.3152  0.2046 -3.3754
siesta:    2    -6852.4734    -6850.1362    -6850.1709  0.3283 -2.2728
siesta:    3    -6850.7549    -6850.9466    -6851.0276  0.0656 -3.0025
siesta:    4    -6850.7414    -6850.8445    -6850.8791  0.0346 -2.9570
siesta:    5    -6850.7379    -6850.6990    -6850.7336  0.0047 -2.9391
siesta:    6    -6850.7376    -6850.7084    -6850.7430  0.0017 -2.9447
siesta:    7    -6850.7375    -6850.7202    -6850.7548  0.0005 -2.9378

siesta: E_KS(eV) =            -6850.7274

siesta: Atomic forces (eV/Ang):
----------------------------------------
   Tot   -0.000265   -0.000390   -0.000610
----------------------------------------
   Max    1.073483
   Res    0.364605    sqrt( Sum f_i^2 / 3N )
----------------------------------------
   Max    1.073483    constrained

Stress-tensor-Voigt (kbar):      -71.04      -71.04      -71.04       -6.69       -6.69       -6.69
Target enthalpy (eV/cell)    -6850.7621

* Maximum dynamic memory allocated =    30 MB

siesta:                 ==============================
                            Begin CG move =      7
                        ==============================

outcell: Unit cell vectors (Ang):
       10.860000    0.000000    0.000000
        0.000000   10.860000    0.000000
        0.000000    0.000000   10.860000

outcell: Cell vector modules (Ang)   :   10.860000   10.860000   10.860000
outcell: Cell angles (23,13,12) (deg):     90.0000     90.0000     90.0000
outcell: Cell volume (Ang**3)        :   1280.8241

siesta: iscf   Eharris(eV)      E_KS(eV)   FreeEng(eV)   dDmax  Ef(eV)
siesta:    1    -6851.3749    -6850.9695    -6851.0042  0.1233 -2.8582
siesta:    2    -6851.8932    -6851.0361    -6851.0707  0.1681 -3.7995
siesta:    3    -6851.2718    -6851.0680    -6851.1064  0.0287 -3.0887
siesta:    4    -6851.2697    -6851.1764    -6851.2111  0.0135 -3.1106
siesta:    5    -6851.2690    -6851.2802    -6851.3148  0.0034 -3.0961
siesta:    6    -6851.2689    -6851.2810    -6851.3157  0.0016 -3.0983
siesta:    7    -6851.2689    -6851.2729    -6851.3076  0.0002 -3.0972

siesta: E_KS(eV) =            -6851.2709

siesta: Atomic forces (eV/Ang):
----------------------------------------
   Tot   -0.001615   -0.001845   -0.002212
----------------------------------------
   Max    0.210223
   Res    0.103855    sqrt( Sum f_i^2 / 3N )
----------------------------------------
   Max    0.210223    constrained

Stress-tensor-Voigt (kbar):      -69.49      -69.49      -69.49       -3.05       -3.05       -3.05
Target enthalpy (eV/cell)    -6851.3056

cgvc: Finished line minimization    2.  Mean atomic displacement =    0.0461

* Maximum dynamic memory allocated =    30 MB

siesta:                 ==============================
                            Begin CG move =      8
                        ==============================

outcell: Unit cell vectors (Ang):
       10.860000    0.000000    0.000000
        0.000000   10.860000    0.000000
        0.000000    0.000000   10.860000

outcell: Cell vector modules (Ang)   :   10.860000   10.860000   10.860000
outcell: Cell angles (23,13,12) (deg):     90.0000     90.0000     90.0000
outcell: Cell volume (Ang**3)        :   1280.8241

siesta: iscf   Eharris(eV)      E_KS(eV)   FreeEng(eV)   dDmax  Ef(eV)
siesta:    1    -6851.2664    -6851.3530    -6851.3877  0.0295 -3.1127
siesta:    2    -6851.4143    -6851.1469    -6851.1816  0.0475 -2.8397
siesta:    3    -6851.2258    -6851.2846    -6851.3193  0.0110 -3.0508
siesta:    4    -6851.2241    -6851.2492    -6851.2839  0.0043 -3.0439
siesta:    5    -6851.2236    -6851.2350    -6851.2697  0.0017 -3.0557
siesta:    6    -6851.2236    -6851.2298    -6851.2645  0.0008 -3.0537

siesta: E_KS(eV) =            -6851.2270

siesta: Atomic forces (eV/Ang):
----------------------------------------
   Tot    0.002891    0.002903    0.002929
----------------------------------------
   Max    0.334550
   Res    0.158892    sqrt( Sum f_i^2 / 3N )
----------------------------------------
   Max    0.334550    constrained

Stress-tensor-Voigt (kbar):      -70.24      -70.24      -70.24       -3.47       -3.47       -3.47
Target enthalpy (eV/cell)    -6851.2617

* Maximum dynamic memory allocated =    30 MB

siesta:                 ==============================
                            Begin CG move =      9
                        ==============================

outcell: Unit cell vectors (Ang):
       10.860000    0.000000    0.000000
        0.000000   10.860000    0.000000
        0.000000    0.000000   10.860000

outcell: Cell vector modules (Ang)   :   10.860000   10.860000   10.860000
outcell: Cell angles (23,13,12) (deg):     90.0000     90.0000     90.0000
outcell: Cell volume (Ang**3)        :   1280.8241

siesta: iscf   Eharris(eV)      E_KS(eV)   FreeEng(eV)   dDmax  Ef(eV)
siesta:    1    -6851.3330    -6851.2597    -6851.2943  0.0172 -3.0433
siesta:    2    -6851.3850    -6851.2911    -6851.3258  0.0265 -3.2195
siesta:    3    -6851.3188    -6851.2829    -6851.3176  0.0063 -3.0803
siesta:    4    -6851.3182    -6851.3115    -6851.3462  0.0023 -3.0821
siesta:    5    -6851.3181    -6851.3202    -6851.3548  0.0011 -3.0766
siesta:    6    -6851.3180    -6851.3201    -6851.3548  0.0004 -3.0783

siesta: E_KS(eV) =            -6851.3190

siesta: Atomic forces (eV/Ang):
----------------------------------------
   Tot    0.002395   -0.000158   -0.004230
----------------------------------------
   Max    0.109836
   Res    0.053883    sqrt( Sum f_i^2 / 3N )
----------------------------------------
   Max    0.109836    constrained

Stress-tensor-Voigt (kbar):      -69.81      -69.81      -69.81       -3.14       -3.14       -3.14
Target enthalpy (eV/cell)    -6851.3537

cgvc: Finished line minimization    3.  Mean atomic displacement =    0.0189

* Maximum dynamic memory allocated =    30 MB

siesta:                 ==============================
                            Begin CG move =     10
                        ==============================

outcell: Unit cell vectors (Ang):
       10.860000    0.000000    0.000000
        0.000000   10.860000    0.000000
        0.000000    0.000000   10.860000

outcell: Cell vector modules (Ang)   :   10.860000   10.860000   10.860000
outcell: Cell angles (23,13,12) (deg):     90.0000     90.0000     90.0000
outcell: Cell volume (Ang**3)        :   1280.8241

siesta: iscf   Eharris(eV)      E_KS(eV)   FreeEng(eV)   dDmax  Ef(eV)
siesta:    1    -6851.3263    -6851.3143    -6851.3489  0.0232 -3.0667
siesta:    2    -6851.3331    -6851.3071    -6851.3418  0.0211 -3.1440
siesta:    3    -6851.3176    -6851.3145    -6851.3492  0.0041 -3.0991
siesta:    4    -6851.3175    -6851.3165    -6851.3511  0.0011 -3.0938
siesta:    5    -6851.3174    -6851.3170    -6851.3517  0.0006 -3.0970

siesta: E_KS(eV) =            -6851.3172

siesta: Atomic forces (eV/Ang):
----------------------------------------
   Tot   -0.003086   -0.001460    0.001108
----------------------------------------
   Max    0.204218
   Res    0.070884    sqrt( Sum f_i^2 / 3N )
----------------------------------------
   Max    0.204218    constrained

Stress-tensor-Voigt (kbar):      -69.68      -69.68      -69.68       -1.99       -1.99       -1.99
Target enthalpy (eV/cell)    -6851.3518

* Maximum dynamic memory allocated =    30 MB

siesta:                 ==============================
                            Begin CG move =     11
                        ==============================

outcell: Unit cell vectors (Ang):
       10.860000    0.000000    0.000000
        0.000000   10.860000    0.000000
        0.000000    0.000000   10.860000

outcell: Cell vector modules (Ang)   :   10.860000   10.860000   10.860000
outcell: Cell angles (23,13,12) (deg):     90.0000     90.0000     90.0000
outcell: Cell volume (Ang**3)        :   1280.8241

siesta: iscf   Eharris(eV)      E_KS(eV)   FreeEng(eV)   dDmax  Ef(eV)
siesta:    1    -6851.3353    -6851.3346    -6851.3692  0.0115 -3.1013
siesta:    2    -6851.3370    -6851.3303    -6851.3649  0.0106 -3.0632
siesta:    3    -6851.3330    -6851.3333    -6851.3679  0.0021 -3.0853
siesta:    4    -6851.3330    -6851.3329    -6851.3675  0.0006 -3.0878

siesta: E_KS(eV) =            -6851.3329

siesta: Atomic forces (eV/Ang):
----------------------------------------
   Tot   -0.000472    0.001696    0.005154
----------------------------------------
   Max    0.051369
   Res    0.025241    sqrt( Sum f_i^2 / 3N )
----------------------------------------
   Max    0.051369    constrained

Stress-tensor-Voigt (kbar):      -70.16      -70.16      -70.16       -2.63       -2.63       -2.63
Target enthalpy (eV/cell)    -6851.3675

cgvc: Finished line minimization    4.  Mean atomic displacement =    0.0094

* Maximum dynamic memory allocated =    30 MB

siesta:                 ==============================
                            Begin CG move =     12
                        ==============================

outcell: Unit cell vectors (Ang):
       10.860000    0.000000    0.000000
        0.000000   10.860000    0.000000
        0.000000    0.000000   10.860000

outcell: Cell vector modules (Ang)   :   10.860000   10.860000   10.860000
outcell: Cell angles (23,13,12) (deg):     90.0000     90.0000     90.0000
outcell: Cell volume (Ang**3)        :   1280.8241

siesta: iscf   Eharris(eV)      E_KS(eV)   FreeEng(eV)   dDmax  Ef(eV)
siesta:    1    -6851.3356    -6851.3517    -6851.3864  0.0042 -3.0693
siesta:    2    -6851.3379    -6851.3315    -6851.3662  0.0076 -3.1030
siesta:    3    -6851.3339    -6851.3412    -6851.3758  0.0018 -3.0844
siesta:    4    -6851.3339    -6851.3349    -6851.3695  0.0004 -3.0826

siesta: E_KS(eV) =            -6851.3339

siesta: Atomic forces (eV/Ang):
----------------------------------------
   Tot   -0.000326   -0.001064   -0.002249
----------------------------------------
   Max    0.080228
   Res    0.029456    sqrt( Sum f_i^2 / 3N )
----------------------------------------
   Max    0.080228    constrained

Stress-tensor-Voigt (kbar):      -69.91      -69.91      -69.91       -2.85       -2.85       -2.85
Target enthalpy (eV/cell)    -6851.3685

* Maximum dynamic memory allocated =    30 MB

siesta:                 ==============================
                            Begin CG move =     13
                        ==============================

outcell: Unit cell vectors (Ang):
       10.860000    0.000000    0.000000
        0.000000   10.860000    0.000000
        0.000000    0.000000   10.860000

outcell: Cell vector modules (Ang)   :   10.860000   10.860000   10.860000
outcell: Cell angles (23,13,12) (deg):     90.0000     90.0000     90.0000
outcell: Cell volume (Ang**3)        :   1280.8241

siesta: iscf   Eharris(eV)      E_KS(eV)   FreeEng(eV)   dDmax  Ef(eV)
siesta:    1    -6851.3365    -6851.3284    -6851.3631  0.0019 -3.0918
siesta:    2    -6851.3369    -6851.3357    -6851.3704  0.0034 -3.0764
siesta:    3    -6851.3361    -6851.3327    -6851.3674  0.0008 -3.0852

siesta: E_KS(eV) =            -6851.3356

siesta: Atomic forces (eV/Ang):
----------------------------------------
   Tot   -0.010847   -0.009531   -0.007443
----------------------------------------
   Max    0.032595
   Res    0.014439    sqrt( Sum f_i^2 / 3N )
----------------------------------------
   Max    0.032595    constrained

Stress-tensor-Voigt (kbar):      -69.75      -69.75      -69.75       -2.81       -2.81       -2.81
Target enthalpy (eV/cell)    -6851.3702

* Maximum dynamic memory allocated =    30 MB

outcoor: Relaxed atomic coordinates (scaled):               
   -0.00034412   -0.00034411   -0.00034411   1       1  Si
    0.25034475    0.25034474    0.25034474   1       2  Si
    0.00023346    0.50094506    0.50094508   1       3  Si
    0.25173068    0.75040358    0.75040357   1       4  Si
    0.50094507    0.00023348    0.50094509   1       5  Si
    0.75040360    0.25173068    0.75040358   1       6  Si
    0.50094508    0.50094508    0.00023346   1       7  Si
    0.75040360    0.75040359    0.25173069   1       8  Si
    1.00041483    0.00145960    0.00145959   1       9  Si
    1.24958598    0.24854339    0.24854339   1      10  Si
    1.00022041    0.49633599    0.49633599   1      11  Si
    1.25576912    0.74031667    0.74031670   1      12  Si
    1.50000167    0.00094682    0.49881399   1      13  Si
    1.75118727    0.24905388    0.74999909   1      14  Si
    1.50000165    0.49881400    0.00094684   1      15  Si
    1.75118724    0.74999905    0.24905389   1      16  Si
    0.00145958    1.00041484    0.00145960   1      17  Si
    0.24854339    1.24958603    0.24854339   1      18  Si
    0.00094681    1.50000172    0.49881400   1      19  Si
    0.24905387    1.75118728    0.74999911   1      20  Si
    0.49633594    1.00022021    0.49633597   1      21  Si
    0.74031719    1.25576943    0.74031726   1      22  Si
    0.49881401    1.50000165    0.00094686   1      23  Si
    0.74999908    1.75118725    0.24905388   1      24  Si
    0.00145959    0.00145960    1.00041494   1      25  Si
    0.24854342    0.24854344    1.24958608   1      26  Si
    0.00094684    0.49881403    1.50000170   1      27  Si
    0.24905386    0.74999912    1.75118727   1      28  Si
    0.49881402    0.00094686    1.50000167   1      29  Si
    0.74999911    0.24905387    1.75118724   1      30  Si
    0.49633592    0.49633592    1.00021988   1      31  Si
    0.74031808    0.74031811    1.25576998   1      32  Si
    0.99971303    0.99971303    0.00133014   1      33  Si
    1.25028811    1.25028813    0.24867009   1      34  Si
    1.00153297    1.50114162    0.49776525   1      35  Si
    1.24846786    1.75223592    0.74885893   1      36  Si
    1.50114158    1.00153299    0.49776533   1      37  Si
    1.75223593    1.24846785    0.74885895   1      38  Si
    1.49959706    1.49959705   -0.00173005   1      39  Si
    1.74905422    1.74905424    0.24976518   1      40  Si
    0.99971299    0.00133015    0.99971303   1      41  Si
    1.25028810    0.24867009    1.25028813   1      42  Si
    1.00153294    0.49776517    1.50114167   1      43  Si
    1.24846792    0.74885884    1.75223599   1      44  Si
    1.49959706   -0.00173005    1.49959704   1      45  Si
    1.74905422    0.24976518    1.74905426   1      46  Si
    1.50114159    0.49776533    1.00153295   1      47  Si
    1.75223601    0.74885888    1.24846785   1      48  Si
    0.00133014    0.99971297    0.99971301   1      49  Si
    0.24867006    1.25028809    1.25028812   1      50  Si
   -0.00173008    1.49959705    1.49959704   1      51  Si
    0.24976519    1.74905422    1.74905424   1      52  Si
    0.49776519    1.00153290    1.50114168   1      53  Si
    0.74885883    1.24846790    1.75223603   1      54  Si
    0.49776527    1.50114160    1.00153294   1      55  Si
    0.74885883    1.75223604    1.24846789   1      56  Si
    0.95150532    0.95150507    0.95150466   1      57  Si
    1.29850911    1.29850885    1.29850842   1      58  Si
    0.99422955    1.50968337    1.50968340   1      59  Si
    1.24978406    1.75366701    1.75366704   1      60  Si
    1.50968391    0.99422990    1.50968398   1      61  Si
    1.75366699    1.24978382    1.75366703   1      62  Si
    1.50968480    1.50968483    0.99423045   1      63  Si
    1.75366697    1.75366699    1.24978350   1      64  Si
    1.12501689    1.12501169    1.12500340   2      65  H

siesta: Program's energy decomposition (eV):
siesta: Eions   =     12205.375277
siesta: Ena     =      3675.791985
siesta: Ekin    =      2573.419286
siesta: Enl     =       951.657090
siesta: DEna    =       213.822549
siesta: DUscf   =         5.345315
siesta: DUext   =         0.000000
siesta: Exc     =     -2065.996524
siesta: eta*DQ  =         0.000000
siesta: Emadel  =         0.000000
siesta: Emeta   =         0.000000
siesta: Emolmec =         0.000000
siesta: Ekinion =         0.000000
siesta: Eharris =     -6851.336148
siesta: Etot    =     -6851.335575
siesta: FreeEng =     -6851.370233

siesta: Final energy (eV):
siesta:       Kinetic =    2573.419286
siesta:       Hartree =     405.716083
siesta:    Ext. field =       0.000000
siesta:   Exch.-corr. =   -2065.996524
siesta:  Ion-electron =   -3075.620431
siesta:       Ion-ion =   -4688.853989
siesta:       Ekinion =       0.000000
siesta:         Total =   -6851.335575

siesta: Stress tensor (static) (eV/Ang**3):
siesta:    -0.043534   -0.001752   -0.001752
siesta:    -0.001752   -0.043534   -0.001752
siesta:    -0.001752   -0.001752   -0.043534

siesta: Cell volume =       1280.824056 Ang**3

siesta: Pressure (static):
siesta:                Solid            Molecule  Units
siesta:           0.00047414          0.00047134  Ry/Bohr**3
siesta:           0.04353424          0.04327652  eV/Ang**3
siesta:          69.75028968         69.33737444  kBar

* Maximum dynamic memory allocated : Node    0 =    30 MB

* Maximum memory occured during poison                        

timer: CPU execution times:
timer:  Routine       Calls   Time/call    Tot.time        %
timer:  siesta            1     218.482     218.482   100.00
timer:  Setup             1       0.482       0.482     0.22
timer:  bands             1       0.001       0.001     0.00
timer:  writewave         1       0.001       0.001     0.00
timer:  KSV_init          1       0.001       0.001     0.00
timer:  IterMD           14      15.570     217.982    99.77
timer:  hsparse          15       0.258       3.869     1.77
timer:  overfsm          28       0.054       1.525     0.70
timer:  IterSCF         101       2.109     213.006    97.49
timer:  kinefsm          28       0.055       1.529     0.70
timer:  nlefsm           28       0.443      12.392     5.67
timer:  DHSCF           101       1.683     169.955    77.79
timer:  DHSCF1            1       0.066       0.066     0.03
timer:  DHSCF2           14       1.881      26.327    12.05
timer:  REORD           634       0.001       0.468     0.21
timer:  POISON          115       0.054       6.261     2.87
timer:  DHSCF3          101       1.088     109.838    50.27
timer:  rhoofd          101       0.461      46.556    21.31
timer:  cellXC          101       0.087       8.776     4.02
timer:  vmat            101       0.467      47.190    21.60
timer:  diagon           87       0.272      23.660    10.83
timer:  rdiag            87       0.080       6.924     3.17
timer:  rdiag1           87       0.003       0.278     0.13
timer:  rdiag2           87       0.010       0.837     0.38
timer:  rdiag3           87       0.059       5.095     2.33
timer:  rdiag4           87       0.007       0.593     0.27
timer:  MolMec           28       0.000       0.001     0.00
timer:  DHSCF4           14       2.401      33.619    15.39
timer:  dfscf            14       1.998      27.972    12.80
timer:  optical           1       0.001       0.001     0.00
  

elaps: ELAPSED times:
elaps:  Routine       Calls   Time/call    Tot.time        %
elaps:  siesta            1     222.216     222.216   100.00
elaps:  Setup             1       0.531       0.531     0.24
elaps:  bands             1       0.001       0.001     0.00
elaps:  writewave         1       0.001       0.001     0.00
elaps:  KSV_init          1       0.000       0.000     0.00
elaps:  IterMD           14      15.833     221.666    99.75
elaps:  hsparse          15       0.258       3.868     1.74
elaps:  overfsm          28       0.054       1.524     0.69
elaps:  IterSCF         101       2.144     216.557    97.45
elaps:  kinefsm          28       0.055       1.527     0.69
elaps:  nlefsm           28       0.443      12.396     5.58
elaps:  DHSCF           101       1.682     169.927    76.47
elaps:  DHSCF1            1       0.066       0.066     0.03
elaps:  DHSCF2           14       1.880      26.324    11.85
elaps:  REORD           634       0.001       0.461     0.21
elaps:  POISON          115       0.054       6.259     2.82
elaps:  DHSCF3          101       1.087     109.812    49.42
elaps:  rhoofd          101       0.461      46.542    20.94
elaps:  cellXC          101       0.087       8.775     3.95
elaps:  vmat            101       0.467      47.185    21.23
elaps:  diagon           87       0.272      23.660    10.65
elaps:  rdiag            87       0.080       6.927     3.12
elaps:  rdiag1           87       0.003       0.284     0.13
elaps:  rdiag2           87       0.010       0.828     0.37
elaps:  rdiag3           87       0.059       5.104     2.30
elaps:  rdiag4           87       0.007       0.590     0.27
elaps:  MolMec           28       0.000       0.001     0.00
elaps:  DHSCF4           14       2.401      33.617    15.13
elaps:  dfscf            14       1.998      27.969    12.59
elaps:  optical           1       0.000       0.000     0.00
  
>> End of run:  17-DEC-2006  19:59:30
