Siesta Version  : siesta-4.1-1033
Architecture    : x86_64-linux-n-62-18-18
Compiler version: GNU Fortran (GCC) 7.3.0
Compiler flags  : mpifort -m64 -fPIC -O3 -march=native -ftree-vectorize -fexpensive-optimizatioons -funroll-loops -fprefetch-loop-arrays -fno-second-underscore  -flto
PP flags        : -I/zdata/groups/common/nicpa/2018-feb/generic/build-tools/1.0/include -I/zdatta/groups/common/nicpa/2018-feb/generic/gcc/7.3.0/include -I/zdata/groups/common/nicpa/2018-feb/generic/gcc/7.3.0/include -I/zdata/groups/common/nicpa/2018-feb/XeonE5-2665/zlib/1.2.11/gnu-7.3.0/include -I/zdata/groups/common/nicpa/2018-feb/generic/numactl/2.0.11/include -I/zdata/groups/common/nicpa/2018-feb/XeonE5-2665/libxml2/2.9.7/gnu-7.3.0/include -I/zdata/groups/common/nicpa/2018-feb/XeonE5-2665/hwloc/1.11.9/gnu-7.3.0/include -I/zdata/groups/common/nicpa/2018-feb/XeonE5-2665/openmpi/3.0.0/gnu-7.3.0/include -I/zdata/groups/common/nicpa/2018-feb/XeonE5-2665/szip/2.1.1/gnu-7.3.0/include -I/zdata/groups/common/nicpa/2018-feb/XeonE5-2665/hdf5/1.8.18/gnu-7.3.0/include -I/zdata/groups/common/nicpa/2018-feb/XeonE5-2665/pnetcdf/1.8.1/gnu-7.3.0/include -I/zdata/groups/common/nicpa/2018-feb/XeonE5-2665/netcdf/4.6.0/gnu-7.3.0/include -I/zdata/groups/common/nicpa/2018-feb/XeonE5-2665/flook/0.7.0/gnu-7.3.0/include -I/zdata/groups/common/nicpa/2018-feb/XeonE5-2665/parmetis/4.0.3/gnu-7.3.0/include -I/zdata/groups/common/nicpa/2018-feb/XeonE5-2665/scalapack/204/gnu-7.3.0/include -I/zdata/groups/common/nicpa/2018-feb/XeonE5-2665/openblas/0.2.20/gnu-7.3.0/include -I/zdata/groups/common/nicpa/2018-feb/XeonE5-2665/scotch/6.0.4/gnu-7.3.0/include -I/zdata/groups/common/nicpa/2018-feb/XeonE5-2665/mumps/5.1.2/gnu-7.3.0/include -I/zdata/groups/common/nicpa/2018-feb/XeonE5-2665/fftw/3.3.7/gnu-7.3.0/include -I/zdata/groups/common/nicpa/2018-feb/XeonE5-2665/elpa/2017.05.003/gnu-7.3.0/include/elpa -DSIESTA__ELPA -DMPI -D1 -DFC_HAVE_ABORT -DCDF -DCDF4 -DSIESTA__FLOOK  -DNCDF -DNCDF_4 -DNCDF_PARALLEL -DSIESTA__METIS -DSIESTA__MUMPS -DTS_NOCHECKS -DSIESTA__MRRR
Libraries       : libncdf.a libfdict.a -lnetcdff -lnetcdf -lpnetcdf -lhdf5_hl -lhdf5 -lz  -lzmuumps -lmumps_common -lesmumps -lscotch -lscotcherr -lpord -lparmetis -lmetis -lelpa -lscalapack -lopenblas  -L/zdata/groups/common/nicpa/2018-feb/XeonE5-2665/flook/0.7.0/gnu-7.3.0/lib -Wl,-rpath=/zdata/groups/common/nicpa/2018-feb/XeonE5-2665/flook/0.7.0/gnu-7.3.0/lib -lflookall -ldl  -flto -fuse-linker-plugin  -lmetis
PARALLEL version
NetCDF support
NetCDF-4 support
NetCDF-4 MPI-IO support
METIS ordering support

* Running on 8 nodes in parallel
>> Start of run:   5-NOV-2018  11:14:28

                           ***********************       
                           *  WELCOME TO SIESTA  *       
                           ***********************       

reinit: Reading from ../sinw.fdf

reinit: -----------------------------------------------------------------------
reinit: System Name: Y.M. Niquet wire, 41 atoms
reinit: -----------------------------------------------------------------------
reinit: System Label: sinw
reinit: -----------------------------------------------------------------------

initatom: Reading input for the pseudopotentials and atomic orbitals ----------
Species number:   1 Atomic number:   14 Label: Si
Species number:   2 Atomic number:    1 Label: H

Ground state valence configuration:   3s02  3p02
Reading pseudopotential information in formatted form from Si.psf

Valence configuration for pseudopotential generation:
3s( 2.00) rc: 1.89
3p( 2.00) rc: 1.89
3d( 0.00) rc: 1.89
4f( 0.00) rc: 1.89
Ground state valence configuration:   1s01
Reading pseudopotential information in formatted form from H.psf

Valence configuration for pseudopotential generation:
1s( 1.00) rc: 1.25
2p( 0.00) rc: 1.25
3d( 0.00) rc: 1.25
4f( 0.00) rc: 1.25
For Si, standard SIESTA heuristics set lmxkb to 3
 (one more than the basis l, including polarization orbitals).
Use PS.lmax or PS.KBprojectors blocks to override.
For H, standard SIESTA heuristics set lmxkb to 2
 (one more than the basis l, including polarization orbitals).
Use PS.lmax or PS.KBprojectors blocks to override.

<basis_specs>
===============================================================================
Si                   Z=  14    Mass=  28.090        Charge= 0.17977+309
Lmxo=1 Lmxkb= 3    BasisType=split      Semic=F
L=0  Nsemic=0  Cnfigmx=3
          n=1  nzeta=2  polorb=0
            splnorm:   0.15000    
               vcte:    0.0000    
               rinn:    0.0000    
               qcoe:    0.0000    
               qyuk:    0.0000    
               qwid:   0.10000E-01
                rcs:    0.0000      0.0000    
            lambdas:    1.0000      1.0000    
L=1  Nsemic=0  Cnfigmx=3
          n=1  nzeta=2  polorb=1
            splnorm:   0.15000    
               vcte:    0.0000    
               rinn:    0.0000    
               qcoe:    0.0000    
               qyuk:    0.0000    
               qwid:   0.10000E-01
                rcs:    0.0000      0.0000    
            lambdas:    1.0000      1.0000    
-------------------------------------------------------------------------------
L=0  Nkbl=1  erefs: 0.17977+309
L=1  Nkbl=1  erefs: 0.17977+309
L=2  Nkbl=1  erefs: 0.17977+309
L=3  Nkbl=1  erefs: 0.17977+309
===============================================================================
</basis_specs>

atom: Called for Si                    (Z =  14)

read_vps: Pseudopotential generation method:
read_vps: ATM3      Troullier-Martins                       
Total valence charge:    4.00000

xc_check: Exchange-correlation functional:
xc_check: Ceperley-Alder
V l=0 = -2*Zval/r beyond r=  2.5494
V l=1 = -2*Zval/r beyond r=  2.5494
V l=2 = -2*Zval/r beyond r=  2.5494
V l=3 = -2*Zval/r beyond r=  2.5494
All V_l potentials equal beyond r=  1.8652
This should be close to max(r_c) in ps generation
All pots = -2*Zval/r beyond r=  2.5494
Using large-core scheme for Vlocal

atom: Estimated core radius    2.54944

atom: Including non-local core corrections could be a good idea
atom: Maximum radius for 4*pi*r*r*local-pseudopot. charge    2.85303
atom: Maximum radius for r*vlocal+2*Zval:    2.58151
GHOST: No ghost state for L =  0
GHOST: No ghost state for L =  1
GHOST: No ghost state for L =  2
GHOST: No ghost state for L =  3

KBgen: Kleinman-Bylander projectors: 
   l= 0   rc=  1.936440   el= -0.796617   Ekb=  4.661340   kbcos=  0.299756
   l= 1   rc=  1.936440   el= -0.307040   Ekb=  1.494238   kbcos=  0.301471
   l= 2   rc=  1.936440   el=  0.002313   Ekb= -2.808672   kbcos= -0.054903
   l= 3   rc=  1.936440   el=  0.003402   Ekb= -0.959059   kbcos= -0.005513

KBgen: Total number of  Kleinman-Bylander projectors:   16
atom: -------------------------------------------------------------------------

atom: SANKEY-TYPE ORBITALS:
atom: Selected multiple-zeta basis: split     

SPLIT: Orbitals with angular momentum L= 0

SPLIT: Basis orbitals for state 3s

SPLIT: PAO cut-off radius determined from an
SPLIT: energy shift=  0.007350 Ry

   izeta = 1
                 lambda =    1.000000
                     rc =    5.674097
                 energy =   -0.790139
                kinetic =    0.533579
    potential(screened) =   -1.323718
       potential(ionic) =   -3.776962

   izeta = 2
                 rmatch =    4.530823
              splitnorm =    0.150000
                 energy =   -0.698340
                kinetic =    0.836495
    potential(screened) =   -1.534835
       potential(ionic) =   -4.106738

SPLIT: Orbitals with angular momentum L= 1

SPLIT: Basis orbitals for state 3p

SPLIT: PAO cut-off radius determined from an
SPLIT: energy shift=  0.007350 Ry

   izeta = 1
                 lambda =    1.000000
                     rc =    7.105845
                 energy =   -0.299565
                kinetic =    0.824289
    potential(screened) =   -1.123854
       potential(ionic) =   -3.348521

   izeta = 2
                 rmatch =    5.264094
              splitnorm =    0.150000
                 energy =   -0.218814
                kinetic =    1.203060
    potential(screened) =   -1.421875
       potential(ionic) =   -3.849590

POLgen: Perturbative polarization orbital with L=  2

POLgen: Polarization orbital for state 3p

   izeta = 1
                     rc =    7.105845
                 energy =    0.366373
                kinetic =    1.162439
    potential(screened) =   -0.796066
       potential(ionic) =   -2.795335
atom: Total number of Sankey-type orbitals: 13

atm_pop: Valence configuration (for local Pseudopot. screening):
 3s( 2.00)                                                            
 3p( 2.00)                                                            
Vna: chval, zval:    4.00000   4.00000

Vna:  Cut-off radius for the neutral-atom potential:   7.105845

atom: _________________________________________________________________________

<basis_specs>
===============================================================================
H                    Z=   1    Mass=  1.0100        Charge= 0.17977+309
Lmxo=0 Lmxkb= 2    BasisType=split      Semic=F
L=0  Nsemic=0  Cnfigmx=1
          n=1  nzeta=2  polorb=1
            splnorm:   0.15000    
               vcte:    0.0000    
               rinn:    0.0000    
               qcoe:    0.0000    
               qyuk:    0.0000    
               qwid:   0.10000E-01
                rcs:    0.0000      0.0000    
            lambdas:    1.0000      1.0000    
-------------------------------------------------------------------------------
L=0  Nkbl=1  erefs: 0.17977+309
L=1  Nkbl=1  erefs: 0.17977+309
L=2  Nkbl=1  erefs: 0.17977+309
===============================================================================
</basis_specs>

atom: Called for H                     (Z =   1)

read_vps: Pseudopotential generation method:
read_vps: ATM3      Troullier-Martins                       
Total valence charge:    1.00000

xc_check: Exchange-correlation functional:
xc_check: Ceperley-Alder
V l=0 = -2*Zval/r beyond r=  1.2343
V l=1 = -2*Zval/r beyond r=  1.2189
V l=2 = -2*Zval/r beyond r=  1.2189
All V_l potentials equal beyond r=  1.2343
This should be close to max(r_c) in ps generation
All pots = -2*Zval/r beyond r=  1.2343

VLOCAL1: 99.0% of the norm of Vloc inside     28.493 Ry
VLOCAL1: 99.9% of the norm of Vloc inside     64.935 Ry
atom: Maximum radius for 4*pi*r*r*local-pseudopot. charge    1.45251
atom: Maximum radius for r*vlocal+2*Zval:    1.21892
GHOST: No ghost state for L =  0
GHOST: No ghost state for L =  1
GHOST: No ghost state for L =  2

KBgen: Kleinman-Bylander projectors: 
   l= 0   rc=  1.364359   el= -0.467325   Ekb= -2.005361   kbcos= -0.336422
   l= 1   rc=  1.434438   el=  0.001430   Ekb= -0.501708   kbcos= -0.021697
   l= 2   rc=  1.470814   el=  0.002365   Ekb= -0.190555   kbcos= -0.002281

KBgen: Total number of  Kleinman-Bylander projectors:    9
atom: -------------------------------------------------------------------------

atom: SANKEY-TYPE ORBITALS:
atom: Selected multiple-zeta basis: split     

SPLIT: Orbitals with angular momentum L= 0

SPLIT: Basis orbitals for state 1s

SPLIT: PAO cut-off radius determined from an
SPLIT: energy shift=  0.007350 Ry

   izeta = 1
                 lambda =    1.000000
                     rc =    5.610042
                 energy =   -0.460727
                kinetic =    0.871089
    potential(screened) =   -1.331816
       potential(ionic) =   -1.862047

   izeta = 2
                 rmatch =    4.052721
              splitnorm =    0.150000
                 energy =   -0.373007
                kinetic =    1.378602
    potential(screened) =   -1.751608
       potential(ionic) =   -2.318078

POLgen: Perturbative polarization orbital with L=  1

POLgen: Polarization orbital for state 1s

   izeta = 1
                     rc =    5.610042
                 energy =    0.580858
                kinetic =    1.209010
    potential(screened) =   -0.628152
       potential(ionic) =   -1.094531
atom: Total number of Sankey-type orbitals:  5

atm_pop: Valence configuration (for local Pseudopot. screening):
 1s( 1.00)                                                            
Vna: chval, zval:    1.00000   1.00000

Vna:  Cut-off radius for the neutral-atom potential:   5.610042

atom: _________________________________________________________________________

prinput: Basis input ----------------------------------------------------------

PAO.BasisType split     

%block ChemicalSpeciesLabel
    1   14 Si                      # Species index, atomic number, species label
    2    1 H                       # Species index, atomic number, species label
%endblock ChemicalSpeciesLabel

%block PAO.Basis                 # Define Basis set
Si                    2                    # Species label, number of l-shells
 n=3   0   2                         # n, l, Nzeta 
   5.674      4.531   
   1.000      1.000   
 n=3   1   2 P   1                   # n, l, Nzeta, Polarization, NzetaPol
   7.106      5.264   
   1.000      1.000   
H                     1                    # Species label, number of l-shells
 n=1   0   2 P   1                   # n, l, Nzeta, Polarization, NzetaPol
   5.610      4.053   
   1.000      1.000   
%endblock PAO.Basis

prinput: ----------------------------------------------------------------------

Dumping basis to NetCDF file Si.ion.nc
Dumping basis to NetCDF file H.ion.nc
coor:   Atomic-coordinates input format  =     Cartesian coordinates
coor:                                          (in Angstroms)

siesta: Atomic coordinates (Bohr) and species
siesta:      3.77945   0.00000   0.00000  1        1
siesta:      7.40735   0.00000   2.56530  1        2
siesta:      3.77945  -3.62790  -2.56530  1        3
siesta:      3.77945   3.62790  -2.56530  1        4
siesta:      3.77945   7.25580   0.00000  1        5
siesta:      7.40735   3.62790   5.13061  1        6
siesta:      7.40735  -3.62790   5.13061  1        7
siesta:      3.77945  -7.25580   0.00000  1        8
siesta:      7.40735  -3.62790  -5.13061  1        9
siesta:      7.40735   3.62790  -5.13061  1       10
siesta:      7.40735   0.00000  -7.69591  1       11
siesta:      3.77945   3.62790   7.69591  1       12
siesta:      3.77945  -3.62790   7.69591  1       13
siesta:      7.40735  -7.25580   2.56530  1       14
siesta:      7.40735   7.25580   2.56530  1       15
siesta:      3.77945  -1.23632   9.38703  2       16
siesta:      5.01577   0.00000  -9.38703  2       17
siesta:      3.77945   1.23632   9.38703  2       18
siesta:      3.77945  -9.69373  -1.72383  2       19
siesta:      7.40735  -6.06583  -6.85442  2       20
siesta:      3.77945   9.69373  -1.72383  2       21
siesta:      7.40735   6.06583  -6.85442  2       22
siesta:      9.79899   0.00000  -9.38703  2       23
siesta:      7.40735   9.69373   4.28911  2       24
siesta:      7.40735  -9.69373   4.28911  2       25
siesta:      3.77945  -6.01954   9.38703  2       26
siesta:      3.77945   6.01954   9.38703  2       27

siesta: System type = chain     

initatomlists: Number of atoms, orbitals, and projectors:     27   255   348

coxmol: Writing XMOL coordinates into file sinw.xyz                                                            

siesta: ******************** Simulation parameters ****************************
siesta:
siesta: The following are some of the parameters of the simulation.
siesta: A complete list of the parameters used, including default values,
siesta: can be found in file out.fdf
siesta:
redata: Spin configuration                          = none
redata: Number of spin components                   = 1
redata: Time-Reversal Symmetry                      = T
redata: Spin-spiral                                 = F
redata: Long output                                 =   T
redata: Number of Atomic Species                    =        2
redata: Charge density info will appear in .RHO file
redata: Write Mulliken Pop.                         = Atomic and Orbital charges
redata: Matel table size (NRTAB)                    =     1024
redata: Mesh Cutoff                                 =   200.0000 Ry
redata: Net charge of the system                    =     0.0000 |e|
redata: Min. number of SCF Iter                     =        0
redata: Max. number of SCF Iter                     =     1000
redata: SCF convergence failure will abort job
redata: SCF mix quantity                            = Hamiltonian
redata: Mix DM or H after convergence               =   F
redata: Recompute H after scf cycle                 =   F
redata: Mix DM in first SCF step                    =   T
redata: Write Pulay info on disk                    =   F
redata: New DM Mixing Weight                        =     0.2500
redata: New DM Occupancy tolerance                  = 0.000000000001
redata: Kick with linear mixing every               =       15 iterations
redata: DM Mixing Weight for Kicks                  =     0.5000
redata: Require Harris convergence for SCF          =   F
redata: Harris energy tolerance for SCF             =     0.000100 eV
redata: Require DM convergence for SCF              =   T
redata: DM tolerance for SCF                        =     0.000100
redata: Require EDM convergence for SCF             =   F
redata: EDM tolerance for SCF                       =     0.001000 eV
redata: Require H convergence for SCF               =   T
redata: Hamiltonian tolerance for SCF               =     0.001000 eV
redata: Require (free) Energy convergence for SCF   =   F
redata: (free) Energy tolerance for SCF             =     0.000100 eV
redata: Using Saved Data (generic)                  =   T
redata: Use continuation files for DM               =   T
redata: Neglect nonoverlap interactions             =   F
redata: Method of Calculation                       = Diagonalization
redata: Electronic Temperature                      =   299.9869 K
redata: Fix the spin of the system                  =   F
redata: Dynamics option                             = Single-point calculation
mix.SCF: Pulay mixing                            = Pulay
mix.SCF:    Variant                              = stable
mix.SCF:    History steps                        = 3
mix.SCF:    Linear mixing weight                 =     0.250000
mix.SCF:    Mixing weight                        =     0.250000
mix.SCF:    SVD condition                        = 0.1000E-07
mix.SCF:    Restart steps                        = 14
mix.SCF:    Restart save steps                   = 1
mix.SCF:    Number of mixing iterations          = 14
mix.SCF:    Following mixer                      = Linear-Kick
mix.SCF: Linear mixing                           = Linear-Kick
mix.SCF:    Mixing weight                        =     0.500000
mix.SCF:    Number of mixing iterations          = 1
mix.SCF:    Following mixer                      = Pulay
redata: Save all siesta data in one NC              =   F
redata: ***********************************************************************

%block SCF.Mixers
  Pulay
  Linear-Kick
%endblock SCF.Mixers

%block SCF.Mixer.Pulay
  # Mixing method
  method pulay
  variant stable

  # Mixing options
  weight 0.2500
  weight.linear 0.2500
  history 3
  restart 14
  restart.save 1

  # Continuation options
  iterations 14
  next Linear-Kick
%endblock SCF.Mixer.Pulay

%block SCF.Mixer.Linear-Kick
  # Mixing method
  method linear

  # Mixing options
  weight 0.5000

  # Continuation options
  iterations 1
  next Pulay
%endblock SCF.Mixer.Linear-Kick

DM_history_depth set to one: no extrapolation allowed by default for geometry relaxation
Size of DM history Fstack: 1
Total number of electrons:    72.000000
Total ionic charge:    72.000000

* ProcessorY, Blocksize:    2  24


* Orbital distribution balance (max,min):    48    24

 Kpoints in:            4 . Kpoints trimmed:            4

siesta: k-point coordinates (Bohr**-1) and weights:
siesta:    1    0.000000    0.000000    0.005412       0.250000
siesta:    2    0.000000    0.000000    0.016237       0.250000
siesta:    3    0.000000    0.000000    0.027061       0.250000
siesta:    4    0.000000    0.000000    0.037886       0.250000

siesta: k-grid: Number of k-points =     4
siesta: k-grid: Cutoff (effective) =     1.920 Ang
siesta: k-grid: Supercell and displacements
siesta: k-grid:    1   0   0      0.000
siesta: k-grid:    0   1   0      0.000
siesta: k-grid:    0   0   8      0.500

diag: Algorithm                                     = D&C
diag: Parallel over k                               =   F
diag: Use parallel 2D distribution                  =   T
diag: Parallel block-size                           = 24
diag: Parallel distribution                         =     2 x     4
diag: Used triangular part                          = Lower
diag: Absolute tolerance                            =  0.100E-15
diag: Orthogonalization factor                      =  0.100E-05
diag: Memory factor                                 =  1.0000
Using LatticeConstant from fdf file for BandLinesScale:    7.255776 Bohr
Beware any cell changes by the end of the run
Using LatticeConstant from fdf file for BandLinesScale:    7.255776 Bohr
Beware any cell changes by the end of the run

superc: Internal auxiliary supercell:     5 x     1 x     1  =       5
superc: Number of atoms, orbitals, and projectors:    135   1275   1740


ts: **************************************************************
ts: Save H and S matrices                           =    F
ts: Save DM and EDM matrices                        =    F
ts: Fix Hartree potential                           =    F
ts: Only save the overlap matrix S                  =    F
ts: **************************************************************

************************ Begin: TS CHECKS AND WARNINGS ************************
************************ End: TS CHECKS AND WARNINGS **************************


                     ====================================
                        Single-point calculation
                     ====================================

outcoor: Atomic coordinates (Ang):                          
    2.00000000    0.00000000    0.00000000   1       1  Si
    3.91980000    0.00000000    1.35750000   1       2  Si
    2.00000000   -1.91980000   -1.35750000   1       3  Si
    2.00000000    1.91980000   -1.35750000   1       4  Si
    2.00000000    3.83960000    0.00000000   1       5  Si
    3.91980000    1.91980000    2.71500000   1       6  Si
    3.91980000   -1.91980000    2.71500000   1       7  Si
    2.00000000   -3.83960000    0.00000000   1       8  Si
    3.91980000   -1.91980000   -2.71500000   1       9  Si
    3.91980000    1.91980000   -2.71500000   1      10  Si
    3.91980000    0.00000000   -4.07250000   1      11  Si
    2.00000000    1.91980000    4.07250000   1      12  Si
    2.00000000   -1.91980000    4.07250000   1      13  Si
    3.91980000   -3.83960000    1.35750000   1      14  Si
    3.91980000    3.83960000    1.35750000   1      15  Si
    2.00000000   -0.65423000    4.96740000   2      16  H
    2.65423000    0.00000000   -4.96740000   2      17  H
    2.00000000    0.65423000    4.96740000   2      18  H
    2.00000000   -5.12970000   -0.91221000   2      19  H
    3.91980000   -3.20990000   -3.62720000   2      20  H
    2.00000000    5.12970000   -0.91221000   2      21  H
    3.91980000    3.20990000   -3.62720000   2      22  H
    5.18540000    0.00000000   -4.96740000   2      23  H
    3.91980000    5.12970000    2.26970000   2      24  H
    3.91980000   -5.12970000    2.26970000   2      25  H
    2.00000000   -3.18540000    4.96740000   2      26  H
    2.00000000    3.18540000    4.96740000   2      27  H

superc: Internal auxiliary supercell:     5 x     1 x     1  =       5
superc: Number of atoms, orbitals, and projectors:    135   1275   1740

outcell: Unit cell vectors (Ang):
        3.839590    0.000000    0.000000
        0.000000   38.395900    0.000000
        0.000000    0.000000   38.395900

outcell: Cell vector modules (Ang)   :    3.839590   38.395900   38.395900
outcell: Cell angles (23,13,12) (deg):     90.0000     90.0000     90.0000
outcell: Cell volume (Ang**3)        :   5660.4969
<dSpData1D:S at geom step 0
  <sparsity:sparsity for geom step 0
    nrows_g=255 nrows=48 sparsity=.4449 nnzs=28931, refcount: 7>
  <dData1D:(new from dSpData1D) n=28931, refcount: 1>
refcount: 1>
new_DM -- step:     1
Initializing Density Matrix...

Attempting to read DM from file... Failed...
DM filled with atomic data:
<dSpData2D:DM initialized from atoms
  <sparsity:sparsity for geom step 0
    nrows_g=255 nrows=48 sparsity=.4449 nnzs=28931, refcount: 8>
  <dData2D:DM n=28931 m=1, refcount: 1>
refcount: 1>
No. of atoms with KB's overlaping orbs in proc 0. Max # of overlaps:      57     269
New grid distribution:   1
           1       1:   18    1:   90    1:   45
           2       1:   18    1:   90   46:   90
           3       1:   18    1:   90   91:  135
           4       1:   18    1:   90  136:  180
           5       1:   18   91:  180    1:   45
           6       1:   18   91:  180   46:   90
           7       1:   18   91:  180   91:  135
           8       1:   18   91:  180  136:  180

InitMesh: MESH =    36 x   360 x   360 =     4665600
InitMesh: (bp) =    18 x   180 x   180 =      583200
InitMesh: Mesh cutoff (required, used) =   200.000   242.961 Ry
ExtMesh (bp) on 0 =    90 x   162 x   117 =     1705860
New grid distribution:   2
           1       1:   18   30:  180    1:    9
           2       1:   18    1:   26   22:  170
           3       1:   18    1:   29    1:    9
           4       1:   18   27:  180  171:  180
           5       1:   18   30:  180   10:   21
           6       1:   18   27:  180   22:  170
           7       1:   18    1:   29   10:   21
           8       1:   18    1:   26  171:  180
New grid distribution:   3
           1       1:   18   38:  180    1:   15
           2       1:   18    1:   62   34:  165
           3       1:   18    1:   37   16:   33
           4       1:   18    1:   62  166:  180
           5       1:   18   38:  180   16:   33
           6       1:   18   63:  180   34:  165
           7       1:   18    1:   37    1:   15
           8       1:   18   63:  180  166:  180
Setting up quadratic distribution...
ExtMesh (bp) on 0 =    90 x   223 x    81 =     1625670
PhiOnMesh: Number of (b)points on node 0 =                24462
PhiOnMesh: nlist on node 0 =               496441

stepf: Fermi-Dirac step function

siesta: Program's energy decomposition (eV):
siesta: Ebs     =      -744.886299
siesta: Eions   =      3092.503786
siesta: Ena     =       950.307489
siesta: Ekin    =       815.148067
siesta: Enl     =       152.519110
siesta: Eso     =         0.000000
siesta: Eldau   =         0.000000
siesta: DEna    =       -16.616733
siesta: DUscf   =        11.974351
siesta: DUext   =         0.000000
siesta: Enegf   =         0.000000
siesta: Exc     =      -597.093094
siesta: eta*DQ  =         0.000000
siesta: Emadel  =         0.000000
siesta: Emeta   =         0.000000
siesta: Emolmec =         0.000000
siesta: Ekinion =         0.000000
siesta: Eharris =     -1756.151965
siesta: Etot    =     -1776.264597
siesta: FreeEng =     -1776.264597

        iscf     Eharris(eV)        E_KS(eV)     FreeEng(eV)     dDmax    Ef(eV) dHmax(eV)
   scf:    1    -1756.151965    -1776.264597    -1776.264597  1.842084 -5.166086  4.233351
timer: Routine,Calls,Time,% = IterSCF        1       3.324  41.00
   scf:    2    -1777.784077    -1777.457522    -1777.457522  0.070697 -5.229304  2.338908
   scf:    3    -1777.766049    -1777.622392    -1777.622392  0.014762 -5.019024  1.671570
   scf:    4    -1778.077753    -1777.886518    -1777.886518  0.058811 -4.497293  0.369005
   scf:    5    -1777.900347    -1777.895069    -1777.895069  0.012294 -4.358834  0.141386
   scf:    6    -1777.898436    -1777.897178    -1777.897178  0.003702 -4.380399  0.032446
   scf:    7    -1777.897487    -1777.897347    -1777.897347  0.001093 -4.374344  0.008887
   scf:    8    -1777.897417    -1777.897384    -1777.897384  0.000448 -4.374494  0.005171
   scf:    9    -1777.897424    -1777.897405    -1777.897405  0.000541 -4.374190  0.001401
   scf:   10    -1777.897409    -1777.897407    -1777.897407  0.000109 -4.374239  0.000907
   scf:   11    -1777.897410    -1777.897409    -1777.897409  0.000165 -4.374257  0.000384
   scf:   12    -1777.897409    -1777.897409    -1777.897409  0.000033 -4.374297  0.000216

SCF Convergence by DM+H criterion
max |DM_out - DM_in|         :     0.0000329060
max |H_out - H_in|      (eV) :     0.0002164569
SCF cycle converged after 12 iterations

Using DM_out to compute the final energy and forces
No. of atoms with KB's overlaping orbs in proc 0. Max # of overlaps:      57     269

siesta: E_KS(eV) =            -1777.8974

siesta: E_KS - E_eggbox =     -1777.8974

siesta: Atomic forces (eV/Ang):
     1   -0.004760    0.000000    0.179476
     2   -0.006757    0.000000   -0.204561
     3   -0.003280   -0.081551   -0.386912
     4   -0.003280    0.081551   -0.386912
     5   -0.002398    0.311913    0.221164
     6   -0.007810   -0.020424    0.440940
     7   -0.007810    0.020424    0.440940
     8   -0.002398   -0.311913    0.221164
     9   -0.002847   -0.281119   -0.223390
    10   -0.002847    0.281119   -0.223390
    11    0.003626    0.000000   -1.408075
    12   -0.003311    0.520642   -0.257504
    13   -0.003311   -0.520642   -0.257504
    14   -0.004323   -0.360520   -0.209029
    15   -0.004323    0.360520   -0.209029
    16    0.000300   -0.842094    0.184183
    17    2.708172    0.000000    0.739193
    18    0.000300    0.842094    0.184183
    19    0.001629    0.400302    0.030571
    20    0.001736    0.340607    0.122705
    21    0.001629   -0.400302    0.030571
    22    0.001736   -0.340607    0.122705
    23   -2.705836    0.000000    0.737304
    24    0.001390   -0.395466   -0.024158
    25    0.001390    0.395466   -0.024158
    26    0.000678    0.029361    0.071170
    27    0.000678   -0.029361    0.071170
----------------------------------------
   Tot   -0.042027   -0.000000   -0.017181
----------------------------------------
   Max    2.708172
   Res    0.526741    sqrt( Sum f_i^2 / 3N )
----------------------------------------
   Max    2.708172    constrained

Stress-tensor-Voigt (kbar):       -8.86        0.28       -0.47       -0.00       -0.00        0.00
(Free)E + p*V (eV/cell)    -1767.2538
Target enthalpy (eV/cell)    -1777.8974

mulliken: Atomic and Orbital Populations:

Species: Si                  
Atom  Qatom  Qorb
               3s      3s      3py     3pz     3px     3py     3pz     3px     
               3Pdxy   3Pdyz   3Pdz2   3Pdxz   3Pdx2-y2
   1  4.019   0.553   0.555   0.307   0.328   0.230   0.483   0.435   0.641
              0.036   0.150   0.063   0.100   0.138
   2  4.026   0.561   0.551   0.317   0.329   0.249   0.477   0.430   0.624
              0.037   0.150   0.064   0.098   0.138
   3  3.904   0.496   0.584   0.265   0.283   0.175   0.502   0.447   0.710
              0.033   0.128   0.055   0.097   0.128
   4  3.904   0.496   0.584   0.265   0.283   0.175   0.502   0.447   0.710
              0.033   0.128   0.055   0.097   0.128
   5  3.807   0.419   0.608   0.272   0.374   0.316   0.475   0.378   0.568
              0.017   0.134   0.043   0.084   0.119
   6  3.856   0.470   0.601   0.238   0.277   0.145   0.513   0.448   0.740
              0.033   0.117   0.052   0.100   0.124
   7  3.856   0.470   0.601   0.238   0.277   0.145   0.513   0.448   0.740
              0.033   0.117   0.052   0.100   0.124
   8  3.807   0.419   0.608   0.272   0.374   0.316   0.475   0.378   0.568
              0.017   0.134   0.043   0.084   0.119
   9  3.809   0.423   0.601   0.198   0.445   0.371   0.542   0.318   0.503
              0.019   0.148   0.045   0.085   0.111
  10  3.809   0.423   0.601   0.198   0.445   0.371   0.542   0.318   0.503
              0.019   0.148   0.045   0.085   0.111
  11  3.781   0.303   0.615   0.591   0.533   0.409   0.273   0.189   0.583
              0.028   0.069   0.022   0.084   0.081
  12  3.729   0.390   0.608   0.176   0.597   0.471   0.525   0.198   0.414
              0.002   0.143   0.036   0.068   0.103
  13  3.729   0.390   0.608   0.176   0.597   0.471   0.525   0.198   0.414
              0.002   0.143   0.036   0.068   0.103
  14  3.802   0.416   0.610   0.271   0.371   0.321   0.474   0.379   0.563
              0.017   0.134   0.043   0.083   0.119
  15  3.802   0.416   0.610   0.271   0.371   0.321   0.474   0.379   0.563
              0.017   0.134   0.043   0.083   0.119

Species: H                   
Atom  Qatom  Qorb
               1s      1s      1Ppy    1Ppz    1Ppx    
  16  1.158   0.516   0.553   0.050   0.024   0.015
  17  1.145   0.444   0.619   0.020   0.024   0.038
  18  1.158   0.516   0.553   0.050   0.024   0.015
  19  1.220   0.910   0.248   0.028   0.020   0.014
  20  1.219   0.897   0.258   0.027   0.023   0.014
  21  1.220   0.910   0.248   0.028   0.020   0.014
  22  1.219   0.897   0.258   0.027   0.023   0.014
  23  1.144   0.441   0.620   0.020   0.024   0.038
  24  1.220   0.909   0.249   0.028   0.020   0.014
  25  1.220   0.909   0.249   0.028   0.020   0.014
  26  1.219   0.875   0.286   0.024   0.022   0.013
  27  1.219   0.875   0.286   0.024   0.022   0.013

mulliken: Qtot =       72.000

coxmol: Writing XMOL coordinates into file sinw.xyz                                                            
Computing bands...

siesta: Band k vectors (Bohr**-1):
  ik           k
   1    0.000000    0.000000    0.000000
   2    0.021649    0.000000    0.000000
   3    0.043298    0.000000    0.000000
   4    0.064947    0.000000    0.000000
   5    0.086596    0.000000    0.000000
   6    0.108245    0.000000    0.000000
   7    0.129893    0.000000    0.000000
   8    0.151542    0.000000    0.000000
   9    0.173191    0.000000    0.000000
  10    0.194840    0.000000    0.000000
  11    0.216489    0.000000    0.000000
  12    0.238138    0.000000    0.000000
  13    0.259787    0.000000    0.000000
  14    0.281436    0.000000    0.000000
  15    0.303085    0.000000    0.000000
  16    0.324734    0.000000    0.000000
  17    0.346383    0.000000    0.000000
  18    0.368031    0.000000    0.000000
  19    0.389680    0.000000    0.000000
  20    0.411329    0.000000    0.000000
  21    0.432978    0.000000    0.000000

siesta: Band energies (eV):
  ik is    eps
   1  1 -16.21 -15.51 -15.44 -14.72 -14.67 -14.43 -13.98 -13.31 -11.99 -11.60
        -11.39 -11.23 -10.66 -10.18  -9.90  -9.34  -8.75  -8.71  -8.49  -8.11
         -7.93  -7.70  -7.28  -7.18  -6.86  -6.57  -6.56  -6.49  -6.21  -6.09
         -6.05  -5.98  -5.97  -5.76  -5.41  -5.06  -3.67  -3.17  -2.96  -2.75
         -2.67  -2.54  -2.43  -2.11  -1.98  -1.74  -1.73  -1.26  -1.22  -1.19
         -0.73  -0.69  -0.64  -0.47  -0.38  -0.37  -0.31  -0.07   0.24   0.25
          0.34   1.02   1.20   1.21   1.30   1.75   1.82   1.92   2.10   2.37
          2.41   2.42   2.52   2.82   3.01   3.14   3.27   3.37   3.48   3.62
          3.95   4.09   4.41   4.43   4.47   4.71   4.72   4.81   4.95   4.97
          5.05   5.54   5.60   5.81   6.15   6.20   6.31   6.41   6.48   6.62
          6.98   7.06   7.10   7.17   7.29   7.45   7.89   8.21   8.34   8.35
          8.53   8.75   8.92   8.96   8.97   9.04   9.50   9.56   9.70   9.85
         10.00  10.09  10.23  10.28  10.34  10.82  10.89  11.09  11.24  11.28
         11.41  11.46  11.99  12.16  12.22  12.51  12.63  12.90  13.02  13.16
         13.45  13.54  13.61  14.05  14.17  14.40  14.75  14.83  14.96  15.07
         15.32  15.71  15.79  15.79  15.81  16.51  16.63  16.75  16.92  17.14
         17.28  17.57  17.71  18.01  18.45  18.59  18.73  18.77  18.90  18.91
         19.46  19.66  19.80  20.22  20.23  20.26  20.44  20.75  20.98  20.99
         21.02  21.21  21.55  21.64  22.04  22.11  22.31  22.36  22.82  22.92
         23.08  23.11  23.35  23.66  23.71  23.85  24.39  25.41  25.43  25.61
         26.05  26.08  26.10  26.37  27.39  27.96  28.69  28.90  29.62  29.68
         30.02  30.15  30.34  31.11  31.25  31.44  31.59  32.46  32.53  32.95
         33.32  33.78  33.93  34.62  35.48  35.58  35.75  35.92  36.20  36.60
         36.84  37.57  37.77  37.88  37.93  38.61  40.12  40.66  41.01  42.48
         42.74  43.49  44.13  44.61  45.70  46.69  50.75  51.54  52.34  53.76
         57.96  58.69  63.58  68.69  69.85
   2  1 -16.20 -15.50 -15.44 -14.72 -14.66 -14.42 -13.98 -13.31 -11.98 -11.60
        -11.39 -11.23 -10.66 -10.18  -9.90  -9.34  -8.75  -8.71  -8.50  -8.11
         -7.93  -7.70  -7.31  -7.19  -6.89  -6.67  -6.51  -6.50  -6.21  -6.11
         -6.08  -6.01  -6.01  -5.76  -5.45  -5.11  -3.62  -3.13  -2.90  -2.71
         -2.62  -2.52  -2.39  -2.06  -1.98  -1.73  -1.72  -1.25  -1.22  -1.22
         -0.79  -0.66  -0.63  -0.56  -0.41  -0.36  -0.30   0.02   0.18   0.30
          0.38   1.01   1.14   1.17   1.30   1.70   1.85   1.96   2.11   2.29
          2.36   2.45   2.58   2.85   2.96   3.05   3.16   3.42   3.52   3.77
          3.97   4.03   4.41   4.42   4.50   4.63   4.71   4.82   4.93   4.97
          5.19   5.46   5.54   5.83   6.14   6.30   6.32   6.43   6.44   6.61
          6.76   6.97   7.22   7.32   7.38   7.47   7.89   8.20   8.34   8.38
          8.59   8.75   8.93   8.97   8.98   9.08   9.37   9.70   9.71   9.85
          9.95  10.11  10.25  10.30  10.32  10.84  10.89  11.06  11.26  11.27
         11.43  11.46  11.97  12.15  12.26  12.51  12.58  12.89  13.05  13.19
         13.43  13.51  13.66  14.10  14.18  14.38  14.59  14.91  14.98  15.19
         15.35  15.55  15.72  15.94  15.99  16.54  16.62  16.70  16.86  17.10
         17.32  17.52  17.78  17.99  18.43  18.48  18.74  18.86  18.87  18.91
         19.43  19.63  19.79  20.19  20.22  20.23  20.45  20.72  20.81  20.97
         21.05  21.26  21.44  21.82  21.85  22.21  22.32  22.39  22.75  23.00
         23.07  23.14  23.33  23.61  23.67  23.95  24.38  25.38  25.44  25.60
         25.92  26.01  26.25  26.51  27.40  27.92  28.68  28.70  29.54  29.64
         29.97  30.15  30.42  31.13  31.45  31.49  31.64  32.08  32.53  33.29
         33.50  33.97  34.10  34.68  35.13  35.89  35.90  36.06  36.08  36.87
         36.96  37.66  37.76  37.89  38.14  38.81  40.17  40.70  41.07  42.40
         42.66  43.56  44.22  44.52  45.58  46.60  50.62  50.73  53.01  53.80
         56.82  59.35  63.26  68.72  69.81
   3  1 -16.19 -15.49 -15.42 -14.70 -14.65 -14.41 -13.96 -13.29 -11.98 -11.60
        -11.39 -11.23 -10.66 -10.18  -9.90  -9.34  -8.75  -8.71  -8.51  -8.10
         -7.92  -7.69  -7.41  -7.20  -6.96  -6.82  -6.56  -6.47  -6.22  -6.20
         -6.15  -6.14  -6.04  -5.75  -5.57  -5.24  -3.47  -3.03  -2.75  -2.58
         -2.47  -2.46  -2.28  -1.98  -1.92  -1.72  -1.64  -1.28  -1.23  -1.22
         -0.88  -0.74  -0.68  -0.60  -0.46  -0.32  -0.28   0.05   0.18   0.40
          0.47   0.95   1.00   1.04   1.31   1.60   1.88   2.01   2.07   2.13
          2.37   2.46   2.57   2.88   2.90   2.95   3.15   3.30   3.62   3.78
          4.09   4.11   4.29   4.40   4.50   4.53   4.66   4.88   4.93   5.03
          5.22   5.42   5.54   5.88   6.17   6.25   6.30   6.37   6.48   6.60
          6.67   6.94   7.36   7.36   7.59   7.60   7.90   8.19   8.35   8.50
          8.70   8.78   8.94   9.00   9.01   9.16   9.28   9.70   9.80   9.88
          9.89  10.15  10.27  10.30  10.36  10.88  10.89  10.99  11.24  11.29
         11.46  11.51  11.91  12.11  12.32  12.49  12.53  12.88  13.12  13.26
         13.36  13.44  13.78  14.16  14.20  14.40  14.41  14.88  15.14  15.24
         15.44  15.54  15.64  16.12  16.23  16.49  16.58  16.61  16.82  17.02
         17.36  17.42  17.89  17.93  18.29  18.46  18.75  18.76  18.93  18.96
         19.34  19.55  19.74  20.08  20.10  20.18  20.45  20.61  20.66  20.87
         20.99  21.37  21.39  21.66  22.02  22.23  22.26  22.56  22.66  23.04
         23.10  23.21  23.27  23.59  23.60  24.12  24.36  25.32  25.48  25.56
         25.81  25.91  26.41  26.77  27.43  27.78  28.40  28.70  29.28  29.33
         30.05  30.34  30.36  31.27  31.46  31.56  31.85  32.12  32.68  33.64
         33.86  34.31  34.32  34.94  34.97  35.78  35.94  36.28  36.48  37.31
         37.41  37.88  37.92  38.09  38.30  39.52  40.54  40.90  41.29  42.15
         42.56  43.70  44.24  44.48  45.33  46.34  49.49  50.67  53.06  53.89
         55.59  59.66  62.32  68.82  69.72
   4  1 -16.17 -15.46 -15.40 -14.67 -14.62 -14.39 -13.94 -13.27 -11.98 -11.61
        -11.38 -11.22 -10.66 -10.18  -9.89  -9.32  -8.77  -8.70  -8.53  -8.09
         -7.91  -7.68  -7.56  -7.22  -7.06  -7.01  -6.68  -6.47  -6.36  -6.32
         -6.23  -6.21  -6.07  -5.77  -5.74  -5.43  -3.23  -2.91  -2.51  -2.41
         -2.34  -2.27  -2.12  -1.99  -1.81  -1.60  -1.52  -1.37  -1.25  -1.16
         -0.95  -0.92  -0.79  -0.56  -0.48  -0.26  -0.25  -0.11   0.34   0.51
          0.61   0.79   0.84   0.92   1.34   1.46   1.85   1.95   1.96   2.05
          2.42   2.46   2.51   2.78   2.90   2.95   3.17   3.29   3.60   3.68
          4.04   4.19   4.33   4.37   4.51   4.52   4.58   4.85   5.00   5.11
          5.13   5.50   5.65   5.90   6.11   6.18   6.22   6.33   6.45   6.54
          6.78   7.09   7.36   7.51   7.69   7.77   7.99   8.20   8.38   8.69
          8.80   8.82   8.97   9.04   9.07   9.27   9.29   9.64   9.80   9.86
          9.95  10.21  10.30  10.38  10.43  10.89  10.90  10.95  11.22  11.33
         11.51  11.63  11.87  12.02  12.35  12.48  12.63  12.88  13.19  13.28
         13.28  13.43  13.93  14.13  14.15  14.33  14.55  14.86  15.21  15.24
         15.49  15.53  15.77  16.16  16.35  16.46  16.55  16.55  16.91  16.92
         17.27  17.34  17.85  17.95  18.16  18.44  18.67  18.77  18.88  19.05
         19.20  19.47  19.64  19.87  19.90  20.04  20.39  20.39  20.65  20.79
         20.88  21.33  21.50  21.59  22.11  22.21  22.29  22.56  22.69  23.00
         23.11  23.26  23.30  23.47  23.66  24.25  24.38  25.22  25.48  25.51
         25.73  25.82  26.52  27.00  27.47  27.54  28.24  28.73  28.90  29.01
         30.13  30.39  30.54  31.17  31.40  31.63  32.07  32.72  33.07  33.70
         34.06  34.28  34.81  35.15  35.50  35.55  35.86  36.71  36.78  37.57
         37.71  38.09  38.36  38.67  38.68  39.90  41.26  41.34  41.86  42.47
         42.63  43.74  43.86  44.93  45.15  45.99  48.61  50.54  51.52  54.04
         55.48  59.35  60.85  68.98  69.62
   5  1 -16.13 -15.42 -15.36 -14.64 -14.58 -14.36 -13.90 -13.25 -11.98 -11.62
        -11.38 -11.21 -10.66 -10.19  -9.89  -9.31  -8.79  -8.70  -8.56  -8.08
         -7.90  -7.74  -7.67  -7.26  -7.22  -7.17  -6.85  -6.57  -6.54  -6.49
         -6.28  -6.22  -6.10  -5.94  -5.84  -5.62  -2.94  -2.80  -2.29  -2.20
         -2.16  -2.06  -1.97  -1.94  -1.80  -1.49  -1.34  -1.33  -1.25  -1.09
         -1.07  -1.02  -0.88  -0.51  -0.48  -0.32  -0.22  -0.14   0.48   0.58
          0.59   0.61   0.81   0.86   1.27   1.36   1.67   1.75   1.90   2.09
          2.34   2.52   2.57   2.71   2.87   3.00   3.04   3.44   3.46   3.67
          3.86   3.98   4.31   4.40   4.47   4.61   4.77   4.82   4.91   5.19
          5.26   5.45   5.81   5.87   6.09   6.11   6.18   6.27   6.48   6.56
          6.97   7.05   7.57   7.58   7.74   7.90   8.15   8.27   8.47   8.83
          8.84   8.93   9.06   9.08   9.16   9.38   9.41   9.61   9.75   9.89
         10.03  10.24  10.39  10.49  10.50  10.83  10.91  11.02  11.23  11.37
         11.61  11.67  11.93  11.93  12.38  12.49  12.81  12.91  13.18  13.19
         13.30  13.54  14.01  14.10  14.10  14.38  14.72  14.81  15.21  15.24
         15.43  15.58  15.98  15.98  16.40  16.50  16.53  16.69  16.83  17.00
         17.11  17.23  17.79  17.91  18.01  18.38  18.64  18.78  18.78  18.98
         19.19  19.39  19.50  19.59  19.62  19.86  20.18  20.30  20.59  20.69
         20.82  21.29  21.52  21.70  22.13  22.19  22.36  22.47  22.76  22.95
         23.00  23.31  23.32  23.43  23.77  24.19  24.55  25.12  25.35  25.52
         25.66  25.69  26.58  27.13  27.31  27.52  28.18  28.48  28.59  29.08
         29.86  30.33  30.99  31.20  31.46  31.82  32.32  32.91  33.60  33.65
         34.18  34.40  34.99  35.03  35.45  35.68  36.57  36.85  37.35  37.75
         37.91  38.02  38.69  39.22  39.44  40.41  41.55  41.59  41.68  43.09
         43.16  43.86  44.52  45.23  45.50  45.96  48.07  49.79  50.39  54.25
         55.63  58.66  59.02  69.20  69.54
   6  1 -16.09 -15.38 -15.31 -14.59 -14.54 -14.32 -13.85 -13.22 -11.98 -11.63
        -11.37 -11.20 -10.67 -10.19  -9.89  -9.29  -8.81  -8.70  -8.62  -8.07
         -7.91  -7.89  -7.65  -7.44  -7.37  -7.22  -7.05  -6.77  -6.77  -6.56
         -6.32  -6.25  -6.14  -6.09  -6.01  -5.73  -2.71  -2.61  -2.29  -2.02
         -2.01  -1.85  -1.82  -1.75  -1.72  -1.61  -1.26  -1.20  -1.14  -1.10
         -1.06  -0.94  -0.80  -0.59  -0.48  -0.33  -0.17  -0.03   0.38   0.44
          0.52   0.61   0.86   1.01   1.05   1.33   1.51   1.52   1.87   2.07
          2.26   2.57   2.59   2.72   2.81   2.98   3.04   3.34   3.49   3.62
          3.80   3.81   4.13   4.40   4.45   4.61   4.85   4.89   5.04   5.22
          5.27   5.58   5.73   5.84   6.07   6.20   6.22   6.27   6.46   6.70
          6.92   7.20   7.54   7.73   7.82   8.07   8.27   8.37   8.60   8.84
          8.87   9.11   9.16   9.18   9.27   9.47   9.58   9.68   9.72   9.93
         10.18  10.27  10.48  10.59  10.60  10.80  10.95  11.08  11.27  11.40
         11.64  11.75  11.90  12.08  12.43  12.54  12.94  13.02  13.09  13.14
         13.38  13.67  13.91  14.09  14.28  14.45  14.70  14.91  15.07  15.29
         15.35  15.67  15.92  16.08  16.34  16.52  16.56  16.64  16.89  16.97
         17.04  17.06  17.75  17.82  17.86  18.25  18.59  18.66  18.71  18.72
         19.24  19.26  19.34  19.36  19.43  19.67  19.99  20.23  20.46  20.50
         20.88  21.26  21.56  21.82  22.14  22.16  22.39  22.43  22.74  22.88
         22.90  23.18  23.35  23.51  23.91  24.07  24.70  25.02  25.21  25.50
         25.53  25.59  26.61  27.14  27.17  27.56  28.16  28.17  28.40  29.26
         29.53  30.24  31.03  31.55  31.58  31.89  32.55  33.12  33.44  33.74
         34.14  34.57  34.77  35.30  35.50  35.96  36.81  36.88  37.71  37.83
         38.04  38.65  38.84  39.55  39.93  41.37  41.38  41.69  41.71  42.79
         43.39  43.65  44.97  45.43  45.97  46.95  48.54  49.23  50.31  54.51
         55.61  57.11  58.04  69.47  69.48
   7  1 -16.03 -15.32 -15.26 -14.53 -14.48 -14.27 -13.80 -13.18 -11.97 -11.66
        -11.36 -11.18 -10.68 -10.20  -9.89  -9.28  -8.85  -8.71  -8.70  -8.07
         -8.06  -7.87  -7.67  -7.63  -7.50  -7.29  -7.24  -7.01  -6.97  -6.70
         -6.38  -6.32  -6.22  -6.19  -6.16  -5.79  -2.63  -2.37  -2.27  -2.10
         -1.96  -1.76  -1.65  -1.59  -1.52  -1.47  -1.34  -1.25  -1.15  -0.97
         -0.82  -0.75  -0.68  -0.57  -0.45  -0.30  -0.11   0.09   0.28   0.30
          0.38   0.67   0.86   0.89   1.17   1.25   1.28   1.53   1.83   1.92
          2.28   2.46   2.64   2.76   2.80   2.92   3.04   3.25   3.30   3.62
          3.73   3.91   3.95   4.30   4.43   4.55   4.83   5.02   5.22   5.23
          5.38   5.56   5.63   5.90   6.02   6.27   6.31   6.39   6.49   6.78
          6.85   7.34   7.56   7.70   8.04   8.19   8.38   8.45   8.72   8.87
          8.96   9.18   9.28   9.30   9.41   9.59   9.75   9.78   9.84   9.96
         10.32  10.40  10.52  10.68  10.71  10.86  11.01  11.13  11.37  11.46
         11.63  11.88  11.98  12.20  12.53  12.64  12.94  13.05  13.14  13.25
         13.44  13.78  13.87  14.08  14.44  14.50  14.66  14.91  15.06  15.13
         15.48  15.75  15.92  16.11  16.24  16.37  16.52  16.64  16.75  16.92
         16.93  17.20  17.68  17.71  17.77  18.06  18.35  18.41  18.55  18.57
         18.97  19.14  19.20  19.33  19.39  19.53  19.85  20.20  20.23  20.38
         20.88  21.26  21.57  21.91  22.08  22.14  22.35  22.49  22.63  22.80
         22.88  23.06  23.35  23.58  23.91  24.04  24.78  24.93  25.14  25.33
         25.45  25.53  26.59  26.95  27.19  27.54  27.95  28.10  28.31  29.22
         29.37  30.13  31.07  31.66  31.67  31.77  32.69  33.07  33.17  33.69
         34.10  34.58  34.60  35.47  35.54  36.73  36.84  37.12  37.57  37.89
         38.17  38.88  39.17  39.38  40.19  41.27  41.28  41.70  41.97  42.87
         42.91  43.92  45.19  45.39  45.74  48.44  49.00  50.27  50.43  53.98
         55.72  56.17  57.83  69.43  69.73
   8  1 -15.96 -15.25 -15.20 -14.47 -14.41 -14.21 -13.73 -13.14 -11.97 -11.69
        -11.36 -11.17 -10.70 -10.21  -9.90  -9.27  -8.89  -8.83  -8.71  -8.20
         -8.06  -7.90  -7.84  -7.61  -7.61  -7.51  -7.29  -7.22  -7.14  -6.88
         -6.55  -6.40  -6.33  -6.21  -6.20  -5.85  -2.57  -2.46  -2.22  -2.05
         -1.93  -1.82  -1.65  -1.48  -1.42  -1.29  -1.25  -1.14  -1.03  -1.01
         -0.71  -0.63  -0.44  -0.40  -0.31  -0.15  -0.04   0.13   0.20   0.29
          0.33   0.64   0.81   0.84   1.03   1.08   1.49   1.60   1.78   1.79
          2.29   2.30   2.70   2.76   2.77   2.83   2.97   3.19   3.26   3.58
          3.75   3.80   4.03   4.21   4.25   4.66   4.83   5.07   5.32   5.33
          5.38   5.53   5.58   5.88   6.12   6.30   6.37   6.47   6.60   6.78
          6.94   7.28   7.69   7.78   8.19   8.20   8.46   8.51   8.82   8.92
          9.13   9.23   9.35   9.46   9.52   9.77   9.85   9.92   9.96  10.07
         10.41  10.54  10.63  10.76  10.80  11.05  11.06  11.20  11.49  11.55
         11.65  11.98  12.18  12.26  12.68  12.73  12.97  13.09  13.18  13.45
         13.53  13.85  13.89  14.05  14.51  14.56  14.69  14.81  15.01  15.18
         15.51  15.84  15.86  16.07  16.10  16.18  16.36  16.50  16.66  16.82
         16.97  17.36  17.52  17.58  17.82  17.85  17.95  18.14  18.38  18.41
         18.65  19.07  19.11  19.29  19.29  19.52  19.77  20.02  20.21  20.23
         20.80  21.31  21.51  21.98  22.00  22.15  22.24  22.44  22.50  22.78
         22.80  22.98  23.30  23.65  23.77  24.10  24.82  24.83  25.14  25.18
         25.38  25.46  26.51  26.70  27.25  27.38  27.90  27.91  28.11  29.15
         29.36  29.99  31.04  31.30  31.63  31.69  32.47  32.85  33.06  33.44
         33.88  34.54  34.67  35.52  35.72  36.67  36.97  37.27  37.96  38.03
         38.35  39.03  39.11  39.24  39.75  40.58  40.65  41.68  42.13  42.92
         43.03  43.55  45.45  45.63  46.63  49.06  49.35  50.80  50.86  52.44
         56.44  56.49  58.17  69.39  69.94
   9  1 -15.89 -15.17 -15.12 -14.39 -14.33 -14.15 -13.65 -13.11 -11.97 -11.73
        -11.37 -11.17 -10.73 -10.24  -9.93  -9.26  -8.99  -8.92  -8.74  -8.31
         -8.08  -8.06  -7.84  -7.73  -7.71  -7.59  -7.44  -7.31  -7.27  -7.08
         -6.76  -6.46  -6.38  -6.27  -6.22  -5.92  -2.61  -2.47  -2.36  -2.13
         -1.86  -1.73  -1.73  -1.54  -1.38  -1.34  -1.14  -1.04  -0.95  -0.69
         -0.62  -0.56  -0.46  -0.20  -0.13   0.04   0.05   0.21   0.22   0.35
          0.43   0.66   0.69   0.82   0.96   1.02   1.54   1.69   1.74   1.86
          2.16   2.29   2.57   2.62   2.81   2.81   2.97   3.18   3.33   3.57
          3.67   3.75   3.89   4.20   4.32   4.74   4.85   5.10   5.19   5.39
          5.42   5.58   5.64   5.81   6.24   6.33   6.40   6.44   6.75   6.95
          6.98   7.18   7.70   8.02   8.18   8.23   8.48   8.64   8.90   8.98
          9.30   9.35   9.43   9.58   9.59   9.94   9.95  10.00  10.05  10.28
         10.52  10.55  10.82  10.83  10.92  11.09  11.30  11.31  11.55  11.66
         11.79  12.11  12.26  12.40  12.80  12.89  13.11  13.14  13.25  13.54
         13.72  13.85  13.95  14.02  14.52  14.65  14.74  14.78  14.95  15.22
         15.43  15.72  15.72  15.98  15.99  16.10  16.16  16.31  16.72  16.75
         17.02  17.29  17.47  17.50  17.56  17.62  17.94  17.95  18.19  18.26
         18.33  18.99  19.08  19.18  19.21  19.51  19.77  19.84  20.04  20.23
         20.67  21.36  21.38  21.92  22.05  22.08  22.17  22.31  22.35  22.68
         22.72  22.99  23.24  23.66  23.72  24.14  24.67  24.76  24.97  25.29
         25.38  25.40  26.36  26.39  27.21  27.32  27.67  27.74  27.91  29.23
         29.24  29.83  30.80  30.86  31.35  31.61  31.91  32.86  32.90  33.14
         33.57  34.45  34.68  35.40  35.90  36.58  36.94  37.01  37.89  38.19
         38.50  38.60  38.94  39.53  39.83  40.02  40.06  41.66  41.98  42.54
         42.70  43.75  45.53  46.08  47.21  49.07  49.91  50.05  51.09  52.22
         56.65  57.16  59.13  69.36  70.07
  10  1 -15.80 -15.09 -15.04 -14.31 -14.25 -14.08 -13.57 -13.08 -11.97 -11.79
        -11.38 -11.18 -10.78 -10.27  -9.97  -9.28  -9.14  -8.94  -8.79  -8.41
         -8.26  -8.07  -7.94  -7.84  -7.79  -7.61  -7.57  -7.37  -7.36  -7.26
         -6.95  -6.52  -6.42  -6.33  -6.23  -6.00  -2.71  -2.48  -2.42  -2.22
         -1.86  -1.85  -1.68  -1.59  -1.49  -1.34  -1.14  -0.98  -0.73  -0.68
         -0.61  -0.37  -0.26  -0.18  -0.02  -0.00   0.08   0.37   0.49   0.59
          0.61   0.63   0.65   0.91   0.93   1.15   1.46   1.65   1.81   2.06
          2.09   2.28   2.37   2.50   2.82   2.91   2.99   3.17   3.44   3.55
          3.61   3.70   3.72   4.28   4.47   4.78   4.89   5.01   5.12   5.39
          5.48   5.60   5.68   5.81   6.28   6.31   6.40   6.57   6.89   6.96
          7.10   7.17   7.73   8.10   8.17   8.31   8.56   8.73   8.96   9.04
          9.42   9.50   9.50   9.61   9.62  10.00  10.08  10.12  10.16  10.43
         10.57  10.66  10.93  10.97  11.00  11.16  11.44  11.54  11.59  11.79
         12.02  12.20  12.26  12.64  12.92  13.12  13.13  13.28  13.36  13.61
         13.88  13.89  13.97  14.05  14.52  14.65  14.74  14.87  14.88  15.02
         15.29  15.51  15.63  15.63  15.92  16.04  16.12  16.21  16.70  16.82
         17.06  17.09  17.19  17.38  17.47  17.63  17.74  18.02  18.06  18.09
         18.17  18.92  19.06  19.10  19.10  19.43  19.71  19.84  19.86  20.21
         20.52  21.19  21.36  21.83  21.90  22.09  22.19  22.19  22.22  22.59
         22.61  23.02  23.17  23.52  23.77  24.13  24.44  24.59  24.82  25.21
         25.35  25.63  26.04  26.15  27.05  27.19  27.39  27.52  27.87  29.03
         29.13  29.68  30.34  30.53  31.12  31.32  31.42  32.65  32.88  32.93
         33.24  34.18  34.50  35.12  35.93  36.43  36.79  36.86  37.31  38.30
         38.41  38.57  39.07  39.07  39.47  39.87  40.29  41.53  41.57  42.08
         42.42  44.23  45.44  46.50  47.19  48.54  48.87  50.03  51.85  52.78
         56.30  57.74  60.10  69.37  70.14
  11  1 -15.70 -14.99 -14.95 -14.21 -14.15 -14.01 -13.47 -13.06 -11.96 -11.87
        -11.42 -11.19 -10.84 -10.33 -10.03  -9.34  -9.28  -8.94  -8.85  -8.51
         -8.41  -8.14  -8.08  -7.89  -7.85  -7.72  -7.54  -7.45  -7.44  -7.36
         -7.09  -6.59  -6.47  -6.40  -6.25  -6.09  -2.81  -2.60  -2.44  -2.22
         -1.96  -1.89  -1.77  -1.64  -1.58  -1.30  -1.15  -1.00  -0.77  -0.70
         -0.60  -0.34  -0.20   0.02   0.08   0.12   0.14   0.27   0.51   0.56
          0.76   0.92   1.04   1.07   1.12   1.36   1.42   1.54   1.95   2.01
          2.08   2.25   2.32   2.57   2.83   2.93   3.05   3.18   3.42   3.55
          3.59   3.72   3.74   4.38   4.62   4.76   4.84   4.97   5.16   5.37
          5.54   5.59   5.62   5.88   6.28   6.32   6.47   6.71   6.93   7.00
          7.04   7.40   7.74   8.08   8.09   8.50   8.66   8.76   9.03   9.13
          9.39   9.54   9.55   9.63   9.80  10.03  10.16  10.19  10.32  10.52
         10.61  10.79  11.03  11.06  11.10  11.24  11.53  11.54  11.87  11.90
         12.14  12.25  12.37  12.88  12.98  13.11  13.38  13.40  13.52  13.71
         13.92  13.94  13.99  14.18  14.45  14.62  14.66  14.70  14.81  14.96
         15.08  15.17  15.59  15.67  15.86  15.93  16.01  16.21  16.63  16.84
         16.91  17.06  17.20  17.25  17.36  17.63  17.74  17.83  17.91  18.15
         18.23  18.86  18.97  19.04  19.07  19.31  19.63  19.64  19.96  20.13
         20.41  21.01  21.29  21.68  21.81  22.01  22.07  22.12  22.28  22.48
         22.56  23.05  23.07  23.32  23.73  24.02  24.22  24.37  24.73  25.13
         25.29  25.64  25.82  25.91  26.83  26.88  27.10  27.50  27.77  28.74
         28.78  29.56  29.71  30.40  30.78  31.06  31.14  32.31  32.84  32.85
         32.99  33.77  34.08  34.73  35.78  36.22  36.46  36.82  37.14  38.23
         38.40  38.56  38.73  38.98  39.31  39.72  40.13  40.93  41.16  42.09
         42.46  44.61  45.35  46.59  47.09  47.40  48.30  50.04  52.67  53.03
         55.58  58.21  60.65  69.44  70.15
  12  1 -15.59 -14.88 -14.86 -14.11 -14.05 -13.92 -13.37 -13.07 -11.97 -11.93
        -11.47 -11.22 -10.91 -10.40 -10.11  -9.47  -9.35  -8.92  -8.92  -8.61
         -8.54  -8.31  -8.08  -8.01  -7.89  -7.77  -7.55  -7.52  -7.51  -7.36
         -7.20  -6.65  -6.53  -6.48  -6.27  -6.17  -2.90  -2.70  -2.50  -2.16
         -2.07  -1.96  -1.88  -1.71  -1.67  -1.26  -1.15  -1.08  -0.83  -0.75
         -0.71  -0.32  -0.14   0.01   0.05   0.13   0.21   0.48   0.58   0.67
          0.75   1.14   1.22   1.36   1.37   1.51   1.56   1.70   1.88   2.05
          2.11   2.24   2.33   2.77   2.83   2.86   3.22   3.22   3.34   3.55
          3.66   3.79   3.88   4.43   4.68   4.74   4.81   5.05   5.20   5.33
          5.47   5.63   5.63   5.96   6.29   6.36   6.54   6.84   6.88   6.95
          7.11   7.61   7.72   8.05   8.07   8.64   8.76   8.76   9.10   9.24
          9.24   9.57   9.64   9.66   9.98  10.03  10.16  10.19  10.43  10.61
         10.64  10.85  11.07  11.12  11.20  11.33  11.51  11.62  11.98  12.05
         12.22  12.40  12.46  12.86  13.09  13.18  13.43  13.55  13.65  13.82
         13.91  14.01  14.03  14.19  14.32  14.46  14.47  14.55  14.78  14.82
         15.07  15.10  15.61  15.64  15.90  15.91  16.09  16.22  16.49  16.62
         16.84  17.13  17.17  17.24  17.41  17.68  17.70  17.81  17.88  18.25
         18.31  18.79  18.83  18.98  19.04  19.25  19.45  19.63  19.98  20.06
         20.36  20.85  21.16  21.52  21.77  21.82  22.02  22.08  22.31  22.34
         22.61  22.94  23.04  23.06  23.50  23.86  24.09  24.21  24.67  25.04
         25.18  25.27  25.66  25.80  26.58  26.69  26.77  27.39  27.60  28.29
         28.56  29.05  29.42  30.26  30.33  30.82  31.04  32.08  32.63  32.77
         32.96  33.28  33.49  34.33  35.57  35.91  36.07  36.82  37.14  38.03
         38.20  38.58  38.62  38.72  39.40  39.52  39.90  40.33  40.89  41.69
         42.92  44.70  45.28  46.45  46.55  47.20  47.60  50.11  52.58  53.26
         54.92  58.43  60.74  69.56  70.15
  13  1 -15.48 -14.76 -14.75 -14.00 -13.95 -13.84 -13.27 -13.10 -12.08 -11.89
        -11.53 -11.27 -10.99 -10.49 -10.20  -9.60  -9.41  -8.98  -8.90  -8.70
         -8.64  -8.45  -8.13  -8.08  -7.94  -7.79  -7.61  -7.58  -7.50  -7.34
         -7.27  -6.72  -6.60  -6.57  -6.30  -6.26  -2.98  -2.79  -2.56  -2.16
         -2.15  -2.02  -1.96  -1.78  -1.75  -1.29  -1.15  -1.10  -1.03  -0.73
         -0.72  -0.41  -0.13  -0.09   0.05   0.07   0.31   0.42   0.59   0.94
          1.02   1.06   1.22   1.35   1.56   1.78   1.94   1.98   2.03   2.12
          2.23   2.26   2.39   2.67   2.83   3.02   3.20   3.47   3.48   3.58
          3.78   3.87   4.04   4.36   4.66   4.77   4.95   5.13   5.24   5.32
          5.34   5.69   5.69   6.02   6.32   6.42   6.59   6.87   6.87   6.95
          7.18   7.65   7.80   8.04   8.06   8.70   8.75   8.84   9.11   9.18
          9.37   9.56   9.65   9.78   9.98  10.09  10.15  10.17  10.47  10.67
         10.71  10.85  11.05  11.07  11.27  11.36  11.46  11.74  12.04  12.05
         12.24  12.41  12.49  12.82  13.19  13.26  13.34  13.46  13.63  13.81
         13.92  13.92  13.98  14.18  14.24  14.44  14.55  14.55  14.77  14.83
         15.13  15.13  15.54  15.75  16.00  16.10  16.22  16.29  16.31  16.50
         16.79  16.96  17.21  17.41  17.55  17.59  17.80  17.81  17.99  18.39
         18.46  18.64  18.77  18.86  19.04  19.25  19.32  19.68  19.83  20.14
         20.32  20.72  21.00  21.37  21.62  21.74  21.95  21.99  22.19  22.26
         22.68  22.76  22.79  22.91  23.33  23.72  23.82  24.33  24.51  24.90
         24.95  25.04  25.43  25.62  26.36  26.48  26.50  27.11  27.40  28.00
         28.42  28.47  29.23  29.98  30.06  30.53  30.79  32.02  32.31  32.51
         32.83  33.04  33.06  33.96  35.32  35.48  35.70  36.83  37.12  37.82
         37.99  38.31  38.54  38.81  39.37  39.58  39.68  39.86  40.69  41.22
         43.26  44.43  45.04  46.07  46.27  46.94  47.72  50.05  51.42  53.57
         54.51  58.33  60.43  69.72  70.16
  14  1 -15.35 -14.65 -14.64 -13.89 -13.85 -13.74 -13.16 -13.15 -12.20 -11.83
        -11.63 -11.34 -11.08 -10.60 -10.31  -9.73  -9.48  -9.03  -8.88  -8.79
         -8.71  -8.53  -8.22  -8.07  -8.00  -7.80  -7.64  -7.64  -7.49  -7.33
         -7.29  -6.78  -6.68  -6.65  -6.35  -6.34  -3.04  -2.85  -2.61  -2.25
         -2.24  -2.07  -1.93  -1.85  -1.83  -1.40  -1.25  -1.11  -1.06  -0.77
         -0.70  -0.46  -0.28  -0.20   0.04   0.12   0.38   0.42   0.52   0.93
          1.04   1.11   1.16   1.57   1.63   2.02   2.03   2.21   2.28   2.29
          2.38   2.41   2.59   2.70   2.88   3.14   3.20   3.59   3.73   3.78
          3.96   3.99   4.17   4.26   4.69   4.86   5.07   5.15   5.27   5.29
          5.42   5.72   5.75   6.11   6.38   6.47   6.57   6.79   6.92   7.03
          7.24   7.57   7.94   7.99   8.10   8.67   8.78   8.85   9.05   9.24
          9.45   9.54   9.68   9.87   9.91   9.98  10.13  10.22  10.48  10.69
         10.77  10.80  10.91  11.02  11.18  11.27  11.41  11.88  12.00  12.03
         12.10  12.26  12.44  12.84  13.04  13.16  13.26  13.38  13.54  13.67
         13.79  13.93  13.99  14.21  14.40  14.45  14.64  14.79  14.85  15.05
         15.17  15.23  15.51  15.92  16.06  16.15  16.26  16.34  16.57  16.59
         16.78  16.88  17.20  17.44  17.57  17.77  17.89  17.93  18.03  18.51
         18.54  18.71  18.74  18.81  19.06  19.23  19.26  19.72  19.80  20.18
         20.26  20.62  20.85  21.23  21.45  21.68  21.76  21.80  22.09  22.19
         22.56  22.58  22.60  22.85  23.30  23.48  23.65  24.28  24.51  24.65
         24.71  24.93  25.25  25.40  26.00  26.29  26.38  26.71  27.20  27.89
         28.06  28.36  28.99  29.68  29.87  30.32  30.35  31.81  31.81  32.22
         32.73  32.88  32.99  33.63  34.98  35.03  35.35  36.83  37.06  37.61
         37.83  38.01  38.44  38.97  39.26  39.49  39.53  39.79  40.60  40.74
         43.51  44.05  44.65  45.56  46.05  46.66  48.35  50.00  50.02  53.53
         54.14  58.00  59.84  69.92  70.17
  15  1 -15.22 -14.53 -14.50 -13.78 -13.77 -13.62 -13.25 -13.04 -12.34 -11.75
        -11.73 -11.42 -11.17 -10.73 -10.43  -9.84  -9.58  -9.06  -8.89  -8.83
         -8.76  -8.56  -8.28  -8.06  -8.05  -7.82  -7.69  -7.66  -7.49  -7.38
         -7.24  -6.84  -6.76  -6.72  -6.42  -6.38  -3.09  -2.90  -2.66  -2.37
         -2.32  -2.15  -1.91  -1.90  -1.82  -1.51  -1.40  -1.11  -1.01  -0.81
         -0.69  -0.47  -0.41  -0.34   0.01   0.13   0.39   0.47   0.53   0.84
          0.99   1.06   1.12   1.53   1.92   2.09   2.17   2.21   2.31   2.44
          2.49   2.64   2.95   3.03   3.10   3.22   3.30   3.63   3.90   3.96
          4.16   4.24   4.31   4.35   4.70   4.94   5.11   5.17   5.35   5.36
          5.61   5.73   5.82   6.25   6.45   6.48   6.57   6.70   7.01   7.08
          7.27   7.50   7.91   8.03   8.17   8.59   8.77   8.82   9.11   9.25
          9.41   9.55   9.69   9.73   9.86   9.95  10.10  10.20  10.50  10.67
         10.72  10.73  10.73  10.96  11.00  11.13  11.34  11.68  11.90  11.92
         12.04  12.10  12.41  12.55  12.88  13.06  13.17  13.36  13.58  13.60
         13.72  14.00  14.06  14.21  14.45  14.65  14.76  14.91  15.06  15.26
         15.31  15.39  15.53  15.80  16.17  16.29  16.40  16.49  16.67  16.83
         16.90  16.99  17.17  17.41  17.72  17.85  17.88  18.10  18.16  18.55
         18.64  18.72  18.76  19.02  19.11  19.16  19.30  19.67  19.98  20.17
         20.20  20.52  20.71  21.09  21.30  21.41  21.57  21.66  21.97  22.14
         22.40  22.41  22.48  22.87  23.20  23.29  23.46  24.08  24.31  24.49
         24.53  24.98  25.14  25.15  25.69  26.11  26.14  26.38  27.01  27.85
         27.90  28.37  28.76  29.43  29.68  29.85  30.20  31.24  31.34  32.15
         32.68  32.71  32.86  33.38  34.50  34.68  35.11  36.81  36.95  37.32
         37.66  37.79  38.39  39.07  39.08  39.27  39.41  39.92  40.28  40.70
         43.69  43.78  44.31  45.01  45.83  46.47  48.57  48.67  50.22  53.14
         53.76  57.58  59.07  70.14  70.19
  16  1 -15.07 -14.42 -14.36 -13.73 -13.66 -13.48 -13.36 -12.93 -12.48 -11.87
        -11.64 -11.51 -11.25 -10.87 -10.56  -9.94  -9.70  -9.07  -8.94  -8.81
         -8.80  -8.55  -8.32  -8.09  -8.06  -7.83  -7.74  -7.68  -7.49  -7.41
         -7.18  -6.89  -6.85  -6.79  -6.49  -6.42  -3.12  -2.93  -2.70  -2.46
         -2.41  -2.21  -1.98  -1.94  -1.77  -1.58  -1.54  -1.10  -0.97  -0.85
         -0.70  -0.52  -0.47  -0.45  -0.06   0.07   0.44   0.46   0.63   0.78
          0.91   0.97   1.15   1.49   1.86   2.03   2.17   2.23   2.40   2.59
          2.76   2.83   3.20   3.22   3.31   3.41   3.56   3.80   3.95   4.13
          4.35   4.37   4.54   4.69   4.71   4.98   5.22   5.29   5.44   5.47
          5.75   5.86   5.90   6.41   6.42   6.51   6.61   6.64   7.10   7.10
          7.29   7.44   7.85   8.07   8.22   8.47   8.70   8.84   9.17   9.19
          9.33   9.41   9.50   9.69   9.87   9.92  10.07  10.13  10.40  10.42
         10.56  10.64  10.64  10.88  10.95  11.00  11.24  11.31  11.66  11.74
         11.88  12.00  12.38  12.49  12.67  12.99  13.06  13.44  13.52  13.53
         13.86  14.02  14.08  14.28  14.55  14.74  14.93  15.03  15.32  15.38
         15.39  15.44  15.67  15.84  16.25  16.42  16.51  16.67  16.75  16.96
         17.07  17.24  17.32  17.48  17.77  17.82  17.91  18.25  18.38  18.68
         18.69  18.74  18.85  19.09  19.13  19.20  19.47  19.66  20.07  20.15
         20.19  20.49  20.61  20.96  21.18  21.18  21.38  21.60  21.79  22.03
         22.29  22.36  22.42  22.82  22.90  23.23  23.26  23.88  23.95  24.35
         24.36  24.79  25.04  25.30  25.45  25.72  26.05  26.22  26.83  27.79
         27.93  28.38  28.59  29.26  29.30  29.59  30.16  30.70  30.92  32.06
         32.44  32.51  32.64  33.30  34.18  34.38  34.93  36.71  36.76  36.86
         37.46  37.78  38.39  38.87  39.00  39.04  39.51  39.89  39.93  40.97
         43.57  43.84  44.06  44.62  45.65  46.10  47.49  48.45  50.40  52.57
         53.36  57.15  58.35  70.21  70.39
  17  1 -14.93 -14.31 -14.21 -13.71 -13.55 -13.47 -13.33 -12.83 -12.62 -12.02
        -11.60 -11.53 -11.31 -11.02 -10.69 -10.04  -9.82  -9.06  -8.95  -8.82
         -8.79  -8.53  -8.35  -8.11  -8.05  -7.84  -7.79  -7.69  -7.51  -7.43
         -7.13  -6.93  -6.93  -6.83  -6.55  -6.48  -3.14  -2.94  -2.76  -2.51
         -2.49  -2.26  -2.05  -1.96  -1.81  -1.64  -1.53  -1.10  -0.94  -0.90
         -0.71  -0.61  -0.57  -0.44  -0.15  -0.02   0.46   0.51   0.73   0.74
          0.88   0.91   1.17   1.46   1.76   1.94   2.14   2.19   2.41   2.63
          2.91   3.14   3.27   3.34   3.53   3.55   3.85   4.11   4.12   4.34
          4.44   4.54   4.73   4.84   4.96   5.09   5.42   5.46   5.53   5.61
          5.82   6.01   6.14   6.38   6.47   6.59   6.66   6.66   7.11   7.17
          7.27   7.39   7.83   8.08   8.21   8.32   8.66   8.81   8.97   9.04
          9.25   9.26   9.37   9.68   9.70   9.84  10.02  10.09  10.10  10.30
         10.31  10.56  10.57  10.75  10.80  10.93  11.00  11.30  11.33  11.55
         11.75  11.91  12.30  12.47  12.69  12.78  13.02  13.42  13.54  13.55
         13.98  14.06  14.07  14.38  14.64  14.84  15.03  15.17  15.36  15.39
         15.48  15.64  15.66  16.11  16.31  16.59  16.60  16.66  16.95  16.99
         17.27  17.40  17.58  17.61  17.78  17.83  18.04  18.43  18.53  18.68
         18.75  18.88  18.94  19.12  19.16  19.31  19.66  19.67  19.98  20.16
         20.25  20.56  20.58  20.86  21.06  21.06  21.34  21.51  21.60  21.87
         22.19  22.37  22.39  22.61  22.72  23.03  23.20  23.60  23.61  24.14
         24.29  24.40  24.98  25.08  25.54  25.59  26.07  26.12  26.69  27.67
         28.00  28.27  28.54  28.93  29.22  29.52  30.15  30.25  30.59  31.94
         32.09  32.23  32.37  33.43  34.02  34.19  34.74  36.22  36.47  36.54
         37.21  38.01  38.36  38.65  38.87  38.89  39.56  39.66  39.91  41.28
         43.53  43.85  43.85  44.40  45.52  45.55  46.66  48.27  50.00  52.09
         52.84  56.55  58.06  70.23  70.65
  18  1 -14.77 -14.22 -14.06 -13.75 -13.55 -13.48 -13.18 -12.76 -12.71 -12.17
        -11.67 -11.44 -11.33 -11.17 -10.81 -10.16  -9.91  -9.04  -8.94  -8.84
         -8.78  -8.51  -8.36  -8.12  -8.05  -7.86  -7.83  -7.70  -7.54  -7.44
         -7.10  -7.00  -6.95  -6.85  -6.59  -6.53  -3.16  -2.94  -2.81  -2.58
         -2.55  -2.29  -2.10  -1.96  -1.88  -1.72  -1.43  -1.10  -0.95  -0.94
         -0.73  -0.67  -0.65  -0.41  -0.26  -0.13   0.47   0.57   0.69   0.84
          0.87   0.89   1.18   1.43   1.65   1.85   2.12   2.17   2.40   2.63
          2.98   3.13   3.27   3.58   3.66   3.89   3.92   4.33   4.35   4.47
          4.60   4.74   4.90   5.12   5.14   5.23   5.59   5.61   5.68   5.81
          5.96   6.14   6.40   6.45   6.50   6.63   6.71   6.72   7.17   7.21
          7.23   7.38   7.83   8.02   8.16   8.21   8.57   8.65   8.68   8.82
          9.15   9.18   9.20   9.39   9.60   9.73   9.87   9.97  10.01  10.17
         10.25  10.37  10.41  10.50  10.74  10.89  11.02  11.12  11.34  11.36
         11.64  11.78  12.26  12.44  12.60  12.79  12.97  13.34  13.60  13.67
         13.92  14.05  14.27  14.49  14.68  14.95  15.08  15.28  15.31  15.32
         15.53  15.79  15.82  16.24  16.38  16.64  16.68  16.84  17.02  17.13
         17.33  17.53  17.63  17.78  17.99  17.99  18.13  18.55  18.61  18.66
         18.82  19.01  19.07  19.18  19.30  19.42  19.60  19.76  19.98  20.13
         20.42  20.63  20.65  20.80  21.00  21.02  21.33  21.42  21.46  21.74
         22.11  22.26  22.34  22.38  22.65  22.88  23.10  23.32  23.33  23.96
         23.99  24.18  24.79  24.86  25.60  25.67  26.06  26.16  26.71  27.38
         28.07  28.09  28.50  28.74  29.27  29.47  29.86  30.23  30.40  31.69
         31.81  32.07  32.10  33.57  34.02  34.06  34.56  35.55  36.13  36.35
         36.91  38.22  38.26  38.35  38.83  38.99  39.29  39.80  39.90  41.59
         43.61  43.64  43.77  44.25  44.67  45.53  46.51  48.07  49.14  51.76
         52.10  55.85  58.17  70.25  70.91
  19  1 -14.62 -14.17 -13.91 -13.82 -13.59 -13.45 -13.01 -12.80 -12.70 -12.34
        -11.69 -11.39 -11.33 -11.28 -10.89 -10.31  -9.96  -9.00  -8.91  -8.86
         -8.77  -8.49  -8.36  -8.11  -8.06  -7.88  -7.86  -7.70  -7.57  -7.45
         -7.08  -7.06  -6.95  -6.84  -6.62  -6.60  -3.16  -2.91  -2.85  -2.67
         -2.58  -2.31  -2.15  -1.95  -1.93  -1.78  -1.31  -1.10  -0.99  -0.96
         -0.77  -0.70  -0.67  -0.39  -0.36  -0.22   0.49   0.60   0.66   0.87
          0.92   0.93   1.18   1.42   1.56   1.76   2.11   2.15   2.39   2.59
          3.04   3.10   3.24   3.65   3.73   3.97   4.30   4.32   4.48   4.56
          4.87   4.99   5.08   5.28   5.32   5.40   5.66   5.77   5.95   5.98
          6.16   6.17   6.34   6.58   6.70   6.80   6.83   6.94   7.10   7.21
          7.34   7.38   7.72   7.76   8.14   8.22   8.27   8.45   8.50   8.56
          8.95   8.97   9.04   9.21   9.45   9.56   9.78   9.91   9.95  10.11
         10.18  10.23  10.28  10.47  10.67  10.89  11.02  11.05  11.14  11.38
         11.56  11.66  12.24  12.42  12.50  12.88  12.93  13.26  13.62  13.81
         13.91  14.06  14.44  14.55  14.72  15.04  15.10  15.19  15.27  15.38
         15.56  15.89  15.93  16.28  16.45  16.68  16.75  17.02  17.04  17.14
         17.38  17.66  17.69  17.94  18.03  18.14  18.33  18.39  18.69  18.76
         19.05  19.07  19.21  19.33  19.45  19.48  19.58  19.76  20.00  20.13
         20.44  20.66  20.79  20.83  21.03  21.05  21.15  21.39  21.53  21.72
         21.99  22.06  22.17  22.36  22.58  22.75  23.00  23.07  23.22  23.65
         23.81  23.90  24.67  24.68  25.71  25.77  26.05  26.16  26.96  27.00
         27.90  28.14  28.38  28.67  29.30  29.35  29.61  30.34  30.49  31.43
         31.64  31.85  32.00  33.62  33.97  34.22  34.37  34.96  35.79  36.20
         36.62  37.99  38.03  38.26  38.81  39.11  39.57  39.89  39.94  41.84
         43.38  43.60  43.63  43.95  44.23  45.54  46.94  47.54  48.49  51.12
         51.50  55.27  58.40  70.27  71.13
  20  1 -14.46 -14.20 -13.85 -13.76 -13.63 -13.51 -12.85 -12.80 -12.70 -12.51
        -11.67 -11.47 -11.36 -11.26 -10.90 -10.45  -9.99  -8.96  -8.89  -8.88
         -8.78  -8.48  -8.37  -8.10  -8.07  -7.89  -7.87  -7.70  -7.60  -7.46
         -7.09  -7.08  -6.96  -6.79  -6.66  -6.64  -3.17  -2.88  -2.87  -2.75
         -2.59  -2.31  -2.18  -1.97  -1.93  -1.83  -1.20  -1.09  -1.02  -1.01
         -0.81  -0.70  -0.66  -0.44  -0.38  -0.29   0.50   0.61   0.65   0.88
          0.96   0.99   1.18   1.42   1.48   1.69   2.12   2.14   2.37   2.55
          3.08   3.10   3.21   3.70   3.75   4.01   4.25   4.37   4.62   4.90
          4.97   5.14   5.22   5.33   5.46   5.53   5.70   5.96   5.99   6.10
          6.20   6.29   6.50   6.72   6.78   6.96   6.97   7.03   7.24   7.36
          7.37   7.46   7.52   7.59   7.98   7.98   8.15   8.18   8.35   8.43
          8.72   8.88   8.90   9.04   9.25   9.57   9.77   9.87   9.94  10.00
         10.11  10.21  10.25  10.46  10.60  10.90  10.91  11.02  11.04  11.38
         11.52  11.61  12.24  12.41  12.45  12.89  12.96  13.21  13.61  13.81
         14.08  14.09  14.47  14.56  14.82  15.06  15.07  15.13  15.25  15.44
         15.55  15.97  15.98  16.28  16.50  16.73  16.87  16.98  17.06  17.09
         17.52  17.71  17.82  17.97  17.99  18.24  18.26  18.51  18.78  18.87
         19.04  19.26  19.30  19.45  19.49  19.59  19.70  19.75  19.99  20.16
         20.38  20.43  20.86  21.01  21.02  21.11  21.13  21.47  21.61  21.73
         21.76  22.01  22.12  22.36  22.40  22.53  22.91  23.01  23.22  23.43
         23.64  23.71  24.50  24.66  25.86  25.87  26.07  26.12  26.64  27.27
         27.75  28.17  28.17  28.64  29.20  29.25  29.52  30.53  30.77  31.30
         31.41  31.63  31.98  33.64  33.93  34.20  34.36  34.67  35.52  36.13
         36.40  37.66  37.88  38.18  38.80  39.03  39.91  40.01  40.28  42.02
         42.71  43.23  43.44  44.18  44.42  45.57  46.65  47.75  48.32  49.98
         51.32  54.90  58.58  70.29  71.28
  21  1 -14.33 -14.31 -13.84 -13.64 -13.62 -13.62 -12.78 -12.72 -12.68 -12.68
        -11.60 -11.57 -11.34 -11.28 -10.87 -10.52  -9.99  -8.92  -8.92  -8.86
         -8.79  -8.48  -8.37  -8.09  -8.08  -7.89  -7.88  -7.69  -7.62  -7.47
         -7.10  -7.09  -6.96  -6.74  -6.72  -6.65  -3.17  -2.88  -2.82  -2.82
         -2.60  -2.32  -2.19  -1.98  -1.91  -1.86  -1.11  -1.09  -1.09  -1.02
         -0.82  -0.70  -0.65  -0.47  -0.37  -0.32   0.50   0.61   0.64   0.89
          0.98   1.01   1.17   1.42   1.46   1.66   2.12   2.14   2.36   2.54
          3.07   3.15   3.16   3.72   3.75   4.03   4.22   4.38   4.64   4.97
          5.10   5.30   5.31   5.34   5.45   5.55   5.57   6.01   6.03   6.06
          6.36   6.45   6.69   6.69   6.75   6.93   6.99   7.05   7.21   7.47
          7.48   7.51   7.62   7.64   7.72   7.91   8.03   8.17   8.18   8.21
          8.71   8.85   8.88   8.95   9.20   9.59   9.80   9.83   9.96   9.96
         10.07  10.19  10.27  10.47  10.58  10.81  10.93  11.01  11.03  11.38
         11.51  11.61  12.24  12.41  12.43  12.88  13.00  13.18  13.60  13.81
         14.09  14.27  14.33  14.60  14.90  14.99  15.06  15.16  15.24  15.47
         15.53  15.99  16.00  16.27  16.50  16.84  16.86  16.92  17.06  17.10
         17.57  17.72  17.90  17.95  17.96  18.21  18.30  18.57  18.84  18.95
         19.01  19.28  19.34  19.41  19.62  19.68  19.74  19.75  20.04  20.20
         20.23  20.35  20.86  20.97  21.09  21.13  21.33  21.35  21.57  21.76
         21.87  21.95  22.16  22.21  22.32  22.48  22.80  23.06  23.21  23.43
         23.47  23.68  24.42  24.65  25.90  25.97  26.11  26.12  26.43  27.45
         27.69  28.01  28.19  28.64  29.14  29.21  29.51  30.65  31.07  31.15
         31.24  31.54  31.99  33.66  33.93  34.12  34.28  34.73  35.41  36.13
         36.31  37.52  37.83  38.15  38.79  39.01  39.92  40.04  40.72  42.08
         42.20  43.18  43.37  44.17  44.75  45.61  46.13  48.29  48.65  48.96
         51.26  54.77  58.65  70.30  71.33

siesta: Eigenvalues (eV):
  ik is    eps
   1  1 -16.21 -15.51 -15.44 -14.72 -14.67 -14.43 -13.98 -13.31 -11.99 -11.60
        -11.39 -11.23 -10.66 -10.18  -9.90  -9.34  -8.75  -8.71  -8.49  -8.11
         -7.93  -7.70  -7.28  -7.18  -6.86  -6.57  -6.56  -6.49  -6.21  -6.09
         -6.05  -5.98  -5.97  -5.76  -5.41  -5.06  -3.67  -3.17  -2.96  -2.75
         -2.67  -2.54  -2.43  -2.11  -1.98  -1.74  -1.73  -1.26  -1.22  -1.19
         -0.73  -0.69  -0.64  -0.47  -0.38  -0.37  -0.31  -0.07   0.24   0.25
          0.34   1.02   1.20   1.21   1.30   1.75   1.82   1.92   2.10   2.37
          2.41   2.42   2.52   2.82   3.01   3.14   3.27   3.37   3.48   3.62
          3.95   4.09   4.41   4.43   4.47   4.71   4.72   4.81   4.95   4.97
          5.05   5.54   5.60   5.81   6.15   6.20   6.31   6.41   6.48   6.62
          6.98   7.06   7.10   7.17   7.29   7.45   7.89   8.21   8.34   8.35
          8.53   8.75   8.92   8.96   8.97   9.04   9.50   9.56   9.70   9.85
         10.00  10.09  10.23  10.28  10.34  10.82  10.89  11.09  11.24  11.28
         11.41  11.46  11.99  12.16  12.22  12.51  12.63  12.90  13.02  13.16
         13.45  13.54  13.61  14.05  14.17  14.40  14.75  14.83  14.96  15.07
         15.32  15.71  15.79  15.79  15.81  16.51  16.63  16.75  16.92  17.14
         17.28  17.57  17.71  18.01  18.45  18.59  18.73  18.77  18.90  18.91
         19.46  19.66  19.80  20.22  20.23  20.26  20.44  20.75  20.98  20.99
         21.02  21.21  21.55  21.64  22.04  22.11  22.31  22.36  22.82  22.92
         23.08  23.11  23.35  23.66  23.71  23.85  24.39  25.41  25.43  25.61
         26.05  26.08  26.10  26.37  27.39  27.96  28.69  28.90  29.62  29.68
         30.02  30.15  30.34  31.11  31.25  31.44  31.59  32.46  32.53  32.95
         33.32  33.78  33.93  34.62  35.48  35.58  35.75  35.92  36.20  36.60
         36.84  37.57  37.77  37.88  37.93  38.61  40.12  40.66  41.01  42.48
         42.74  43.49  44.13  44.61  45.70  46.69  50.75  51.54  52.34  53.76
         57.96  58.69  63.58  68.69  69.85
   2  1 -16.21 -15.51 -15.44 -14.72 -14.67 -14.43 -13.98 -13.31 -11.99 -11.60
        -11.39 -11.23 -10.66 -10.18  -9.90  -9.34  -8.75  -8.71  -8.49  -8.11
         -7.93  -7.70  -7.28  -7.18  -6.86  -6.57  -6.56  -6.49  -6.21  -6.09
         -6.05  -5.98  -5.97  -5.76  -5.41  -5.06  -3.67  -3.17  -2.96  -2.75
         -2.67  -2.54  -2.43  -2.11  -1.98  -1.74  -1.73  -1.26  -1.22  -1.19
         -0.73  -0.69  -0.64  -0.47  -0.38  -0.37  -0.31  -0.07   0.24   0.25
          0.34   1.02   1.20   1.21   1.30   1.75   1.82   1.92   2.10   2.37
          2.41   2.42   2.52   2.82   3.01   3.14   3.27   3.37   3.48   3.62
          3.95   4.09   4.41   4.43   4.47   4.71   4.72   4.81   4.95   4.97
          5.05   5.54   5.60   5.81   6.15   6.20   6.31   6.41   6.48   6.62
          6.98   7.06   7.10   7.17   7.29   7.45   7.89   8.21   8.34   8.35
          8.53   8.75   8.92   8.96   8.97   9.04   9.50   9.56   9.70   9.85
         10.00  10.09  10.23  10.28  10.34  10.82  10.89  11.09  11.24  11.28
         11.41  11.46  11.99  12.16  12.22  12.51  12.63  12.90  13.02  13.16
         13.45  13.54  13.61  14.05  14.17  14.40  14.75  14.83  14.96  15.07
         15.32  15.71  15.79  15.79  15.81  16.51  16.63  16.75  16.92  17.14
         17.28  17.57  17.71  18.01  18.45  18.59  18.73  18.77  18.90  18.91
         19.46  19.66  19.80  20.22  20.23  20.26  20.44  20.75  20.98  20.99
         21.02  21.21  21.55  21.64  22.04  22.11  22.31  22.36  22.82  22.92
         23.08  23.11  23.35  23.66  23.71  23.85  24.39  25.41  25.43  25.61
         26.05  26.08  26.10  26.37  27.39  27.96  28.69  28.90  29.62  29.68
         30.02  30.15  30.34  31.11  31.25  31.44  31.59  32.46  32.53  32.95
         33.32  33.78  33.93  34.62  35.48  35.58  35.75  35.92  36.20  36.60
         36.84  37.57  37.77  37.88  37.93  38.61  40.12  40.66  41.01  42.48
         42.74  43.49  44.13  44.61  45.70  46.69  50.75  51.54  52.34  53.76
         57.96  58.69  63.58  68.69  69.85
   3  1 -16.21 -15.51 -15.44 -14.72 -14.67 -14.43 -13.98 -13.31 -11.99 -11.60
        -11.39 -11.23 -10.66 -10.18  -9.90  -9.34  -8.75  -8.71  -8.49  -8.11
         -7.93  -7.70  -7.28  -7.18  -6.86  -6.57  -6.56  -6.49  -6.21  -6.09
         -6.05  -5.98  -5.97  -5.76  -5.41  -5.06  -3.67  -3.17  -2.96  -2.75
         -2.67  -2.54  -2.43  -2.11  -1.98  -1.74  -1.73  -1.26  -1.22  -1.19
         -0.73  -0.69  -0.64  -0.47  -0.38  -0.37  -0.31  -0.07   0.24   0.25
          0.34   1.02   1.20   1.21   1.30   1.75   1.82   1.92   2.10   2.37
          2.41   2.42   2.52   2.82   3.01   3.14   3.27   3.37   3.48   3.62
          3.95   4.09   4.41   4.43   4.47   4.71   4.72   4.81   4.95   4.97
          5.05   5.54   5.60   5.81   6.15   6.20   6.31   6.41   6.48   6.62
          6.98   7.06   7.10   7.17   7.29   7.45   7.89   8.21   8.34   8.35
          8.53   8.75   8.92   8.96   8.97   9.04   9.50   9.56   9.70   9.85
         10.00  10.09  10.23  10.28  10.34  10.82  10.89  11.09  11.24  11.28
         11.41  11.46  11.99  12.16  12.22  12.51  12.63  12.90  13.02  13.16
         13.45  13.54  13.61  14.05  14.17  14.40  14.75  14.83  14.96  15.07
         15.32  15.71  15.79  15.79  15.81  16.51  16.63  16.75  16.92  17.14
         17.28  17.57  17.71  18.01  18.45  18.59  18.73  18.77  18.90  18.91
         19.46  19.66  19.80  20.22  20.23  20.26  20.44  20.75  20.98  20.99
         21.02  21.21  21.55  21.64  22.04  22.11  22.31  22.36  22.82  22.92
         23.08  23.11  23.35  23.66  23.71  23.85  24.39  25.41  25.43  25.61
         26.05  26.08  26.10  26.37  27.39  27.96  28.69  28.90  29.62  29.68
         30.02  30.15  30.34  31.11  31.25  31.44  31.59  32.46  32.53  32.95
         33.32  33.78  33.93  34.62  35.48  35.58  35.75  35.92  36.20  36.60
         36.84  37.57  37.77  37.88  37.93  38.61  40.12  40.66  41.01  42.48
         42.74  43.49  44.13  44.61  45.70  46.69  50.75  51.54  52.34  53.76
         57.96  58.69  63.58  68.69  69.85
   4  1 -16.21 -15.51 -15.44 -14.72 -14.67 -14.43 -13.98 -13.31 -11.99 -11.60
        -11.39 -11.23 -10.66 -10.18  -9.90  -9.34  -8.75  -8.71  -8.49  -8.11
         -7.93  -7.70  -7.28  -7.18  -6.86  -6.57  -6.56  -6.49  -6.21  -6.09
         -6.05  -5.98  -5.97  -5.76  -5.41  -5.06  -3.67  -3.17  -2.96  -2.75
         -2.67  -2.54  -2.43  -2.11  -1.98  -1.74  -1.73  -1.26  -1.22  -1.19
         -0.73  -0.69  -0.64  -0.47  -0.38  -0.37  -0.31  -0.07   0.24   0.25
          0.34   1.02   1.20   1.21   1.30   1.75   1.82   1.92   2.10   2.37
          2.41   2.42   2.52   2.82   3.01   3.14   3.27   3.37   3.48   3.62
          3.95   4.09   4.41   4.43   4.47   4.71   4.72   4.81   4.95   4.97
          5.05   5.54   5.60   5.81   6.15   6.20   6.31   6.41   6.48   6.62
          6.98   7.06   7.10   7.17   7.29   7.45   7.89   8.21   8.34   8.35
          8.53   8.75   8.92   8.96   8.97   9.04   9.50   9.56   9.70   9.85
         10.00  10.09  10.23  10.28  10.34  10.82  10.89  11.09  11.24  11.28
         11.41  11.46  11.99  12.16  12.22  12.51  12.63  12.90  13.02  13.16
         13.45  13.54  13.61  14.05  14.17  14.40  14.75  14.83  14.96  15.07
         15.32  15.71  15.79  15.79  15.81  16.51  16.63  16.75  16.92  17.14
         17.28  17.57  17.71  18.01  18.45  18.59  18.73  18.77  18.90  18.91
         19.46  19.66  19.80  20.22  20.23  20.26  20.44  20.75  20.98  20.99
         21.02  21.21  21.55  21.64  22.04  22.11  22.31  22.36  22.82  22.92
         23.08  23.11  23.35  23.66  23.71  23.85  24.39  25.41  25.43  25.61
         26.05  26.08  26.10  26.37  27.39  27.96  28.69  28.90  29.62  29.68
         30.02  30.15  30.34  31.11  31.25  31.44  31.59  32.46  32.53  32.95
         33.32  33.78  33.93  34.62  35.48  35.58  35.75  35.92  36.20  36.60
         36.84  37.57  37.77  37.88  37.93  38.61  40.12  40.66  41.01  42.48
         42.74  43.49  44.13  44.61  45.70  46.69  50.75  51.54  52.34  53.76
         57.96  58.69  63.58  68.69  69.85
siesta: Fermi energy =      -4.374297 eV

siesta: Program's energy decomposition (eV):
siesta: Ebs     =      -683.446193
siesta: Eions   =      3092.503786
siesta: Ena     =       950.307489
siesta: Ekin    =       795.083779
siesta: Enl     =       159.448041
siesta: Eso     =         0.000000
siesta: Eldau   =         0.000000
siesta: DEna    =        -7.090556
siesta: DUscf   =         8.044099
siesta: DUext   =         0.000000
siesta: Enegf   =         0.000000
siesta: Exc     =      -591.186474
siesta: eta*DQ  =         0.000000
siesta: Emadel  =         0.000000
siesta: Emeta   =         0.000000
siesta: Emolmec =         0.000000
siesta: Ekinion =         0.000000
siesta: Eharris =     -1777.897409
siesta: Etot    =     -1777.897409
siesta: FreeEng =     -1777.897409

siesta: Final energy (eV):
siesta:  Band Struct. =    -683.446193
siesta:       Kinetic =     795.083779
siesta:       Hartree =   17861.947152
siesta:       Eldau   =       0.000000
siesta:       Eso     =       0.000000
siesta:    Ext. field =       0.000000
siesta:       Enegf   =       0.000000
siesta:   Exch.-corr. =    -591.186474
siesta:  Ion-electron =  -36431.438648
siesta:       Ion-ion =   16587.696783
siesta:       Ekinion =       0.000000
siesta:         Total =   -1777.897409
siesta:         Fermi =      -4.374297

siesta: Atomic forces (eV/Ang):
siesta:      1   -0.004760    0.000000    0.179476
siesta:      2   -0.006757    0.000000   -0.204561
siesta:      3   -0.003280   -0.081551   -0.386912
siesta:      4   -0.003280    0.081551   -0.386912
siesta:      5   -0.002398    0.311913    0.221164
siesta:      6   -0.007810   -0.020424    0.440940
siesta:      7   -0.007810    0.020424    0.440940
siesta:      8   -0.002398   -0.311913    0.221164
siesta:      9   -0.002847   -0.281119   -0.223390
siesta:     10   -0.002847    0.281119   -0.223390
siesta:     11    0.003626    0.000000   -1.408075
siesta:     12   -0.003311    0.520642   -0.257504
siesta:     13   -0.003311   -0.520642   -0.257504
siesta:     14   -0.004323   -0.360520   -0.209029
siesta:     15   -0.004323    0.360520   -0.209029
siesta:     16    0.000300   -0.842094    0.184183
siesta:     17    2.708172    0.000000    0.739193
siesta:     18    0.000300    0.842094    0.184183
siesta:     19    0.001629    0.400302    0.030571
siesta:     20    0.001736    0.340607    0.122705
siesta:     21    0.001629   -0.400302    0.030571
siesta:     22    0.001736   -0.340607    0.122705
siesta:     23   -2.705836    0.000000    0.737304
siesta:     24    0.001390   -0.395466   -0.024158
siesta:     25    0.001390    0.395466   -0.024158
siesta:     26    0.000678    0.029361    0.071170
siesta:     27    0.000678   -0.029361    0.071170
siesta: ----------------------------------------
siesta:    Tot   -0.042027   -0.000000   -0.017181

siesta: Stress tensor (static) (eV/Ang**3):
siesta:    -0.005528   -0.000000    0.000001
siesta:    -0.000000    0.000178    0.000000
siesta:     0.000001   -0.000000   -0.000291

siesta: Cell volume =       5660.496885 Ang**3

siesta: Pressure (static):
siesta:                Solid            Molecule  Units
siesta:           0.00002048          0.00002446  Ry/Bohr**3
siesta:           0.00188033          0.00224618  eV/Ang**3
siesta:           3.01265484          3.59882012  kBar
(Free)E+ p_basis*V_orbitals  =       -1760.755407
(Free)Eharris+ p_basis*V_orbitals  =       -1760.755407

siesta: Electric dipole (a.u.)  =    0.000000   -0.000000   -0.037500
siesta: Electric dipole (Debye) =    0.000000   -0.000000   -0.095317
>> End of run:   5-NOV-2018  11:15:00
Job completed
