
                           ***********************       
                           *  WELCOME TO SIESTA  *       
                           ***********************       

reinit: Reading from standard input
reinit: Dumped input in INPUT_TMP.09094
************************** Dump of input data file ****************************
SystemName TDDFT_h2o
SystemLabel TDDFT_h2o
################################################################
xc.functional LDA
xc.authors CA
Atom.Ignore.Ghosts
MeshCutoff 150.0 Ry
SolutionMethod diagon
ElectronicTemperature 5 meV
DM.MixingWeight 0.2
DM.NumberPulay 3
################################################################
TDED.WF.Initialize
%block ExternalElectricField
0.200  -0.200  0.000  V/Ang
%endblock ExternalElectricField
###############################################################
NumberOfAtoms 3
NumberOfSpecies 2
%block ChemicalSpeciesLabel
1 8 O
2 1 H
%endblock ChemicalSpeciesLabel
%Block PAO.Basis
O    3     -0.24233
n=2   0   2   E    23.36061     3.39721
     4.50769     2.64066
     1.00000     1.00000
n=2   1   2   E     2.78334     5.14253
     6.14996     2.59356
     1.00000     1.00000
n=3   2   1   E    63.98188     0.16104
     3.54403
     1.00000
H    2      0.46527
n=1   0   2   E    99.93138     2.59932
     4.20357     1.84463
     1.00000     1.00000
n=2   1   1   E    24.56504     2.20231
     3.52816
     1.00000
%EndBlock PAO.Basis
LatticeConstant 10.0 Ang
%block LatticeVectors
1.0 0.0 0.0
0.0 1.0 0.0
0.0 0.0 1.0
%endblock LatticeVectors
AtomicCoordinatesFormat NotScaledCartesianAng
%block AtomicCoordinatesAndAtomicSpecies
0.401406    0.437428    0.768445 1
0.004485   -0.004402    0.000174 2
0.004730   -0.004345    1.536873 2
%endblock AtomicCoordinatesAndAtomicSpecies
************************** End of input data file *****************************

reinit: -----------------------------------------------------------------------
reinit: System Name: TDDFT_h2o
reinit: -----------------------------------------------------------------------
reinit: System Label: TDDFT_h2o
reinit: -----------------------------------------------------------------------
Siesta Version: trunk-611-tddft02-40--np-1
Architecture  : intel_quartz
Compiler flags: ifort -O3 -fPIC -auto-scalar
PP flags      : -DFC_HAVE_ABORT -DSIESTA__DIAG_2STAGE
Libraries     : libsiestaLAPACK.a libsiestaBLAS.a libsiestaLAPACK.a libsiestaBLAS.a
SERIAL version

* Running in serial mode
>> Start of run:   4-OCT-2017   5:02:34

initatom: Reading input for the pseudopotentials and atomic orbitals ----------
Species number:   1 Atomic number:    8 Label: O
Species number:   2 Atomic number:    1 Label: H
 
Ground state valence configuration:   2s02  2p04
Reading pseudopotential information in formatted form from O.psf

Valence configuration for pseudopotential generation:
2s( 2.00) rc: 1.14
2p( 4.00) rc: 1.14
3d( 0.00) rc: 1.14
4f( 0.00) rc: 1.14
Ground state valence configuration:   1s01
Reading pseudopotential information in formatted form from H.psf

Valence configuration for pseudopotential generation:
1s( 1.00) rc: 1.25
2p( 0.00) rc: 1.25
3d( 0.00) rc: 1.25
4f( 0.00) rc: 1.25
For O, standard SIESTA heuristics set lmxkb to 3
 (one more than the basis l, including polarization orbitals).
Use PS.lmax or PS.KBprojectors blocks to override.
For H, standard SIESTA heuristics set lmxkb to 2
 (one more than the basis l, including polarization orbitals).
Use PS.lmax or PS.KBprojectors blocks to override.

<basis_specs>
===============================================================================
O                    Z=   8    Mass=  16.000        Charge=-0.24233    
Lmxo=2 Lmxkb= 3    BasisType=split      Semic=F
L=0  Nsemic=0  Cnfigmx=2
          n=1  nzeta=2  polorb=0
            splnorm:   0.15000    
               vcte:    23.361    
               rinn:    3.3972    
               qcoe:    0.0000    
               qyuk:    0.0000    
               qwid:   0.10000E-01
                rcs:    4.5077      2.6407    
            lambdas:    1.0000      1.0000    
L=1  Nsemic=0  Cnfigmx=2
          n=1  nzeta=2  polorb=0
            splnorm:   0.15000    
               vcte:    2.7833    
               rinn:    5.1425    
               qcoe:    0.0000    
               qyuk:    0.0000    
               qwid:   0.10000E-01
                rcs:    6.1500      2.5936    
            lambdas:    1.0000      1.0000    
L=2  Nsemic=0  Cnfigmx=3
          n=1  nzeta=1  polorb=0
            splnorm:   0.15000    
               vcte:    63.982    
               rinn:   0.16104    
               qcoe:    0.0000    
               qyuk:    0.0000    
               qwid:   0.10000E-01
                rcs:    3.5440    
            lambdas:    1.0000    
-------------------------------------------------------------------------------
L=0  Nkbl=1  erefs: 0.17977+309
L=1  Nkbl=1  erefs: 0.17977+309
L=2  Nkbl=1  erefs: 0.17977+309
L=3  Nkbl=1  erefs: 0.17977+309
===============================================================================
</basis_specs>

atom: Called for O                     (Z =   8)

read_vps: Pseudopotential generation method:
read_vps: ATM3      Troullier-Martins                       
Total valence charge:    6.00000

xc_check: Exchange-correlation functional:
xc_check: Ceperley-Alder
V l=0 = -2*Zval/r beyond r=  1.1278
V l=1 = -2*Zval/r beyond r=  1.1278
V l=2 = -2*Zval/r beyond r=  1.1278
V l=3 = -2*Zval/r beyond r=  1.1138
All V_l potentials equal beyond r=  1.1278
This should be close to max(r_c) in ps generation
All pots = -2*Zval/r beyond r=  1.1278

VLOCAL1: 99.0% of the norm of Vloc inside     34.126 Ry
VLOCAL1: 99.9% of the norm of Vloc inside     77.774 Ry
atom: Maximum radius for 4*pi*r*r*local-pseudopot. charge    1.37759
atom: Maximum radius for r*vlocal+2*Zval:    1.18566
GHOST: No ghost state for L =  0
GHOST: No ghost state for L =  1
GHOST: No ghost state for L =  2
GHOST: No ghost state for L =  3

KBgen: Kleinman-Bylander projectors: 
   l= 0   rc=  1.294105   el= -1.742414   Ekb=  9.135903   kbcos=  0.326910
   l= 1   rc=  1.294105   el= -0.676589   Ekb= -8.124878   kbcos= -0.395047
   l= 2   rc=  1.448233   el=  0.002386   Ekb= -2.039267   kbcos= -0.003484
   l= 3   rc=  1.561052   el=  0.003508   Ekb= -0.799141   kbcos= -0.000344

KBgen: Total number of  Kleinman-Bylander projectors:   16
atom: -------------------------------------------------------------------------

atom: SANKEY-TYPE ORBITALS:
atom: Selected multiple-zeta basis: split     

atom: basis set generated (by rescaling the valence charge)
atom: for an anion of charge  -0.2423

SPLIT: Orbitals with angular momentum L= 0

SPLIT: Basis orbitals for state 2s

   izeta = 1
                 lambda =    1.000000
                     rc =    4.574469
                 energy =   -1.739323
                kinetic =    1.467914
    potential(screened) =   -3.207238
       potential(ionic) =  -11.014532

   izeta = 2
                 rmatch =    2.639108
              splitnorm =    0.153695
                 energy =   -1.527754
                kinetic =    2.320551
    potential(screened) =   -3.848305
       potential(ionic) =  -12.330495

SPLIT: Orbitals with angular momentum L= 1

SPLIT: Basis orbitals for state 2p

   izeta = 1
                 lambda =    1.000000
                     rc =    6.174996
                 energy =   -0.669866
                kinetic =    4.306914
    potential(screened) =   -4.976780
       potential(ionic) =  -12.345889

   izeta = 2
                 rmatch =    2.639108
              splitnorm =    0.215791
                 energy =   -0.421372
                kinetic =    7.187196
    potential(screened) =   -7.608568
       potential(ionic) =  -16.233136

SPLIT: Orbitals with angular momentum L= 2

SPLIT: Basis orbitals for state 3d

   izeta = 1
                 lambda =    1.000000
                     rc =    3.562532
                 energy =    3.646061
                kinetic =    6.465218
    potential(screened) =   -2.819156
       potential(ionic) =   -9.987611
atom: Total number of Sankey-type orbitals: 13

atm_pop: Valence configuration (for local Pseudopot. screening):
 2s( 2.00)                                                            
 2p( 4.00)                                                            
 3d( 0.00)                                                            
Vna: chval, zval:    6.00000   6.00000

Vna:  Cut-off radius for the neutral-atom potential:   6.174996

atom: _________________________________________________________________________

<basis_specs>
===============================================================================
H                    Z=   1    Mass=  1.0100        Charge= 0.46527    
Lmxo=1 Lmxkb= 2    BasisType=split      Semic=F
L=0  Nsemic=0  Cnfigmx=1
          n=1  nzeta=2  polorb=0
            splnorm:   0.15000    
               vcte:    99.931    
               rinn:    2.5993    
               qcoe:    0.0000    
               qyuk:    0.0000    
               qwid:   0.10000E-01
                rcs:    4.2036      1.8446    
            lambdas:    1.0000      1.0000    
L=1  Nsemic=0  Cnfigmx=2
          n=1  nzeta=1  polorb=0
            splnorm:   0.15000    
               vcte:    24.565    
               rinn:    2.2023    
               qcoe:    0.0000    
               qyuk:    0.0000    
               qwid:   0.10000E-01
                rcs:    3.5282    
            lambdas:    1.0000    
-------------------------------------------------------------------------------
L=0  Nkbl=1  erefs: 0.17977+309
L=1  Nkbl=1  erefs: 0.17977+309
L=2  Nkbl=1  erefs: 0.17977+309
===============================================================================
</basis_specs>

atom: Called for H                     (Z =   1)

read_vps: Pseudopotential generation method:
read_vps: ATM3      Troullier-Martins                       
Total valence charge:    1.00000

xc_check: Exchange-correlation functional:
xc_check: Ceperley-Alder
V l=0 = -2*Zval/r beyond r=  1.2343
V l=1 = -2*Zval/r beyond r=  1.2189
V l=2 = -2*Zval/r beyond r=  1.2189
All V_l potentials equal beyond r=  1.2343
This should be close to max(r_c) in ps generation
All pots = -2*Zval/r beyond r=  1.2343

VLOCAL1: 99.0% of the norm of Vloc inside     28.493 Ry
VLOCAL1: 99.9% of the norm of Vloc inside     64.935 Ry
atom: Maximum radius for 4*pi*r*r*local-pseudopot. charge    1.45251
atom: Maximum radius for r*vlocal+2*Zval:    1.21892
GHOST: No ghost state for L =  0
GHOST: No ghost state for L =  1
GHOST: No ghost state for L =  2

KBgen: Kleinman-Bylander projectors: 
   l= 0   rc=  1.364359   el= -0.467325   Ekb= -2.005361   kbcos= -0.336422
   l= 1   rc=  1.434438   el=  0.001430   Ekb= -0.501708   kbcos= -0.021697
   l= 2   rc=  1.470814   el=  0.002365   Ekb= -0.190555   kbcos= -0.002281

KBgen: Total number of  Kleinman-Bylander projectors:    9
atom: -------------------------------------------------------------------------

atom: SANKEY-TYPE ORBITALS:
atom: Selected multiple-zeta basis: split     

atom: basis set generated (by rescaling the valence charge)
atom: for a cation of charge   0.4653

SPLIT: Orbitals with angular momentum L= 0

SPLIT: Basis orbitals for state 1s

   izeta = 1
                 lambda =    1.000000
                     rc =    4.260636
                 energy =   -0.840439
                kinetic =    1.316838
    potential(screened) =   -2.157277
       potential(ionic) =   -2.249537

   izeta = 2
                 rmatch =    1.865767
              splitnorm =    0.593349
                 energy =    0.559247
                kinetic =    4.334387
    potential(screened) =   -3.775139
       potential(ionic) =   -3.826383

SPLIT: Orbitals with angular momentum L= 1

SPLIT: Basis orbitals for state 2p

   izeta = 1
                 lambda =    1.000000
                     rc =    3.576223
                 energy =    0.823721
                kinetic =    1.999937
    potential(screened) =   -1.176216
       potential(ionic) =   -1.294343
atom: Total number of Sankey-type orbitals:  5

atm_pop: Valence configuration (for local Pseudopot. screening):
 1s( 1.00)                                                            
 2p( 0.00)                                                            
Vna: chval, zval:    1.00000   1.00000

Vna:  Cut-off radius for the neutral-atom potential:   4.260636

atom: _________________________________________________________________________

prinput: Basis input ----------------------------------------------------------

PAO.BasisType split     

%block ChemicalSpeciesLabel
    1    8 O                       # Species index, atomic number, species label
    2    1 H                       # Species index, atomic number, species label
%endblock ChemicalSpeciesLabel

%block PAO.Basis                 # Define Basis set
O                     3  -0.242            # Label, l-shells, ionic net charge
 n=2   0   2                         # n, l, Nzeta 
   4.574      2.639   
   1.000      1.000   
 n=2   1   2                         # n, l, Nzeta 
   6.175      2.639   
   1.000      1.000   
 n=3   2   1                         # n, l, Nzeta 
   3.563   
   1.000   
H                     2   0.465            # Label, l-shells, ionic net charge
 n=1   0   2                         # n, l, Nzeta 
   4.261      1.866   
   1.000      1.000   
 n=2   1   1                         # n, l, Nzeta 
   3.576   
   1.000   
%endblock PAO.Basis

prinput: ----------------------------------------------------------------------

coor:   Atomic-coordinates input format  =     Cartesian coordinates
coor:                                          (in Angstroms)

siesta: Atomic coordinates (Bohr) and species
siesta:      0.75855   0.82662   1.45215  1        1
siesta:      0.00848  -0.00832   0.00033  2        2
siesta:      0.00894  -0.00821   2.90427  2        3

siesta: System type = molecule  

initatomlists: Number of atoms, orbitals, and projectors:      3    23    34

siesta: ******************** Simulation parameters ****************************
siesta:
siesta: The following are some of the parameters of the simulation.
siesta: A complete list of the parameters used, including default values,
siesta: can be found in file out.fdf
siesta:
redata: Spin configuration                          = none
redata: Number of spin components                   = 1
redata: Time-Reversal Symmetry                      = T
redata: Spin-spiral                                 = F
redata: Long output                                 =   F
redata: Number of Atomic Species                    =        2
redata: Charge density info will appear in .RHO file
redata: Write Mulliken Pop.                         = NO
redata: Mesh Cutoff                                 =   150.0000 Ry
redata: Net charge of the system                    =     0.0000 |e|
redata: Min. number of SCF Iter                     =        0
redata: Max. number of SCF Iter                     =       50
redata: SCF mix quantity                            = Hamiltonian
redata: Mix DM or H after convergence               =   F
redata: Recompute H after scf cycle                 =   F
redata: Mix DM in first SCF step                    =   T
redata: Write Pulay info on disk                    =   F
redata: New DM Mixing Weight                        =     0.2000
redata: New DM Occupancy tolerance                  = 0.000000000001
redata: No kicks to SCF
redata: DM Mixing Weight for Kicks                  =     0.5000
redata: Require Harris convergence for SCF          =   F
redata: Harris energy tolerance for SCF             =     0.000100 eV
redata: Require DM convergence for SCF              =   T
redata: DM tolerance for SCF                        =     0.000100
redata: Require EDM convergence for SCF             =   F
redata: EDM tolerance for SCF                       =     0.001000 eV
redata: Require H convergence for SCF               =   T
redata: Hamiltonian tolerance for SCF               =     0.001000 eV
redata: Require (free) Energy convergence for SCF   =   F
redata: (free) Energy tolerance for SCF             =     0.000100 eV
redata: Using Saved Data (generic)                  =   F
redata: Use continuation files for DM               =   F
redata: Neglect nonoverlap interactions             =   F
redata: Method of Calculation                       = Diagonalization
redata: Electronic Temperature                      =    58.0222 K
redata: Fix the spin of the system                  =   F
redata: Write Initial TDWF                          =   T
redata: Max. number of TDED Iter                    =        1
redata: Number of TDED substeps                     =        3
redata: Dynamics option                             = Single-point calculation
mix.SCF: Pulay mixing                            = Pulay
mix.SCF:    Variant                              = stable
mix.SCF:    History steps                        = 3
mix.SCF:    Linear mixing weight                 =     0.200000
mix.SCF:    Mixing weight                        =     0.200000
mix.SCF:    SVD condition                        = 0.1000E-07
redata: ***********************************************************************

%block SCF.Mixers
  Pulay
%endblock SCF.Mixers

%block SCF.Mixer.Pulay
  # Mixing method
  method pulay
  variant stable

  # Mixing options
  weight 0.2000
  weight.linear 0.2000
  history 3
%endblock SCF.Mixer.Pulay
 
DM_history_depth set to one: no extrapolation allowed by default for geometry relaxation
Size of DM history Fstack: 1
Total number of electrons:     8.000000
Total ionic charge:     8.000000
 Kpoints in:            1 . Kpoints trimmed:            1

siesta: k-grid: Number of k-points =     1
siesta: k-grid: Cutoff (effective) =     5.000 Ang
siesta: k-grid: Supercell and displacements
siesta: k-grid:    1   0   0      0.000
siesta: k-grid:    0   1   0      0.000
siesta: k-grid:    0   0   1      0.000
 
diag: Algorithm                                     = D&C
diag: Used triangular part                          = Lower
diag: Absolute tolerance                            =  0.100E-15
diag: Orthogonalization factor                      =  0.100E-05
diag: Memory factor                                 =  1.0000
 

                     ====================================
                        Single-point calculation
                     ====================================

outcell: Unit cell vectors (Ang):
       10.000000    0.000000    0.000000
        0.000000   10.000000    0.000000
        0.000000    0.000000   10.000000

outcell: Cell vector modules (Ang)   :   10.000000   10.000000   10.000000
outcell: Cell angles (23,13,12) (deg):     90.0000     90.0000     90.0000
outcell: Cell volume (Ang**3)        :   1000.0000
<dSpData1D:S at geom step 0
  <sparsity:sparsity for geom step 0
    nrows_g=23 nrows=23 sparsity=1.0000 nnzs=529, refcount: 7>
  <dData1D:(new from dSpData1D) n=529, refcount: 1>
refcount: 1>
new_DM -- step:     1
Initializing Density Matrix...
DM filled with atomic data:
<dSpData2D:DM initialized from atoms
  <sparsity:sparsity for geom step 0
    nrows_g=23 nrows=23 sparsity=1.0000 nnzs=529, refcount: 8>
  <dData2D:DM n=529 m=1, refcount: 1>
refcount: 1>
 
No. of atoms with KB's overlaping orbs in proc 0. Max # of overlaps:       3      23
New grid distribution:   1
           1       1:   40    1:   40    1:   40

InitMesh: MESH =    80 x    80 x    80 =      512000
InitMesh: (bp) =    40 x    40 x    40 =       64000
InitMesh: Mesh cutoff (required, used) =   150.000   176.881 Ry
ExtMesh (bp) on 0 =    96 x    96 x    96 =      884736
PhiOnMesh: Number of (b)points on node 0 =                64000
PhiOnMesh: nlist on node 0 =                68918

efield: External electric field =    0.200000   -0.200000    0.000000 eV/Ang/e

stepf: Fermi-Dirac step function

siesta: Program's energy decomposition (eV):
siesta: Ebs     =       -32.425738
siesta: Eions   =       815.854479
siesta: Ena     =       197.058219
siesta: Ekin    =       426.373543
siesta: Enl     =       -82.006946
siesta: Eso     =         0.000000
siesta: Eldau   =         0.000000
siesta: DEna    =       -76.010089
siesta: DUscf   =        15.987351
siesta: DUext   =        -0.014441
siesta: Exc     =      -124.576893
siesta: eta*DQ  =         0.000000
siesta: Emadel  =         0.000000
siesta: Emeta   =         0.000000
siesta: Emolmec =         0.000000
siesta: Ekinion =         0.000000
siesta: Eharris =      -444.535234
siesta: Etot    =      -459.043734
siesta: FreeEng =      -459.043734

        iscf     Eharris(eV)        E_KS(eV)     FreeEng(eV)     dDmax    Ef(eV) dHmax(eV)
   scf:    1     -444.535234     -459.043734     -459.043734  0.919684 -5.613835 19.876018
timer: Routine,Calls,Time,% = IterSCF        1       0.159  12.16
   scf:    2     -469.377952     -464.778892     -464.778892  0.275691 -2.993631 10.049696
   scf:    3     -467.348847     -466.821488     -466.821488  0.345641 -0.430278  0.974393
   scf:    4     -466.509780     -466.732087     -466.732087  0.130934 -1.203744  2.374797
   scf:    5     -466.878276     -466.843752     -466.843752  0.081071 -0.641382  0.089095
   scf:    6     -466.844182     -466.843996     -466.843996  0.003217 -0.647861  0.062849
   scf:    7     -466.844247     -466.844129     -466.844129  0.008632 -0.623545  0.003923
   scf:    8     -466.844129     -466.844129     -466.844129  0.000064 -0.623765  0.003025
   scf:    9     -466.844130     -466.844129     -466.844129  0.000070 -0.623536  0.001742
   scf:   10     -466.844130     -466.844129     -466.844129  0.000103 -0.623255  0.000976
   scf:   11     -466.844129     -466.844129     -466.844129  0.000032 -0.623302  0.000892

SCF Convergence by DM+H criterion
max |DM_out - DM_in|         :     0.0000319137
max |H_out - H_in|      (eV) :     0.0008918632
SCF cycle converged after 11 iterations

initwf: No. of electrons corresponding occupied states =            8.000000
initwf: (Total charge - charge in selected states)     =           -0.000000
initwf: Saving wavefunctions in <systemlabel>.TDWF file.

Using DM_out to compute the final energy and forces
No. of atoms with KB's overlaping orbs in proc 0. Max # of overlaps:       3      23

siesta: E_KS(eV) =             -466.8441

siesta: E_KS - E_eggbox =      -466.8441

siesta: Atomic forces (eV/Ang):
----------------------------------------
   Tot   -0.033226   -0.014015   -0.013070
----------------------------------------
   Max    0.229946
   Res    0.100564    sqrt( Sum f_i^2 / 3N )
----------------------------------------
   Max    0.229946    constrained

Stress-tensor-Voigt (kbar):        0.06        0.09        0.16        0.03       -0.00       -0.00
(Free)E + p*V (eV/cell)     -466.9082
Target enthalpy (eV/cell)     -466.8441

siesta: Program's energy decomposition (eV):
siesta: Ebs     =      -108.541070
siesta: Eions   =       815.854479
siesta: Ena     =       197.058219
siesta: Ekin    =       348.909163
siesta: Enl     =       -62.657285
siesta: Eso     =         0.000000
siesta: Eldau   =         0.000000
siesta: DEna    =       -25.146904
siesta: DUscf   =         2.875061
siesta: DUext   =        -0.009954
siesta: Exc     =      -112.017951
siesta: eta*DQ  =         0.000000
siesta: Emadel  =         0.000000
siesta: Emeta   =         0.000000
siesta: Emolmec =         0.000000
siesta: Ekinion =         0.000000
siesta: Eharris =      -466.844129
siesta: Etot    =      -466.844129
siesta: FreeEng =      -466.844129

siesta: Final energy (eV):
siesta:  Band Struct. =    -108.541070
siesta:       Kinetic =     348.909163
siesta:       Hartree =     451.225140
siesta:       Eldau   =       0.000000
siesta:       Eso     =       0.000000
siesta:    Ext. field =      -0.009954
siesta:   Exch.-corr. =    -112.017951
siesta:  Ion-electron =   -1213.085683
siesta:       Ion-ion =      58.135155
siesta:       Ekinion =       0.000000
siesta:         Total =    -466.844129
siesta:         Fermi =      -0.623302

siesta: Atomic forces (eV/Ang):
siesta:      1   -0.229946    0.081079   -0.011618
siesta:      2    0.098667   -0.048118    0.060760
siesta:      3    0.098053   -0.046975   -0.062211
siesta: ----------------------------------------
siesta:    Tot   -0.033226   -0.014015   -0.013070

siesta: Stress tensor (static) (eV/Ang**3):
siesta:     0.000037    0.000017   -0.000000
siesta:     0.000017    0.000057   -0.000001
siesta:    -0.000000   -0.000001    0.000098

siesta: Cell volume =       1000.000000 Ang**3

siesta: Pressure (static):
siesta:                Solid            Molecule  Units
siesta:          -0.00000070         -0.00000018  Ry/Bohr**3
siesta:          -0.00006410         -0.00001629  eV/Ang**3
siesta:          -0.10270491         -0.02609501  kBar
(Free)E+ p_basis*V_orbitals  =        -466.323204
(Free)Eharris+ p_basis*V_orbitals  =        -466.323204

siesta: Electric dipole (a.u.)  =   -0.538656   -0.632703    0.000129
siesta: Electric dipole (Debye) =   -1.369127   -1.608171    0.000328

timer: Elapsed wall time (sec) =       2.378
timer: CPU execution times (sec):

Routine            Calls   Time/call    Tot.time        %
siesta                 1       2.277       2.277   100.00
Setup                  1       0.148       0.148     6.49
bands                  1       0.000       0.000     0.00
KSV_init               1       0.000       0.000     0.00
IterGeom               1       2.128       2.128    93.45
state_init             1       0.172       0.172     7.54
hsparse                1       0.000       0.000     0.00
overlap                1       0.171       0.171     7.50
Setup_H0               1       0.826       0.826    36.28
naefs                  2       0.000       0.001     0.04
MolMec                 2       0.000       0.000     0.00
kinefsm                2       0.082       0.164     7.22
nlefsm                 2       0.253       0.506    22.20
DHSCF_Init             1       0.157       0.157     6.88
DHSCF1                 1       0.023       0.023     1.00
INITMESH               1       0.000       0.000     0.00
DHSCF2                 1       0.134       0.134     5.88
REMESH                 1       0.011       0.011     0.49
REORD                 34       0.001       0.028     1.22
PHION                  1       0.060       0.060     2.64
COMM_BSC              29       0.001       0.024     1.04
POISON                14       0.039       0.543    23.86
fft                   28       0.016       0.443    19.45
IterSCF               11       0.086       0.950    41.72
setup_H               12       0.079       0.943    41.40
DHSCF                 13       0.086       1.120    49.17
DHSCF3                13       0.079       1.022    44.85
rhoofd                13       0.007       0.095     4.16
CellXC                13       0.016       0.209     9.17
cellXC                13       0.016       0.209     9.17
vmat                  13       0.005       0.063     2.76
compute_dm            11       0.000       0.003     0.15
diagon                11       0.000       0.003     0.13
r-eigvec              11       0.000       0.003     0.12
r-buildHS             11       0.000       0.000     0.01
rdiag                 12       0.000       0.003     0.11
rdiag1                12       0.000       0.000     0.01
rdiag2                12       0.000       0.000     0.01
rdiag3                12       0.000       0.002     0.08
rdiag4                12       0.000       0.000     0.00
r-buildD              11       0.000       0.000     0.01
MIXER                 10       0.000       0.000     0.01
initwf                 1       0.001       0.001     0.03
PostSCF                1       0.179       0.179     7.85
DHSCF4                 1       0.098       0.098     4.32
dfscf                  1       0.077       0.077     3.40
overfsm                1       0.000       0.000     0.01
state_analysis         1       0.001       0.001     0.02
siesta_move            1       0.000       0.000     0.00
Analysis               1       0.001       0.001     0.05
optical                1       0.000       0.000     0.00
  
>> End of run:   4-OCT-2017   5:02:37
Job completed
