
                           ***********************       
                           *  WELCOME TO SIESTA  *       
                           ***********************       

reinit: Reading from standard input
reinit: Dumped input in INPUT_TMP.95817
************************** Dump of input data file ****************************
SystemName TDDFT_h2o
SystemLabel TDDFT_h2o
################################################################
xc.functional GGA
xc.authors PBE
Atom.Ignore.Ghosts
MeshCutoff 150.0 Ry
SolutionMethod diagon
ElectronicTemperature 5 meV
DM.MixingWeight 0.2
DM.NumberPulay 3
################################################################
MD.TypeOfRun         TDED
MD.FinalTimeStep 1
MD.LengthTimeStep   5.00000000E-03 fs
TDED.Nsteps 5
###############################################################
NumberOfAtoms 3
NumberOfSpecies 2
%block ChemicalSpeciesLabel
1 8 O
2 1 H
%endblock ChemicalSpeciesLabel
%Block PAO.Basis
O    3     -0.24233
n=2   0   2   E    23.36061     3.39721
     4.50769     2.64066
     1.00000     1.00000
n=2   1   2   E     2.78334     5.14253
     6.14996     2.59356
     1.00000     1.00000
n=3   2   1   E    63.98188     0.16104
     3.54403
     1.00000
H    2      0.46527
n=1   0   2   E    99.93138     2.59932
     4.20357     1.84463
     1.00000     1.00000
n=2   1   1   E    24.56504     2.20231
     3.52816
     1.00000
%EndBlock PAO.Basis
LatticeConstant 10.0 Ang
%block LatticeVectors
1.0 0.0 0.0
0.0 1.0 0.0
0.0 0.0 1.0
%endblock LatticeVectors
AtomicCoordinatesFormat NotScaledCartesianAng
%block AtomicCoordinatesAndAtomicSpecies
0.401406    0.437428    0.768445 1
0.004485   -0.004402    0.000174 2
0.004730   -0.004345    1.536873 2
%endblock AtomicCoordinatesAndAtomicSpecies
************************** End of input data file *****************************

reinit: -----------------------------------------------------------------------
reinit: System Name: TDDFT_h2o
reinit: -----------------------------------------------------------------------
reinit: System Label: TDDFT_h2o
reinit: -----------------------------------------------------------------------
Siesta Version: trunk-611-tddft02-15
Architecture  : x86_64-unknown-linux-gnu--Gfortran
Compiler flags: /usr/local/bin/mpif90 -O2
PP flags      : -DMPI -DFC_HAVE_FLUSH -DFC_HAVE_ABORT
Libraries     : /software/scalapack-2.0.2_gfortran/lib/libscalapack.a /software/scalapack-2.00.2_gfortran/lib/libscalapack.a /software/lapack-3.6.1_gfortran/lib/liblapack.a /software/BLAS-3.6.0_gfortran/lib/blas_LINUX.a
PARALLEL version

* Running in serial mode with MPI
>> Start of run:  18-MAY-2017  15:04:12

initatom: Reading input for the pseudopotentials and atomic orbitals ----------
Species number:   1 Atomic number:    8 Label: O
Species number:   2 Atomic number:    1 Label: H

Ground state valence configuration:   2s02  2p04
Reading pseudopotential information in formatted form from O.psf

Valence configuration for pseudopotential generation:
2s( 2.00) rc: 1.14
2p( 4.00) rc: 1.14
3d( 0.00) rc: 1.14
4f( 0.00) rc: 1.14
Ground state valence configuration:   1s01
Reading pseudopotential information in formatted form from H.psf

Valence configuration for pseudopotential generation:
1s( 1.00) rc: 1.25
2p( 0.00) rc: 1.25
3d( 0.00) rc: 1.25
4f( 0.00) rc: 1.25
For O, standard SIESTA heuristics set lmxkb to 3
 (one more than the basis l, including polarization orbitals).
Use PS.lmax or PS.KBprojectors blocks to override.
For H, standard SIESTA heuristics set lmxkb to 2
 (one more than the basis l, including polarization orbitals).
Use PS.lmax or PS.KBprojectors blocks to override.

<basis_specs>
===============================================================================
O                    Z=   8    Mass=  16.000        Charge=-0.24233    
Lmxo=2 Lmxkb= 3    BasisType=split      Semic=F
L=0  Nsemic=0  Cnfigmx=2
          n=1  nzeta=2  polorb=0
            splnorm:   0.15000    
               vcte:    23.361    
               rinn:    3.3972    
               qcoe:    0.0000    
               qyuk:    0.0000    
               qwid:   0.10000E-01
                rcs:    4.5077      2.6407    
            lambdas:    1.0000      1.0000    
L=1  Nsemic=0  Cnfigmx=2
          n=1  nzeta=2  polorb=0
            splnorm:   0.15000    
               vcte:    2.7833    
               rinn:    5.1425    
               qcoe:    0.0000    
               qyuk:    0.0000    
               qwid:   0.10000E-01
                rcs:    6.1500      2.5936    
            lambdas:    1.0000      1.0000    
L=2  Nsemic=0  Cnfigmx=3
          n=1  nzeta=1  polorb=0
            splnorm:   0.15000    
               vcte:    63.982    
               rinn:   0.16104    
               qcoe:    0.0000    
               qyuk:    0.0000    
               qwid:   0.10000E-01
                rcs:    3.5440    
            lambdas:    1.0000    
-------------------------------------------------------------------------------
L=0  Nkbl=1  erefs: 0.17977+309
L=1  Nkbl=1  erefs: 0.17977+309
L=2  Nkbl=1  erefs: 0.17977+309
L=3  Nkbl=1  erefs: 0.17977+309
===============================================================================
</basis_specs>

atom: Called for O                     (Z =   8)

read_vps: Pseudopotential generation method:
read_vps: ATM3      Troullier-Martins                       
Total valence charge:    6.00000

xc_check: Exchange-correlation functional:
xc_check: GGA Perdew, Burke & Ernzerhof 1996
xc_check: WARNING: Pseudopotential generated with LDA CA functional
V l=0 = -2*Zval/r beyond r=  1.1278
V l=1 = -2*Zval/r beyond r=  1.1278
V l=2 = -2*Zval/r beyond r=  1.1278
V l=3 = -2*Zval/r beyond r=  1.1138
All V_l potentials equal beyond r=  1.1278
This should be close to max(r_c) in ps generation
All pots = -2*Zval/r beyond r=  1.1278

VLOCAL1: 99.0% of the norm of Vloc inside     34.126 Ry
VLOCAL1: 99.9% of the norm of Vloc inside     77.774 Ry
atom: Maximum radius for 4*pi*r*r*local-pseudopot. charge    1.37759
atom: Maximum radius for r*vlocal+2*Zval:    1.18566
GHOST: No ghost state for L =  0
GHOST: No ghost state for L =  1
GHOST: No ghost state for L =  2
GHOST: No ghost state for L =  3

KBgen: Kleinman-Bylander projectors: 
   l= 0   rc=  1.294105   el= -1.764717   Ekb=  9.120606   kbcos=  0.329038
   l= 1   rc=  1.294105   el= -0.698441   Ekb= -8.119783   kbcos= -0.400859
   l= 2   rc=  1.448233   el=  0.002031   Ekb= -2.039067   kbcos= -0.003490
   l= 3   rc=  1.561052   el=  0.003153   Ekb= -0.799361   kbcos= -0.000345

KBgen: Total number of  Kleinman-Bylander projectors:   16
atom: -------------------------------------------------------------------------

atom: SANKEY-TYPE ORBITALS:
atom: Selected multiple-zeta basis: split     

atom: basis set generated (by rescaling the valence charge)
atom: for an anion of charge  -0.2423

SPLIT: Orbitals with angular momentum L= 0

SPLIT: Basis orbitals for state 2s

   izeta = 1
                 lambda =    1.000000
                     rc =    4.574469
                 energy =   -1.761757
                kinetic =    1.493608
    potential(screened) =   -3.255365
       potential(ionic) =  -11.068524

   izeta = 2
                 rmatch =    2.639108
              splitnorm =    0.146386
                 energy =   -1.557532
                kinetic =    2.331275
    potential(screened) =   -3.888807
       potential(ionic) =  -12.342285

SPLIT: Orbitals with angular momentum L= 1

SPLIT: Basis orbitals for state 2p

   izeta = 1
                 lambda =    1.000000
                     rc =    6.174996
                 energy =   -0.692030
                kinetic =    4.435302
    potential(screened) =   -5.127332
       potential(ionic) =  -12.547375

   izeta = 2
                 rmatch =    2.639108
              splitnorm =    0.202025
                 energy =   -0.455967
                kinetic =    7.214573
    potential(screened) =   -7.670539
       potential(ionic) =  -16.265562

SPLIT: Orbitals with angular momentum L= 2

SPLIT: Basis orbitals for state 3d

   izeta = 1
                 lambda =    1.000000
                     rc =    3.562532
                 energy =    3.652279
                kinetic =    6.499560
    potential(screened) =   -2.847281
       potential(ionic) =  -10.016478
atom: Total number of Sankey-type orbitals: 13

atm_pop: Valence configuration (for local Pseudopot. screening):
 2s( 2.00)                                                            
 2p( 4.00)                                                            
 3d( 0.00)                                                            
Vna: chval, zval:    6.00000   6.00000

Vna:  Cut-off radius for the neutral-atom potential:   6.174996

atom: _________________________________________________________________________

<basis_specs>
===============================================================================
H                    Z=   1    Mass=  1.0100        Charge= 0.46527    
Lmxo=1 Lmxkb= 2    BasisType=split      Semic=F
L=0  Nsemic=0  Cnfigmx=1
          n=1  nzeta=2  polorb=0
            splnorm:   0.15000    
               vcte:    99.931    
               rinn:    2.5993    
               qcoe:    0.0000    
               qyuk:    0.0000    
               qwid:   0.10000E-01
                rcs:    4.2036      1.8446    
            lambdas:    1.0000      1.0000    
L=1  Nsemic=0  Cnfigmx=2
          n=1  nzeta=1  polorb=0
            splnorm:   0.15000    
               vcte:    24.565    
               rinn:    2.2023    
               qcoe:    0.0000    
               qyuk:    0.0000    
               qwid:   0.10000E-01
                rcs:    3.5282    
            lambdas:    1.0000    
-------------------------------------------------------------------------------
L=0  Nkbl=1  erefs: 0.17977+309
L=1  Nkbl=1  erefs: 0.17977+309
L=2  Nkbl=1  erefs: 0.17977+309
===============================================================================
</basis_specs>

atom: Called for H                     (Z =   1)

read_vps: Pseudopotential generation method:
read_vps: ATM3      Troullier-Martins                       
Total valence charge:    1.00000

xc_check: Exchange-correlation functional:
xc_check: GGA Perdew, Burke & Ernzerhof 1996
xc_check: WARNING: Pseudopotential generated with LDA CA functional
V l=0 = -2*Zval/r beyond r=  1.2343
V l=1 = -2*Zval/r beyond r=  1.2189
V l=2 = -2*Zval/r beyond r=  1.2189
All V_l potentials equal beyond r=  1.2343
This should be close to max(r_c) in ps generation
All pots = -2*Zval/r beyond r=  1.2343

VLOCAL1: 99.0% of the norm of Vloc inside     28.493 Ry
VLOCAL1: 99.9% of the norm of Vloc inside     64.935 Ry
atom: Maximum radius for 4*pi*r*r*local-pseudopot. charge    1.45251
atom: Maximum radius for r*vlocal+2*Zval:    1.21892
GHOST: No ghost state for L =  0
GHOST: No ghost state for L =  1
GHOST: No ghost state for L =  2

KBgen: Kleinman-Bylander projectors: 
   l= 0   rc=  1.364359   el= -0.488086   Ekb= -2.002077   kbcos= -0.347561
   l= 1   rc=  1.434438   el=  0.001075   Ekb= -0.501617   kbcos= -0.021754
   l= 2   rc=  1.470814   el=  0.002010   Ekb= -0.190607   kbcos= -0.002284

KBgen: Total number of  Kleinman-Bylander projectors:    9
atom: -------------------------------------------------------------------------

atom: SANKEY-TYPE ORBITALS:
atom: Selected multiple-zeta basis: split     

atom: basis set generated (by rescaling the valence charge)
atom: for a cation of charge   0.4653

SPLIT: Orbitals with angular momentum L= 0

SPLIT: Basis orbitals for state 1s

   izeta = 1
                 lambda =    1.000000
                     rc =    4.260636
                 energy =   -0.875320
                kinetic =    1.357215
    potential(screened) =   -2.232536
       potential(ionic) =   -2.287165

   izeta = 2
                 rmatch =    1.865767
              splitnorm =    0.576232
                 energy =    0.481660
                kinetic =    4.349015
    potential(screened) =   -3.867355
       potential(ionic) =   -3.832494

SPLIT: Orbitals with angular momentum L= 1

SPLIT: Basis orbitals for state 2p

   izeta = 1
                 lambda =    1.000000
                     rc =    3.576223
                 energy =    0.823141
                kinetic =    2.007026
    potential(screened) =   -1.183885
       potential(ionic) =   -1.299268
atom: Total number of Sankey-type orbitals:  5

atm_pop: Valence configuration (for local Pseudopot. screening):
 1s( 1.00)                                                            
 2p( 0.00)                                                            
Vna: chval, zval:    1.00000   1.00000

Vna:  Cut-off radius for the neutral-atom potential:   4.260636

atom: _________________________________________________________________________

prinput: Basis input ----------------------------------------------------------

PAO.BasisType split     

%block ChemicalSpeciesLabel
    1    8 O                       # Species index, atomic number, species label
    2    1 H                       # Species index, atomic number, species label
%endblock ChemicalSpeciesLabel

%block PAO.Basis                 # Define Basis set
O                     3  -0.242            # Label, l-shells, ionic net charge
 n=2   0   2                         # n, l, Nzeta 
   4.574      2.639   
   1.000      1.000   
 n=2   1   2                         # n, l, Nzeta 
   6.175      2.639   
   1.000      1.000   
 n=3   2   1                         # n, l, Nzeta 
   3.563   
   1.000   
H                     2   0.465            # Label, l-shells, ionic net charge
 n=1   0   2                         # n, l, Nzeta 
   4.261      1.866   
   1.000      1.000   
 n=2   1   1                         # n, l, Nzeta 
   3.576   
   1.000   
%endblock PAO.Basis

prinput: ----------------------------------------------------------------------

coor:   Atomic-coordinates input format  =     Cartesian coordinates
coor:                                          (in Angstroms)

siesta: Atomic coordinates (Bohr) and species
siesta:      0.75855   0.82662   1.45215  1        1
siesta:      0.00848  -0.00832   0.00033  2        2
siesta:      0.00894  -0.00821   2.90427  2        3

siesta: System type = molecule  

initatomlists: Number of atoms, orbitals, and projectors:      3    23    34

siesta: ******************** Simulation parameters ****************************
siesta:
siesta: The following are some of the parameters of the simulation.
siesta: A complete list of the parameters used, including default values,
siesta: can be found in file out.fdf
siesta:
redata: Spin configuration                          = none
redata: Number of spin components                   = 1
redata: Time-Reversal Symmetry                      = T
redata: Spin-spiral                                 = F
redata: Long output                                 =   F
redata: Number of Atomic Species                    =        2
redata: Charge density info will appear in .RHO file
redata: Write Mulliken Pop.                         = NO
redata: Mesh Cutoff                                 =   150.0000 Ry
redata: Net charge of the system                    =     0.0000 |e|
redata: Min. number of SCF Iter                     =        0
redata: Max. number of SCF Iter                     =       50
redata: SCF mix quantity                            = Hamiltonian
redata: Mix DM or H after convergence               =   F
redata: Recompute H after scf cycle                 =   F
redata: Mix DM in first SCF step                    =   T
redata: Write Pulay info on disk                    =   F
redata: New DM Mixing Weight                        =     0.2000
redata: New DM Occupancy tolerance                  = 0.000000000001
redata: No kicks to SCF
redata: DM Mixing Weight for Kicks                  =     0.5000
redata: Require Harris convergence for SCF          =   F
redata: Harris energy tolerance for SCF             =     0.000100 eV
redata: Require DM convergence for SCF              =   T
redata: DM tolerance for SCF                        =     0.0001
redata: Require EDM convergence for SCF             =   F
redata: EDM tolerance for SCF                       =     0.001000 eV
redata: Require H convergence for SCF               =   T
redata: Hamiltonian tolerance for SCF               =     0.001000 eV
redata: Require (free) Energy convergence for SCF   =   F
redata: (free) Energy tolerance for SCF             =     0.000100 eV
redata: Using Saved Data (generic)                  =   F
redata: Use continuation files for DM               =   F
redata: Neglect nonoverlap interactions             =   F
redata: Method of Calculation                       = Diagonalization
redata: Divide and Conquer                          =   T
redata: Electronic Temperature                      =    58.0222 K
redata: Fix the spin of the system                  =   F
redata: Max. number of TDED Iter                    =        5
redata: Number of TDED substeps                     =        3
redata: Write .TDWF after time steps                =      100
redata: Dynamics option                             = Verlet MD run
redata: Initial MD time step                        =        1
redata:   Final MD time step                        =        1
redata: Length of MD time step                      =     0.0050 fs
redata: Initial Temperature of MD run               =     0.0000 K
redata: Perform a MD quench                         =   F
mix.SCF: Pulay mixing                            = Pulay
mix.SCF:    Variant                              = stable
mix.SCF:    History steps                        = 3
mix.SCF:    Linear mixing weight                 =     0.200000
mix.SCF:    Mixing weight                        =     0.200000
mix.SCF:    SVD condition                        = 0.1000E-07
redata: ***********************************************************************

%block SCF.Mixers
  Pulay
%endblock SCF.Mixers

%block SCF.Mixer.Pulay
  # Mixing method
  method pulay
  variant stable

  # Mixing options
  weight 0.2000
  weight.linear 0.2000
  history 3
%endblock SCF.Mixer.Pulay

Size of DM history Fstack: 1
Total number of electrons:     8.000000
Total ionic charge:     8.000000

* ProcessorY, Blocksize:    1  24


* Orbital distribution balance (max,min):    23    23

 Kpoints in:            1 . Kpoints trimmed:            1

siesta: k-grid: Number of k-points =     1
siesta: k-grid: Cutoff (effective) =     5.000 Ang
siesta: k-grid: Supercell and displacements
siesta: k-grid:    1   0   0      0.000
siesta: k-grid:    0   1   0      0.000
siesta: k-grid:    0   0   1      0.000


                     ====================================
                        Begin MD step =      1
                     ====================================

outcell: Unit cell vectors (Ang):
       10.000000    0.000000    0.000000
        0.000000   10.000000    0.000000
        0.000000    0.000000   10.000000

outcell: Cell vector modules (Ang)   :   10.000000   10.000000   10.000000
outcell: Cell angles (23,13,12) (deg):     90.0000     90.0000     90.0000
outcell: Cell volume (Ang**3)        :   1000.0000
<dSpData1D:S at geom step 1
  <sparsity:sparsity for geom step 1
    nrows_g=23 nrows=23 sparsity=1.0000 nnzs=529, refcount: 7>
  <dData1D:(new from dSpData1D) n=529, refcount: 1>
refcount: 1>
new_DM -- step:     1
Initializing Density Matrix...
DM filled with atomic data:
<dSpData2D:DM initialized from atoms
  <sparsity:sparsity for geom step 1
    nrows_g=23 nrows=23 sparsity=1.0000 nnzs=529, refcount: 8>
  <dData2D:DM n=529 m=1, refcount: 1>
refcount: 1>

No. of atoms with KB's overlaping orbs in proc 0. Max # of overlaps:       3      23
New grid distribution:   1
           1       1:   40    1:   40    1:   40

InitMesh: MESH =    80 x    80 x    80 =      512000
InitMesh: (bp) =    40 x    40 x    40 =       64000
InitMesh: Mesh cutoff (required, used) =   150.000   176.881 Ry
ExtMesh (bp) on 0 =    96 x    96 x    96 =      884736
PhiOnMesh: Number of (b)points on node 0 =                64000
PhiOnMesh: nlist on node 0 =                68918

iowavef: reading initial KS wavefunctions from file
Computing DM from initial KS wavefunctions

                     ************************       
                  TDED Step    =           1
                     ************************       
 cn_evolg: TDED time step (fs)      =    1.0000000000000000E-003

cn_evolg: Computing DM after evolving TDKS wavefunctions

                     ************************       
                  TDED Step    =           2
                     ************************       

siesta: E_KS(eV) =             -469.4529

cn_evolg: Computing DM after evolving TDKS wavefunctions

                     ************************       
                  TDED Step    =           3
                     ************************       

siesta: E_KS(eV) =             -469.4529

cn_evolg: Computing DM after evolving TDKS wavefunctions

                     ************************       
                  TDED Step    =           4
                     ************************       

siesta: E_KS(eV) =             -469.4529

cn_evolg: Computing DM after evolving TDKS wavefunctions

                     ************************       
                  TDED Step    =           5
                     ************************       

siesta: E_KS(eV) =             -469.4529

cn_evolg: Computing DM after evolving TDKS wavefunctions
No. of atoms with KB's overlaping orbs in proc 0. Max # of overlaps:       3      23

siesta: E_KS(eV) =             -469.4529

siesta: E_KS - E_eggbox =      -469.4529

siesta: Atomic forces (eV/Ang):
----------------------------------------
   Tot    0.000528    0.052598    0.016650
----------------------------------------
   Max   13.486300
   Res    9.235853    sqrt( Sum f_i^2 / 3N )
----------------------------------------
   Max   13.486300    constrained

Stress-tensor-Voigt (kbar):        8.07        9.68       27.88        8.60       -0.00        0.00
(Free)E + p*V (eV/cell)     -478.9465
Target enthalpy (eV/cell)     -469.4529

siesta: Stress tensor (static) (eV/Ang**3):
         0.005035    0.005560    0.000001
         0.005367    0.006043   -0.000001
         0.000000   -0.000003    0.017403

siesta: Pressure (static):        -15.21059667  kBar

siesta: Stress tensor (total) (eV/Ang**3):
         0.005035    0.005560    0.000001
         0.005367    0.006043   -0.000001
         0.000000   -0.000003    0.017403

siesta: Pressure (total):        -15.21059667  kBar

siesta: Temp_ion =       0.000 K

siesta: Program's energy decomposition (eV):
siesta: Ebs     =      -107.638803
siesta: Eions   =       815.854479
siesta: Ena     =       191.748167
siesta: Ekin    =       352.530656
siesta: Enl     =       -63.675546
siesta: Eso     =         0.000000
siesta: Eldau   =         0.000000
siesta: DEna    =         0.008735
siesta: DUscf   =         2.532234
siesta: DUext   =         0.000000
siesta: Exc     =      -115.247201
siesta: eta*DQ  =         0.000000
siesta: Emadel  =         0.000000
siesta: Emeta   =         0.000000
siesta: Emolmec =         0.000000
siesta: Ekinion =         0.000000
siesta: Eharris =      -577.091712
siesta: Etot    =      -469.452909
siesta: FreeEng =      -469.452909

siesta: Final energy (eV):
siesta:  Band Struct. =    -107.638803
siesta:       Kinetic =     352.530656
siesta:       Hartree =     454.145069
siesta:       Eldau   =       0.000000
siesta:       Eso     =       0.000000
siesta:    Ext. field =       0.000000
siesta:   Exch.-corr. =    -115.247201
siesta:  Ion-electron =   -1218.980422
siesta:       Ion-ion =      58.098990
siesta:       Ekinion =       0.000000
siesta:         Total =    -469.452909
siesta:         Fermi =       0.000000

siesta: Atomic forces (eV/Ang):
siesta:      1  -12.595114  -13.486300    0.021648
siesta:      2    6.300343    6.769807   11.315964
siesta:      3    6.295299    6.769091  -11.320962
siesta: ----------------------------------------
siesta:    Tot    0.000528    0.052598    0.016650

siesta: Stress tensor (static) (eV/Ang**3):
siesta:     0.005035    0.005560    0.000001
siesta:     0.005367    0.006043   -0.000001
siesta:     0.000000   -0.000003    0.017403

siesta: Cell volume =       1000.000000 Ang**3

siesta: Pressure (static):
siesta:                Solid            Molecule  Units
siesta:          -0.00010340         -0.00000045  Ry/Bohr**3
siesta:          -0.00949361         -0.00004131  eV/Ang**3
siesta:         -15.21059667         -0.06619034  kBar
(Free)E+ p_basis*V_orbitals  =        -468.931984
(Free)Eharris+ p_basis*V_orbitals  =        -576.570787

siesta: Electric dipole (a.u.)  =   -0.531333   -0.622876    0.000014
siesta: Electric dipole (Debye) =   -1.350514   -1.583195    0.000036

timer: Elapsed wall time (sec) =       5.912
timer: CPU execution times (sec):

Routine            Calls   Time/call    Tot.time        %
siesta                 1       5.908       5.908   100.00
Setup                  1       0.524       0.524     8.87
bands                  1       0.000       0.000     0.00
KSV_init               1       0.000       0.000     0.00
IterGeom               1       5.384       5.384    91.13
state_init             1       0.272       0.272     4.60
hsparse                1       0.000       0.000     0.00
overlap                1       0.272       0.272     4.60
Setup_H0               1       1.496       1.496    25.32
naefs                  2       0.000       0.000     0.00
MolMec                 2       0.000       0.000     0.00
kinefsm                2       0.122       0.244     4.13
nlefsm                 2       0.436       0.872    14.76
DHSCF_Init             1       0.384       0.384     6.50
DHSCF1                 1       0.056       0.056     0.95
INITMESH               1       0.000       0.000     0.00
DHSCF2                 1       0.328       0.328     5.55
REMESH                 1       0.024       0.024     0.41
REORD                 20       0.002       0.032     0.54
PHION                  1       0.120       0.120     2.03
COMM_BSC              15       0.002       0.024     0.41
POISON                 7       0.156       1.092    18.48
fft                   14       0.067       0.944    15.98
sankey_change_b        1       0.004       0.004     0.07
setup_H                5       0.579       2.896    49.02
DHSCF                  6       0.599       3.596    60.87
DHSCF3                 6       0.567       3.400    57.55
rhoofd                 6       0.013       0.080     1.35
CellXC                 6       0.361       2.164    36.63
cellXC                 6       0.361       2.164    36.63
vmat                   6       0.010       0.060     1.02
cn_evolg               5       0.002       0.012     0.20
DHSCF4                 1       0.196       0.196     3.32
dfscf                  1       0.144       0.144     2.44
overfsm                1       0.000       0.000     0.00
state_analysis         1       0.000       0.000     0.00
siesta_move            1       0.000       0.000     0.00
Analysis               1       0.000       0.000     0.00
optical                1       0.000       0.000     0.00
  
>> End of run:  18-MAY-2017  15:04:17
