Siesta Version: siesta-trunk-458
Architecture  : i686-apple-darwin13.4.0--Gfortran
Compiler flags: gfortran -g -O2
PP flags      : -DFC_HAVE_FLUSH -DFC_HAVE_ABORT 
SERIAL version

* Running in serial mode
>> Start of run:  18-MAR-2015  15:08:50

                           ***********************       
                           *  WELCOME TO SIESTA  *       
                           ***********************       

reinit: Reading from standard input
************************** Dump of input data file ****************************
SystemName TDDFT_h2o
SystemLabel TDDFT_h2o
################################################################
xc.functional GGA
xc.authors PBE
Atom.Ignore.Ghosts
MeshCutoff 150.0 Ry
SolutionMethod diagon
ElectronicTemperature 5 meV
DM.MixingWeight 0.2
DM.NumberPulay 3
################################################################
WriteInitialTDWF
%block ExternalElectricField
2.000  -2.000  0.000  V/Ang
%endblock ExternalElectricField
###############################################################
NumberOfAtoms 3
NumberOfSpecies 2
%block ChemicalSpeciesLabel
1 8 O
2 1 H
%endblock ChemicalSpeciesLabel
%Block PAO.Basis
O    3     -0.24233
n=2   0   2   E    23.36061     3.39721
     4.50769     2.64066
     1.00000     1.00000
n=2   1   2   E     2.78334     5.14253
     6.14996     2.59356
     1.00000     1.00000
n=3   2   1   E    63.98188     0.16104
     3.54403
     1.00000
H    2      0.46527
n=1   0   2   E    99.93138     2.59932
     4.20357     1.84463
     1.00000     1.00000
n=2   1   1   E    24.56504     2.20231
     3.52816
     1.00000
%EndBlock PAO.Basis
LatticeConstant 10.0 Ang
%block LatticeVectors
1.0 0.0 0.0
0.0 1.0 0.0
0.0 0.0 1.0
%endblock LatticeVectors
AtomicCoordinatesFormat NotScaledCartesianAng
%block AtomicCoordinatesAndAtomicSpecies
0.401406    0.437428    0.768445 1
0.004485   -0.004402    0.000174 2
0.004730   -0.004345    1.536873 2
%endblock AtomicCoordinatesAndAtomicSpecies
************************** End of input data file *****************************

reinit: -----------------------------------------------------------------------
reinit: System Name: TDDFT_h2o
reinit: -----------------------------------------------------------------------
reinit: System Label: TDDFT_h2o                                                   
reinit: -----------------------------------------------------------------------

initatom: Reading input for the pseudopotentials and atomic orbitals ----------
 Species number:            1  Label: O Atomic number:           8
 Species number:            2  Label: H Atomic number:           1
Ground state valence configuration:   2s02  2p04
Reading pseudopotential information in formatted form from O.psf

Valence configuration for pseudopotential generation:
2s( 2.00) rc: 1.14
2p( 4.00) rc: 1.14
3d( 0.00) rc: 1.14
4f( 0.00) rc: 1.14
Ground state valence configuration:   1s01
Reading pseudopotential information in formatted form from H.psf

Valence configuration for pseudopotential generation:
1s( 1.00) rc: 1.25
2p( 0.00) rc: 1.25
3d( 0.00) rc: 1.25
4f( 0.00) rc: 1.25
For O, standard SIESTA heuristics set lmxkb to 3
 (one more than the basis l, including polarization orbitals).
Use PS.lmax or PS.KBprojectors blocks to override.
For H, standard SIESTA heuristics set lmxkb to 2
 (one more than the basis l, including polarization orbitals).
Use PS.lmax or PS.KBprojectors blocks to override.

<basis_specs>
===============================================================================
O                    Z=   8    Mass=  16.000        Charge=-0.24233    
Lmxo=2 Lmxkb= 3    BasisType=split      Semic=F
L=0  Nsemic=0  Cnfigmx=2
          n=1  nzeta=2  polorb=0
            splnorm:   0.15000    
               vcte:    23.361    
               rinn:    3.3972    
               qcoe:    0.0000    
               qyuk:    0.0000    
               qwid:   0.10000E-01
                rcs:    4.5077      2.6407    
            lambdas:    1.0000      1.0000    
L=1  Nsemic=0  Cnfigmx=2
          n=1  nzeta=2  polorb=0
            splnorm:   0.15000    
               vcte:    2.7833    
               rinn:    5.1425    
               qcoe:    0.0000    
               qyuk:    0.0000    
               qwid:   0.10000E-01
                rcs:    6.1500      2.5936    
            lambdas:    1.0000      1.0000    
L=2  Nsemic=0  Cnfigmx=3
          n=1  nzeta=1  polorb=0
            splnorm:   0.15000    
               vcte:    63.982    
               rinn:   0.16104    
               qcoe:    0.0000    
               qyuk:    0.0000    
               qwid:   0.10000E-01
                rcs:    3.5440    
            lambdas:    1.0000    
-------------------------------------------------------------------------------
L=0  Nkbl=1  erefs: 0.17977+309
L=1  Nkbl=1  erefs: 0.17977+309
L=2  Nkbl=1  erefs: 0.17977+309
L=3  Nkbl=1  erefs: 0.17977+309
===============================================================================
</basis_specs>

atom: Called for O                     (Z =   8)

read_vps: Pseudopotential generation method:
read_vps: ATM3      Troullier-Martins                       
Total valence charge:    6.00000

xc_check: Exchange-correlation functional:
xc_check: GGA Perdew, Burke & Ernzerhof 1996
xc_check: WARNING: Pseudopotential generated with Ceperley-Alder functional
V l=0 = -2*Zval/r beyond r=  1.1278
V l=1 = -2*Zval/r beyond r=  1.1278
V l=2 = -2*Zval/r beyond r=  1.1278
V l=3 = -2*Zval/r beyond r=  1.1138
All V_l potentials equal beyond r=  1.1278
This should be close to max(r_c) in ps generation
All pots = -2*Zval/r beyond r=  1.1278

VLOCAL1: 99.0% of the norm of Vloc inside     34.126 Ry
VLOCAL1: 99.9% of the norm of Vloc inside     77.774 Ry
atom: Maximum radius for 4*pi*r*r*local-pseudopot. charge    1.37759
atom: Maximum radius for r*vlocal+2*Zval:    1.18566
GHOST: No ghost state for L =  0
GHOST: No ghost state for L =  1
GHOST: No ghost state for L =  2
GHOST: No ghost state for L =  3

KBgen: Kleinman-Bylander projectors: 
   l= 0   rc=  1.294105   el= -1.764717   Ekb=  9.120606   kbcos=  0.329038
   l= 1   rc=  1.294105   el= -0.698441   Ekb= -8.119783   kbcos= -0.400859
   l= 2   rc=  1.448233   el=  0.002031   Ekb= -2.039067   kbcos= -0.003490
   l= 3   rc=  1.561052   el=  0.003153   Ekb= -0.799361   kbcos= -0.000345

KBgen: Total number of  Kleinman-Bylander projectors:   16
atom: -------------------------------------------------------------------------

atom: SANKEY-TYPE ORBITALS:
atom: Selected multiple-zeta basis: split     

atom: basis set generated (by rescaling the valence charge)
atom: for an anion of charge  -0.2423

SPLIT: Orbitals with angular momentum L= 0

SPLIT: Basis orbitals for state 2s

   izeta = 1
                 lambda =    1.000000
                     rc =    4.574469
                 energy =   -1.761757
                kinetic =    1.493608
    potential(screened) =   -3.255365
       potential(ionic) =  -11.068524

   izeta = 2
                 rmatch =    2.639108
              splitnorm =    0.146386
                 energy =   -1.557532
                kinetic =    2.331275
    potential(screened) =   -3.888807
       potential(ionic) =  -12.342285

SPLIT: Orbitals with angular momentum L= 1

SPLIT: Basis orbitals for state 2p

   izeta = 1
                 lambda =    1.000000
                     rc =    6.174996
                 energy =   -0.692030
                kinetic =    4.435302
    potential(screened) =   -5.127332
       potential(ionic) =  -12.547375

   izeta = 2
                 rmatch =    2.639108
              splitnorm =    0.202025
                 energy =   -0.455967
                kinetic =    7.214573
    potential(screened) =   -7.670539
       potential(ionic) =  -16.265562

SPLIT: Orbitals with angular momentum L= 2

SPLIT: Basis orbitals for state 3d

   izeta = 1
                 lambda =    1.000000
                     rc =    3.562532
                 energy =    3.652279
                kinetic =    6.499560
    potential(screened) =   -2.847281
       potential(ionic) =  -10.016478
atom: Total number of Sankey-type orbitals: 13

atm_pop: Valence configuration (for local Pseudopot. screening):
 2s( 2.00)                                                            
 2p( 4.00)                                                            
 3d( 0.00)                                                            
Vna: chval, zval:    6.00000   6.00000

Vna:  Cut-off radius for the neutral-atom potential:   6.174996

atom: _________________________________________________________________________

<basis_specs>
===============================================================================
H                    Z=   1    Mass=  1.0100        Charge= 0.46527    
Lmxo=1 Lmxkb= 2    BasisType=split      Semic=F
L=0  Nsemic=0  Cnfigmx=1
          n=1  nzeta=2  polorb=0
            splnorm:   0.15000    
               vcte:    99.931    
               rinn:    2.5993    
               qcoe:    0.0000    
               qyuk:    0.0000    
               qwid:   0.10000E-01
                rcs:    4.2036      1.8446    
            lambdas:    1.0000      1.0000    
L=1  Nsemic=0  Cnfigmx=2
          n=1  nzeta=1  polorb=0
            splnorm:   0.15000    
               vcte:    24.565    
               rinn:    2.2023    
               qcoe:    0.0000    
               qyuk:    0.0000    
               qwid:   0.10000E-01
                rcs:    3.5282    
            lambdas:    1.0000    
-------------------------------------------------------------------------------
L=0  Nkbl=1  erefs: 0.17977+309
L=1  Nkbl=1  erefs: 0.17977+309
L=2  Nkbl=1  erefs: 0.17977+309
===============================================================================
</basis_specs>

atom: Called for H                     (Z =   1)

read_vps: Pseudopotential generation method:
read_vps: ATM3      Troullier-Martins                       
Total valence charge:    1.00000

xc_check: Exchange-correlation functional:
xc_check: GGA Perdew, Burke & Ernzerhof 1996
xc_check: WARNING: Pseudopotential generated with Ceperley-Alder functional
V l=0 = -2*Zval/r beyond r=  1.2343
V l=1 = -2*Zval/r beyond r=  1.2189
V l=2 = -2*Zval/r beyond r=  1.2189
All V_l potentials equal beyond r=  1.2343
This should be close to max(r_c) in ps generation
All pots = -2*Zval/r beyond r=  1.2343

VLOCAL1: 99.0% of the norm of Vloc inside     28.493 Ry
VLOCAL1: 99.9% of the norm of Vloc inside     64.935 Ry
atom: Maximum radius for 4*pi*r*r*local-pseudopot. charge    1.45251
atom: Maximum radius for r*vlocal+2*Zval:    1.21892
GHOST: No ghost state for L =  0
GHOST: No ghost state for L =  1
GHOST: No ghost state for L =  2

KBgen: Kleinman-Bylander projectors: 
   l= 0   rc=  1.364359   el= -0.488086   Ekb= -2.002077   kbcos= -0.347561
   l= 1   rc=  1.434438   el=  0.001075   Ekb= -0.501617   kbcos= -0.021754
   l= 2   rc=  1.470814   el=  0.002010   Ekb= -0.190607   kbcos= -0.002284

KBgen: Total number of  Kleinman-Bylander projectors:    9
atom: -------------------------------------------------------------------------

atom: SANKEY-TYPE ORBITALS:
atom: Selected multiple-zeta basis: split     

atom: basis set generated (by rescaling the valence charge)
atom: for a cation of charge   0.4653

SPLIT: Orbitals with angular momentum L= 0

SPLIT: Basis orbitals for state 1s

   izeta = 1
                 lambda =    1.000000
                     rc =    4.260636
                 energy =   -0.875320
                kinetic =    1.357215
    potential(screened) =   -2.232536
       potential(ionic) =   -2.287165

   izeta = 2
                 rmatch =    1.865767
              splitnorm =    0.576232
                 energy =    0.481660
                kinetic =    4.349015
    potential(screened) =   -3.867355
       potential(ionic) =   -3.832494

SPLIT: Orbitals with angular momentum L= 1

SPLIT: Basis orbitals for state 2p

   izeta = 1
                 lambda =    1.000000
                     rc =    3.576223
                 energy =    0.823141
                kinetic =    2.007026
    potential(screened) =   -1.183885
       potential(ionic) =   -1.299268
atom: Total number of Sankey-type orbitals:  5

atm_pop: Valence configuration (for local Pseudopot. screening):
 1s( 1.00)                                                            
 2p( 0.00)                                                            
Vna: chval, zval:    1.00000   1.00000

Vna:  Cut-off radius for the neutral-atom potential:   4.260636

atom: _________________________________________________________________________

prinput: Basis input ----------------------------------------------------------

PAO.BasisType split     

%block ChemicalSpeciesLabel
    1    8 O                       # Species index, atomic number, species label
    2    1 H                       # Species index, atomic number, species label
%endblock ChemicalSpeciesLabel

%block PAO.Basis                 # Define Basis set
O                     3  -0.242            # Label, l-shells, ionic net charge
 n=2   0   2                         # n, l, Nzeta 
   4.574      2.639   
   1.000      1.000   
 n=2   1   2                         # n, l, Nzeta 
   6.175      2.639   
   1.000      1.000   
 n=3   2   1                         # n, l, Nzeta 
   3.563   
   1.000   
H                     2   0.465            # Label, l-shells, ionic net charge
 n=1   0   2                         # n, l, Nzeta 
   4.261      1.866   
   1.000      1.000   
 n=2   1   1                         # n, l, Nzeta 
   3.576   
   1.000   
%endblock PAO.Basis

prinput: ----------------------------------------------------------------------

coor:   Atomic-coordinates input format  =     Cartesian coordinates
coor:                                          (in Angstroms)

siesta: Atomic coordinates (Bohr) and species
siesta:      0.75855   0.82662   1.45215  1        1
siesta:      0.00848  -0.00832   0.00033  2        2
siesta:      0.00894  -0.00821   2.90427  2        3

siesta: System type = molecule  

initatomlists: Number of atoms, orbitals, and projectors:      3    23    34

siesta: ******************** Simulation parameters ****************************
siesta:
siesta: The following are some of the parameters of the simulation.
siesta: A complete list of the parameters used, including default values,
siesta: can be found in file out.fdf
siesta:
redata: Non-Collinear-spin run           =     F
redata: SpinPolarized (Up/Down) run      =     F
redata: Number of spin components        =     1
redata: Long output                      =     F
redata: Number of Atomic Species         =        2
redata: Charge density info will appear in .RHO file
redata: Write Mulliken Pop.              =     NO
redata: Mesh Cutoff                      =   150.0000  Ry
redata: Net charge of the system         =     0.0000 |e|
redata: Min. number of SCF Iter          =        0
redata: Max. number of SCF Iter          =       50
redata: Mix DM or H after convergence    =     T
redata: Performing Pulay mixing using    =     3 iterations
redata: Mix DM in first SCF step ?       =     F
redata: Write Pulay info on disk?        =     F
redata: Discard 1st Pulay DM after  kick =     F
redata: New DM Mixing Weight             =     0.2000
redata: New DM Occupancy tolerance       = 0.000000000001
redata: No kicks to SCF
redata: DM Mixing Weight for Kicks       =     0.5000
redata: DM Tolerance for SCF             =     0.000100
redata: Require (free) Energy convergence in SCF =     F
redata: DM (free)Energy tolerance for SCF =     0.000010 eV
redata: Require Harris convergence for SCF =     F
redata: DM Harris energy tolerance for SCF =     0.000010 eV
redata: Using Saved Data (generic)   =     F
redata: Use continuation files for DM    =     F
redata: Neglect nonoverlap interactions  =     F
redata: Method of Calculation            =     Diagonalization
redata: Divide and Conquer               =     T
redata: Electronic Temperature           =     0.0004  Ry
redata: Fix the spin of the system       =     F
redata: Write Initial TDWF               =     T
redata: Max. number of TDED Iter         =        3
redata: Write .TDWF and .DM after time steps=      100
redata: Dynamics option                  =     Verlet MD run
redata: Initial MD time step             =        1
redata:   Final MD time step             =        1
redata: Length of MD time step           =     1.0000  fs
redata: Initial Temperature of MD run    =     0.0000  K
redata: Perform a MD quench              =     F
redata: ***********************************************************************
Total number of electrons:     8.000000
Total ionic charge:     8.000000
 Kpoints in:            1 . Kpoints trimmed:            1

siesta: k-grid: Number of k-points =     1
siesta: k-grid: Cutoff (effective) =     5.000 Ang
siesta: k-grid: Supercell and displacements
siesta: k-grid:    1   0   0      0.000
siesta: k-grid:    0   1   0      0.000
siesta: k-grid:    0   0   1      0.000

siesta:                 ==============================
                            Begin MD step =      1
                        ==============================

outcell: Unit cell vectors (Ang):
       10.000000    0.000000    0.000000
        0.000000   10.000000    0.000000
        0.000000    0.000000   10.000000

outcell: Cell vector modules (Ang)   :   10.000000   10.000000   10.000000
outcell: Cell angles (23,13,12) (deg):     90.0000     90.0000     90.0000
outcell: Cell volume (Ang**3)        :   1000.0000
New_DM. Step:     1
Initializing Density Matrix...
New grid distribution:   1
           1       1:   40    1:   40    1:   40

InitMesh: MESH =    80 x    80 x    80 =      512000
InitMesh: (bp) =    40 x    40 x    40 =       64000
InitMesh: Mesh cutoff (required, used) =   150.000   176.881 Ry
ExtMesh (bp) on 0 =    96 x    96 x    96 =      884736
PhiOnMesh: Number of (b)points on node 0 =                64000
PhiOnMesh: nlist on node 0 =                68918

efield: External electric field =    0.077787   -0.077787    0.000000 Ry/Bohr/e

stepf: Fermi-Dirac step function

siesta: Program's energy decomposition (eV):
siesta: Ebs     =      -148.446067
siesta: Eions   =       815.854479
siesta: Ena     =       191.748167
siesta: Ekin    =       318.964298
siesta: Enl     =       -48.861478
siesta: DEna    =         0.000000
siesta: DUscf   =         0.000000
siesta: DUext   =         0.000000
siesta: Exc     =      -108.992006
siesta: eta*DQ  =         0.000000
siesta: Emadel  =         0.000000
siesta: Emeta   =         0.000000
siesta: Emolmec =         0.000000
siesta: Ekinion =         0.000000
siesta: Eharris =      -474.273053
siesta: Etot    =      -462.995498
siesta: FreeEng =      -462.995498

   scf: iscf   Eharris(eV)      E_KS(eV)   FreeEng(eV)    dDmax  Ef(eV)
   scf:    1     -474.2731     -462.9955     -462.9955  0.89550 -4.9999
timer: Routine,Calls,Time,% =    IterSCF     1       0.275  19.22
   scf:    2     -480.9576     -463.1699     -463.1699  2.07896  5.8542
   scf:    3     -469.8936     -465.4511     -465.4511  0.57668 -1.3451
   scf:    4     -469.7491     -467.3890     -467.3890  0.37463 -0.1633
   scf:    5     -469.6984     -469.8041     -469.8041  0.04036 -0.3945
   scf:    6     -469.6854     -469.7351     -469.7351  0.04698 -0.5511
   scf:    7     -469.6842     -469.6843     -469.6843  0.03811 -0.5749
   scf:    8     -469.6839     -469.6180     -469.6180  0.01217 -0.5599
   scf:    9     -469.6839     -469.6329     -469.6329  0.00795 -0.5522
   scf:   10     -469.6839     -469.6814     -469.6814  0.00199 -0.5455
   scf:   11     -469.6839     -469.6835     -469.6835  0.00135 -0.5508
   scf:   12     -469.6839     -469.6822     -469.6822  0.00144 -0.5533
   scf:   13     -469.6839     -469.6804     -469.6804  0.00115 -0.5538
   scf:   14     -469.6839     -469.6808     -469.6808  0.00081 -0.5534
   scf:   15     -469.6839     -469.6831     -469.6831  0.00021 -0.5527
   scf:   16     -469.6839     -469.6838     -469.6838  0.00008 -0.5530

SCF Convergence by dMax criterion
max |DM_out - DM_in|:     0.00007515
SCF cycle converged after   16 iterations
 initwf: nelect =     8.0000000000000000     
 electrons in selected orb (tddft),qtot=   8.0000000000000000        7.9999999999999991     
 initwf: number of occupied wave functions            4
 initwf: number of electrons     8.0000000000000000     

Using DM_mixed to compute the final energy and forces
Consider using 'SCF.MixAfterConvergence F', mixing H or mixing the charge density

siesta: E_KS(eV) =             -469.6839

siesta: E_KS - E_eggbox =      -469.6839

siesta: Atomic forces (eV/Ang):
----------------------------------------
   Tot   -0.001987    0.047087    0.015451
----------------------------------------
   Max    1.771256
   Res    0.876364    sqrt( Sum f_i^2 / 3N )
----------------------------------------
   Max    1.771256    constrained

Stress-tensor-Voigt (kbar):        1.13        1.24        1.44       -0.05       -0.00       -0.00
(Free)E + p*V (eV/cell)     -470.4791
Target enthalpy (eV/cell)     -469.6839

siesta: Stress tensor (static) (eV/Ang**3):
         0.000708   -0.000033   -0.000000
        -0.000033    0.000777   -0.000002
        -0.000000   -0.000002    0.000901

siesta: Pressure (static):         -1.27417845  kBar

siesta: Stress tensor (total) (eV/Ang**3):
         0.000708   -0.000033   -0.000000
        -0.000033    0.000777   -0.000002
        -0.000000   -0.000002    0.000901

siesta: Pressure (total):         -1.27417845  kBar

siesta: Temp_ion =       0.000 K

siesta: Program's energy decomposition (eV):
siesta: Ebs     =      -108.433316
siesta: Eions   =       815.854479
siesta: Ena     =       191.748167
siesta: Ekin    =       352.353236
siesta: Enl     =       -63.572574
siesta: DEna    =       -21.341118
siesta: DUscf   =         2.585330
siesta: DUext   =        -0.393011
siesta: Exc     =      -115.209419
siesta: eta*DQ  =         0.000000
siesta: Emadel  =         0.000000
siesta: Emeta   =         0.000000
siesta: Emolmec =         0.000000
siesta: Ekinion =         0.000000
siesta: Eharris =      -469.683861
siesta: Etot    =      -469.683867
siesta: FreeEng =      -469.683867

siesta: Final energy (eV):
siesta:  Band Struct. =    -108.433316
siesta:       Kinetic =     352.353236
siesta:       Hartree =     453.965828
siesta:    Ext. field =      -0.393011
siesta:   Exch.-corr. =    -115.209419
siesta:  Ion-electron =   -1218.499491
siesta:       Ion-ion =      58.098990
siesta:       Ekinion =       0.000000
siesta:         Total =    -469.683867

siesta: Atomic forces (eV/Ang):
siesta:      1   -1.771256    1.169875    0.016368
siesta:      2    0.885332   -0.562077    0.323898
siesta:      3    0.883937   -0.560711   -0.324814
siesta: ----------------------------------------
siesta:    Tot   -0.001987    0.047087    0.015451

siesta: Stress tensor (static) (eV/Ang**3):
siesta:     0.000708   -0.000033   -0.000000
siesta:    -0.000033    0.000777   -0.000002
siesta:    -0.000000   -0.000002    0.000901

siesta: Cell volume =       1000.000000 Ang**3

siesta: Pressure (static):
siesta:                Solid            Molecule  Units
siesta:          -0.00000866         -0.00000615  Ry/Bohr**3
siesta:          -0.00079527         -0.00056491  eV/Ang**3
siesta:          -1.27417845         -0.90509204  kBar
(Free)E+ p_basis*V_orbitals  =        -469.162941
(Free)Eharris+ p_basis*V_orbitals  =        -469.162936

siesta: Electric dipole (a.u.)  =   -0.394692   -0.766034    0.000036
siesta: Electric dipole (Debye) =   -1.003208   -1.947066    0.000091

timer: Elapsed wall time (sec) =       5.904
timer: CPU execution times (sec):

Routine            Calls   Time/call    Tot.time        %
siesta                 1       5.868       5.868   100.00
Setup                  1       0.163       0.163     2.77
bands                  1       0.000       0.000     0.00
writewave              1       0.000       0.000     0.00
KSV_init               1       0.000       0.000     0.00
IterMD                 1       5.697       5.697    97.07
STinit                 1       0.164       0.164     2.80
hsparse                1       0.000       0.000     0.00
overlap                1       0.163       0.163     2.78
matel               3698       0.000       0.791    13.48
Setup_H0               1       0.830       0.830    14.14
naefs                  2       0.000       0.001     0.01
kinefsm                2       0.079       0.157     2.68
nlefsm                 2       0.237       0.474     8.07
DHSCF_Init             1       0.202       0.202     3.44
DHSCF1                 1       0.036       0.036     0.61
INITMESH               1       0.000       0.000     0.00
DHSCF2                 1       0.165       0.165     2.82
REMESH                 1       0.016       0.016     0.27
REORD                 42       0.001       0.048     0.82
PHION                  1       0.065       0.065     1.11
COMM_BSC              37       0.001       0.043     0.73
POISON                18       0.046       0.819    13.96
fft                   36       0.016       0.569     9.70
IterSCF               16       0.270       4.322    73.65
setup_H               16       0.269       4.305    73.35
DHSCF                 17       0.274       4.659    79.40
DHSCF3                17       0.268       4.552    77.57
rhoofd                17       0.009       0.148     2.51
cellXC                17       0.186       3.157    53.79
vmat                  17       0.006       0.109     1.87
compute_dm            16       0.000       0.004     0.06
diagon                16       0.000       0.003     0.05
r-eigvec              16       0.000       0.003     0.05
r-buildHS             16       0.000       0.000     0.00
rdiag                 17       0.000       0.003     0.05
rdiag1                17       0.000       0.000     0.00
rdiag2                17       0.000       0.000     0.00
rdiag3                17       0.000       0.002     0.04
rdiag4                17       0.000       0.000     0.00
r-buildD              16       0.000       0.000     0.00
MIXER                 16       0.000       0.000     0.01
WriteDM               16       0.001       0.008     0.14
initwf                 1       0.001       0.001     0.01
PostSCF                1       0.378       0.378     6.43
DHSCF4                 1       0.107       0.107     1.83
dfscf                  1       0.076       0.076     1.30
overfsm                1       0.001       0.001     0.01
STanaly                1       0.001       0.001     0.02
SIMOVE                 1       0.001       0.001     0.01
optical                1       0.000       0.000     0.00
  
>> End of run:  18-MAR-2015  15:08:56
