Siesta Version: siesta-2.0-release
Architecture  : intel9-mkl8
Compiler flags: ifort -u -xP -O3 -mp1
SERIAL version

* Running in serial mode
>> Start of run:  24-FEB-2006  12:54:00

                           ***********************       
                           *  WELCOME TO SIESTA  *       
                           ***********************       

reinit: Reading from standard input
************************** Dump of input data file ****************************
#
# MgCO3 in primitive cell. SZ. Variable cell. Harris. Broyden Optim
#
SystemName	MgCo3 R-3c Harris -- SZ, 100 R -- variable cell at 100 Gpa
SystemLabel	var_cell
NumberOfSpecies		3
NumberOfAtoms	       10
%block ChemicalSpeciesLabel
      1      12     Mg
      2       6     C
      3       8     O
%endblock ChemicalSpeciesLabel
PAO.BasisSize  SZ
Diag.Divide-and-Conquer F
# Rhombohedral primitive cell
# (HEX 3-fold cell had A=4.635 and C=15.023, so alpha=48.179 degrees
#  and a=5.67783 Ang)
LatticeConstant     5.67783 Ang
%block LatticeParameters
1.0 1.0 1.0 48.179 48.179 48.179
%endblock LatticeParameters
AtomicCoordinatesFormat    Fractional
%block AtomicCoordinatesAndAtomicSpecies
  0.0         0.0         0.0      1
  0.5         0.5         0.5      1
  0.25        0.25        0.25     2
 -0.25       -0.25       -0.25     2
  0.5274     -0.0274      0.25     3
  0.25        0.5274     -0.0274   3
 -0.0274      0.25        0.5274   3
 -0.5274      0.0274     -0.25     3
 -0.25       -0.5274      0.0274   3
  0.0274     -0.25       -0.5274   3
%endblock AtomicCoordinatesAndAtomicSpecies
kgrid_cutoff 15.0 Ang
Solution.Method       diagon
MeshCutoff             100 Ry
DM.NumberBroyden       4
DM.UseSaveDM           T
DM.MixingWeight        0.1         # New DM amount for next SCF cycle
DM.Tolerance           1.d-3       # Tolerance in maximum difference
                                   # between input and output DM
MaxSCFIterations       20
WriteCoorStep      .true.
WriteForces        .true.
HarrisFunctional T
MD.TypeOfRun         Broyden
MD.Variable-Cell      T
MD.Target-pressure   100.0 GPa
MD.Num-CG-steps	     30
MD.Max-Stress-Tol    2.0 GPa
MD.Broyden.Initial.Inverse.Jacobian 1.0
MD.Broyden.History.Steps 6
************************** End of input data file *****************************

reinit: -----------------------------------------------------------------------
reinit: System Name: MgCo3 R-3c Harris -- SZ, 100 R -- variable cell at 100 Gpa 
reinit: -----------------------------------------------------------------------
reinit: System Label: var_cell                                                    
reinit: -----------------------------------------------------------------------

initatom: Reading input for the pseudopotentials and atomic orbitals ----------
 Species number:            1  Label: Mg Atomic number:          12
 Species number:            2  Label: C Atomic number:           6
 Species number:            3  Label: O Atomic number:           8
Ground state valence configuration:   3s02
Reading pseudopotential information in formatted form from Mg.psf
Ground state valence configuration:   2s02  2p02
Reading pseudopotential information in formatted form from C.psf
Ground state valence configuration:   2s02  2p04
Reading pseudopotential information in formatted form from O.psf
For Mg, standard SIESTA heuristics set lmxkb to 1
 (one more than the basis l, including polarization orbitals).
Use PS.lmax or PS.KBprojectors blocks to override.
For C, standard SIESTA heuristics set lmxkb to 2
 (one more than the basis l, including polarization orbitals).
Use PS.lmax or PS.KBprojectors blocks to override.
For O, standard SIESTA heuristics set lmxkb to 2
 (one more than the basis l, including polarization orbitals).
Use PS.lmax or PS.KBprojectors blocks to override.

<basis_specs>
===============================================================================
Mg                   Z=  12    Mass=  24.310        Charge=  0.0000    
Lmxo=0 Lmxkb=1     BasisType=split      Semic=F
L=0  Nsemic=0  Cnfigmx=3
          n=1  nzeta=1  polorb=0
               vcte:    0.0000    
               rinn:    0.0000    
                rcs:    0.0000    
            lambdas:    1.0000    
-------------------------------------------------------------------------------
L=0  Nkbl=1  erefs: 0.17977+309
L=1  Nkbl=1  erefs: 0.17977+309
===============================================================================
</basis_specs>

atom: Called for Mg  (Z =  12)

read_vps: Pseudopotential generation method:
read_vps: ATM3      Troullier-Martins                       

read_vps: Valence configuration (pseudopotential and basis set generation):
3s( 2.00) rc: 2.59
3p( 0.00) rc: 2.59
Total valence charge:    2.00000

xc_check: Exchange-correlation functional:
xc_check: Ceperley-Alder
V l=0 = -2*Zval/r beyond r=  3.5878
V l=1 = -2*Zval/r beyond r=  3.5878
All V_l potentials equal beyond r=  2.5600
This should be close to max(r_c) in ps generation
All pots = -2*Zval/r beyond r=  3.5878
Using large-core scheme for Vlocal

atom: Estimated core radius    3.58779

atom: Including non-local core corrections could be a good idea
atom: Maximum radius for 4*pi*r*r*local-pseudopot. charge    3.91588
atom: Maximum radius for r*vlocal+2*Zval:    3.63292
GHOST: No ghost state for L =  0
GHOST: No ghost state for L =  1

KBgen: Kleinman-Bylander projectors: 
   l= 0   rc=  2.657845   el= -0.351328   Ekb=  2.184400   kbcos=  0.257081
   l= 1   rc=  2.657845   el= -0.101748   Ekb=  0.525536   kbcos=  0.270508

KBgen: Total number of  Kleinman-Bylander projectors:    4
atom: -------------------------------------------------------------------------

atom: SANKEY-TYPE ORBITALS:

SPLIT: Orbitals with angular momentum L= 0

SPLIT: Basis orbitals for state 3s

SPLIT: PAO cut-off radius determined from an
SPLIT: energy shift=  0.020000 Ry

   izeta = 1
                 lambda =    1.000000
                     rc =    6.619780
                 energy =   -0.332103
                kinetic =    0.289627
    potential(screened) =   -0.621729
       potential(ionic) =   -1.387191
atom: Total number of Sankey-type orbitals:  1

atm_pop: Valence configuration(local Pseudopot. screening):
 3s( 2.00)                                                            
Vna: chval, zval:    2.00000   2.00000

Vna:  Cut-off radius for the neutral-atom potential:   6.619780

atom: _________________________________________________________________________

<basis_specs>
===============================================================================
C                    Z=   6    Mass=  12.010        Charge=  0.0000    
Lmxo=1 Lmxkb=2     BasisType=split      Semic=F
L=0  Nsemic=0  Cnfigmx=2
          n=1  nzeta=1  polorb=0
               vcte:    0.0000    
               rinn:    0.0000    
                rcs:    0.0000    
            lambdas:    1.0000    
L=1  Nsemic=0  Cnfigmx=2
          n=1  nzeta=1  polorb=0
               vcte:    0.0000    
               rinn:    0.0000    
                rcs:    0.0000    
            lambdas:    1.0000    
-------------------------------------------------------------------------------
L=0  Nkbl=1  erefs: 0.17977+309
L=1  Nkbl=1  erefs: 0.17977+309
L=2  Nkbl=1  erefs: 0.17977+309
===============================================================================
</basis_specs>

atom: Called for C   (Z =   6)

read_vps: Pseudopotential generation method:
read_vps: ATM3      Troullier-Martins                       

read_vps: Valence configuration (pseudopotential and basis set generation):
2s( 2.00) rc: 1.49
2p( 2.00) rc: 1.52
3d( 0.00) rc: 1.58
Total valence charge:    4.00000

xc_check: Exchange-correlation functional:
xc_check: Ceperley-Alder
V l=0 = -2*Zval/r beyond r=  1.4666
V l=1 = -2*Zval/r beyond r=  1.5038
V l=2 = -2*Zval/r beyond r=  1.5612
All V_l potentials equal beyond r=  1.5612
This should be close to max(r_c) in ps generation
All pots = -2*Zval/r beyond r=  1.5612

VLOCAL1: 99.0% of the norm of Vloc inside     17.809 Ry
VLOCAL1: 99.9% of the norm of Vloc inside     40.586 Ry
atom: Maximum radius for 4*pi*r*r*local-pseudopot. charge    1.88329
atom: Maximum radius for r*vlocal+2*Zval:    1.62091
GHOST: No ghost state for L =  0
GHOST: No ghost state for L =  1
GHOST: No ghost state for L =  2

KBgen: Kleinman-Bylander projectors: 
   l= 0   rc=  1.747182   el= -1.001947   Ekb=  5.181700   kbcos=  0.300603
   l= 1   rc=  1.747182   el= -0.398598   Ekb= -4.328763   kbcos= -0.367074
   l= 2   rc=  1.955272   el=  0.002326   Ekb= -1.016175   kbcos= -0.009979

KBgen: Total number of  Kleinman-Bylander projectors:    9
atom: -------------------------------------------------------------------------

atom: SANKEY-TYPE ORBITALS:

SPLIT: Orbitals with angular momentum L= 0

SPLIT: Basis orbitals for state 2s

SPLIT: PAO cut-off radius determined from an
SPLIT: energy shift=  0.020000 Ry

   izeta = 1
                 lambda =    1.000000
                     rc =    4.191849
                 energy =   -0.983897
                kinetic =    0.886956
    potential(screened) =   -1.870853
       potential(ionic) =   -5.479661

SPLIT: Orbitals with angular momentum L= 1

SPLIT: Basis orbitals for state 2p

SPLIT: PAO cut-off radius determined from an
SPLIT: energy shift=  0.020000 Ry

   izeta = 1
                 lambda =    1.000000
                     rc =    4.870301
                 energy =   -0.379093
                kinetic =    2.545357
    potential(screened) =   -2.924450
       potential(ionic) =   -6.433151
atom: Total number of Sankey-type orbitals:  4

atm_pop: Valence configuration(local Pseudopot. screening):
 2s( 2.00)                                                            
 2p( 2.00)                                                            
Vna: chval, zval:    4.00000   4.00000

Vna:  Cut-off radius for the neutral-atom potential:   4.870301

atom: _________________________________________________________________________

<basis_specs>
===============================================================================
O                    Z=   8    Mass=  16.000        Charge=  0.0000    
Lmxo=1 Lmxkb=2     BasisType=split      Semic=F
L=0  Nsemic=0  Cnfigmx=2
          n=1  nzeta=1  polorb=0
               vcte:    0.0000    
               rinn:    0.0000    
                rcs:    0.0000    
            lambdas:    1.0000    
L=1  Nsemic=0  Cnfigmx=2
          n=1  nzeta=1  polorb=0
               vcte:    0.0000    
               rinn:    0.0000    
                rcs:    0.0000    
            lambdas:    1.0000    
-------------------------------------------------------------------------------
L=0  Nkbl=1  erefs: 0.17977+309
L=1  Nkbl=1  erefs: 0.17977+309
L=2  Nkbl=1  erefs: 0.17977+309
===============================================================================
</basis_specs>

atom: Called for O   (Z =   8)

read_vps: Pseudopotential generation method:
read_vps: ATM3      Troullier-Martins                       

read_vps: Valence configuration (pseudopotential and basis set generation):
2s( 2.00) rc: 1.14
2p( 4.00) rc: 1.14
3d( 0.00) rc: 1.14
Total valence charge:    6.00000

xc_check: Exchange-correlation functional:
xc_check: Ceperley-Alder
V l=0 = -2*Zval/r beyond r=  1.1278
V l=1 = -2*Zval/r beyond r=  1.1278
V l=2 = -2*Zval/r beyond r=  1.1278
All V_l potentials equal beyond r=  1.1278
This should be close to max(r_c) in ps generation
All pots = -2*Zval/r beyond r=  1.1278

VLOCAL1: 99.0% of the norm of Vloc inside     34.126 Ry
VLOCAL1: 99.9% of the norm of Vloc inside     77.774 Ry
atom: Maximum radius for 4*pi*r*r*local-pseudopot. charge    1.37759
atom: Maximum radius for r*vlocal+2*Zval:    1.18566
GHOST: No ghost state for L =  0
GHOST: No ghost state for L =  1
GHOST: No ghost state for L =  2

KBgen: Kleinman-Bylander projectors: 
   l= 0   rc=  1.294105   el= -1.742414   Ekb=  9.135903   kbcos=  0.326910
   l= 1   rc=  1.294105   el= -0.676589   Ekb= -8.124878   kbcos= -0.395047
   l= 2   rc=  1.448233   el=  0.002386   Ekb= -2.039267   kbcos= -0.003484

KBgen: Total number of  Kleinman-Bylander projectors:    9
atom: -------------------------------------------------------------------------

atom: SANKEY-TYPE ORBITALS:

SPLIT: Orbitals with angular momentum L= 0

SPLIT: Basis orbitals for state 2s

SPLIT: PAO cut-off radius determined from an
SPLIT: energy shift=  0.020000 Ry

   izeta = 1
                 lambda =    1.000000
                     rc =    3.305093
                 energy =   -1.723766
                kinetic =    1.614911
    potential(screened) =   -3.338677
       potential(ionic) =  -11.304675

SPLIT: Orbitals with angular momentum L= 1

SPLIT: Basis orbitals for state 2p

SPLIT: PAO cut-off radius determined from an
SPLIT: energy shift=  0.020000 Ry

   izeta = 1
                 lambda =    1.000000
                     rc =    3.937239
                 energy =   -0.658841
                kinetic =    5.005986
    potential(screened) =   -5.664827
       potential(ionic) =  -13.452360
atom: Total number of Sankey-type orbitals:  4

atm_pop: Valence configuration(local Pseudopot. screening):
 2s( 2.00)                                                            
 2p( 4.00)                                                            
Vna: chval, zval:    6.00000   6.00000

Vna:  Cut-off radius for the neutral-atom potential:   3.937239

atom: _________________________________________________________________________

prinput: Basis input ----------------------------------------------------------

PAO.BasisType split     

%block ChemicalSpeciesLabel
    1   12 Mg                      # Species index, atomic number, species label
    2    6 C                       # Species index, atomic number, species label
    3    8 O                       # Species index, atomic number, species label
%endblock ChemicalSpeciesLabel

%block PAO.Basis                 # Define Basis set
Mg          1                    # Species label, number of l-shells
 n=3   0   1                         # n, l, Nzeta 
   6.620   
   1.000   
C           2                    # Species label, number of l-shells
 n=2   0   1                         # n, l, Nzeta 
   4.192   
   1.000   
 n=2   1   1                         # n, l, Nzeta 
   4.870   
   1.000   
O           2                    # Species label, number of l-shells
 n=2   0   1                         # n, l, Nzeta 
   3.305   
   1.000   
 n=2   1   1                         # n, l, Nzeta 
   3.937   
   1.000   
%endblock PAO.Basis

prinput: ----------------------------------------------------------------------


siesta: ******************** Simulation parameters ****************************
siesta:
siesta: The following are some of the parameters of the simulation.
siesta: A complete list of the parameters used, including default values,
siesta: can be found in file out.fdf
siesta:
coor:   Atomic-coordinates input format  =     Fractional
redata: Number of spin components        =     1
redata: Long output                      =     F
redata: Number of Atomic Species         =     3
redata: Charge density info will appear in .RHO file
redata: Write Mulliken Pop.              =     NO
redata: Mesh Cutoff                      =   100.0000  Ry
redata: Net charge of the system         =     0.0000 |e|
redata: Max. number of SCF Iter          =    20
redata: Broyden mixing with     4 saved histories.
redata: Mix DM in first SCF step ?       =     F
redata: Write Pulay info on disk?        =     F
redata: New DM Mixing Weight             =     0.1000
redata: New DM Occupancy tolerance       = 0.000000000001
redata: No kicks to SCF
redata: DM Mixing Weight for Kicks       =     0.5000
redata: DM Tolerance for SCF             =     0.001000
redata: Require Energy convergence for SCF =     F
redata: DM Energy tolerance for SCF      =     0.000100 eV
redata: Using Saved Data (generic)   =     F
redata: Use continuation files for DM    =     T
redata: Neglect nonoverlap interactions  =     F
redata: Method of Calculation            =     Diagonalization
redata: Divide and Conquer               =     F
redata: Electronic Temperature           =     0.0019  Ry
redata: Fix the spin of the system       =     F
redata: Dynamics option                  =     Broyden coord. optimization
redata: Variable cell                    =     T
redata: Maximum number of CG moves       =    30
redata: Force tolerance                  =     0.0016  Ry/Bohr
redata: Stress tolerance                 =     2.0000  GPa
redata: ***********************************************************************

siesta: Atomic coordinates (Bohr) and species
siesta:      0.00000   0.00000   0.00000  1        1
siesta:     12.51930   5.59740   3.66414  1        2
siesta:      6.25965   2.79870   1.83207  2        3
siesta:     -6.25965  -2.79870  -1.83207  2        4
siesta:      7.25136   0.58061   1.83207  3        5
siesta:      6.25965   4.12944  -0.20079  3        6
siesta:      5.26794   3.68605   3.86493  3        7
siesta:     -7.25136  -0.58061  -1.83207  3        8
siesta:     -6.25965  -4.12944   0.20079  3        9
siesta:     -5.26794  -3.68605  -3.86493  3       10

initatomlists: Number of atoms, orbitals, and projectors:     10    34    80

siesta: System type = bulk      

siesta: k-grid: Number of k-points =   108
siesta: k-grid: Cutoff             =    13.905 Ang
siesta: k-grid: Supercell and displacements
siesta: k-grid:    6   0   0      0.500
siesta: k-grid:    0   6   0      0.500
siesta: k-grid:    0   0   6      0.500

superc: Internal auxiliary supercell:     4 x     4 x     4  =      64
superc: Number of atoms, orbitals, and projectors:    640  2176  5120

* Maximum dynamic memory allocated =     1 MB

siesta:                 ==============================
                            Begin CG move =      0
                        ==============================

outcoor: Atomic coordinates (fractional):                   
    0.00000000    0.00000000    0.00000000   1  Mg         1
    0.50000000    0.50000000    0.50000000   1  Mg         2
    0.25000000    0.25000000    0.25000000   2  C          3
   -0.25000000   -0.25000000   -0.25000000   2  C          4
    0.52740000   -0.02740000    0.25000000   3  O          5
    0.25000000    0.52740000   -0.02740000   3  O          6
   -0.02740000    0.25000000    0.52740000   3  O          7
   -0.52740000    0.02740000   -0.25000000   3  O          8
   -0.25000000   -0.52740000    0.02740000   3  O          9
    0.02740000   -0.25000000   -0.52740000   3  O         10

superc: Internal auxiliary supercell:     4 x     4 x     4  =      64
superc: Number of atoms, orbitals, and projectors:    640  2176  5120

outcell: Unit cell vectors (Ang):
        5.677830    0.000000    0.000000
        3.786009    4.231299    0.000000
        3.786009    1.692731    3.877957

outcell: Cell vector modules (Ang)   :    5.677830    5.677830    5.677830
outcell: Cell angles (23,13,12) (deg):     48.1790     48.1790     48.1790
outcell: Cell volume (Ang**3)        :     93.1663

xijorb: WARNING: orbital pair      1   341 is multiply connected


InitMesh: MESH =    32 x    32 x    32 =       32768
InitMesh: Mesh cutoff (required, used) =   100.000   112.857 Ry

* Maximum dynamic memory allocated =    11 MB

stepf: Fermi-Dirac step function
 Broyden: No of relevant DM elements:         9604
 maxit for broyden:            4
 cycle on maxit:  T
 variable weight:  T
 initial alpha:   0.100000000000000     

siesta: Program's energy decomposition (eV):
siesta: Eions   =      5228.674091
siesta: Ena     =      1092.429444
siesta: Ekin    =      2100.835149
siesta: Enl     =      -258.044678
siesta: DEna    =        -0.000015
siesta: DUscf   =         0.000000
siesta: DUext   =         0.000000
siesta: Exc     =      -683.847183
siesta: eta*DQ  =         0.000000
siesta: Emadel  =         0.000000
siesta: Ekinion =         0.000000
siesta: Eharris =     -2966.326649
siesta: Etot    =     -2977.301374
siesta: FreeEng =     -2977.301374

siesta: Eharris(eV) =   -2966.326649


siesta: Eharris(eV) =   -2966.326649

timer: Routine,Calls,Time,% = IterSCF        1       2.249  69.20
elaps: Routine,Calls,Wall,% = IterSCF        1       2.263  56.51

siesta: E_KS - E_eggbox =     -2949.8288

siesta: Atomic forces (eV/Ang):
     1    0.000000    0.000000    0.000000
     2   -0.000013   -0.000006   -0.000013
     3   -0.000131   -0.000058   -0.000131
     4   -0.000181    0.000027   -0.000041
     5    2.760277   -6.173724   -0.000005
     6    0.000003    3.703924   -5.658185
     7   -2.760272    2.469805    5.658183
     8   -2.760284    6.173727    0.000003
     9    0.000000   -3.703925    5.658183
    10    2.760283   -2.469810   -5.658184
----------------------------------------
   Tot   -0.000317   -0.000040   -0.000192
----------------------------------------
   Max    6.173727
   Res    3.024371    sqrt( Sum f_i^2 / 3N )
----------------------------------------
   Max    6.173727    constrained

Stress-tensor-Voigt (kbar):      567.99      382.09      355.54      103.89       30.41       68.01
Target enthalpy (eV/cell)    -2891.6795

siesta: Stress tensor (static) (eV/Ang**3):
         0.354510    0.064841    0.042446
         0.064841    0.238476    0.018978
         0.042446    0.018978    0.221909

siesta: Pressure (static):       -435.20677323  kBar

siesta: Stress tensor (total) (eV/Ang**3):
         0.354510    0.064841    0.042446
         0.064841    0.238476    0.018978
         0.042446    0.018978    0.221909

siesta: Pressure (total):       -435.20677323  kBar
 
Broyden_optim: max_history for broyden:   6
Broyden_optim: cycle on maxit: T
Broyden_optim: initial inverse jacobian:   1.0000
 
Broyden_optim: No of elements:     36

Broyden_optim: No target stress found, assuming hydrostatic MD.TargetPressure.

Broyden_optim: Target stress (kBar)
Broyden_optim:     -1000.000       0.000       0.000
Broyden_optim:         0.000   -1000.000       0.000
Broyden_optim:         0.000       0.000   -1000.000

* Maximum dynamic memory allocated =    11 MB

siesta:                 ==============================
                            Begin CG move =      1
                        ==============================

outcoor: Atomic coordinates (fractional):                   
    0.00000000    0.00000000    0.00000000   1  Mg         1
    0.49999995    0.49999995    0.49999993   1  Mg         2
    0.24999953    0.24999953    0.24999930   2  C          3
   -0.25000065   -0.25000036   -0.25000051   2  C          4
    0.53740572   -0.03740575    0.24999998   3  O          5
    0.25000001    0.53740574   -0.03740575   3  O          6
   -0.03740570    0.25000004    0.53740578   3  O          7
   -0.53740574    0.03740574   -0.24999999   3  O          8
   -0.25000000   -0.53740573    0.03740575   3  O          9
    0.03740574   -0.25000003   -0.53740577   3  O         10

siesta: k-grid: Number of k-points =   108
siesta: k-grid: Cutoff             =    13.016 Ang
siesta: k-grid: Supercell and displacements
siesta: k-grid:    6   0   0      0.500
siesta: k-grid:    0   6   0      0.500
siesta: k-grid:    0   0   6      0.500

superc: Internal auxiliary supercell:     4 x     4 x     4  =      64
superc: Number of atoms, orbitals, and projectors:    640  2176  5120

outcell: Unit cell vectors (Ang):
        5.251635   -0.028238   -0.018485
        3.480776    3.932513   -0.018485
        3.480776    1.556261    3.611517

outcell: Cell vector modules (Ang)   :    5.251743    5.251743    5.251743
outcell: Cell angles (23,13,12) (deg):     48.7948     48.7948     48.7948
outcell: Cell volume (Ang**3)        :     75.2462

InitMesh: MESH =    30 x    30 x    30 =       27000
InitMesh: Mesh cutoff (required, used) =   100.000   116.744 Ry

siesta: Eharris(eV) =   -2965.796807


siesta: Eharris(eV) =   -2965.796807


siesta: Atomic forces (eV/Ang):
     1   -0.000028   -0.000010   -0.000007
     2    0.000017    0.000008    0.000005
     3    0.000005    0.000005    0.000070
     4    0.000048   -0.000060    0.000007
     5    3.774804   -8.442869   -0.000013
     6   -0.000012    5.065286   -7.737848
     7   -3.774787    3.377570    7.737787
     8   -3.774839    8.442892    0.000006
     9    0.000006   -5.065275    7.737784
    10    3.774797   -3.377558   -7.737786
----------------------------------------
   Tot    0.000011   -0.000011    0.000005
----------------------------------------
   Max    8.442892
   Res    4.135962    sqrt( Sum f_i^2 / 3N )
----------------------------------------
   Max    8.442892    constrained

Stress-tensor-Voigt (kbar):      453.52       49.24       -8.48      225.91       66.12      147.88
Target enthalpy (eV/cell)    -2901.8854

siesta: Stress tensor (static) (eV/Ang**3):
         0.283059    0.141001    0.092301
         0.141001    0.030734    0.041268
         0.092301    0.041268   -0.005292

siesta: Pressure (static):       -164.75935445  kBar

siesta: Stress tensor (total) (eV/Ang**3):
         0.283059    0.141001    0.092301
         0.141001    0.030734    0.041268
         0.092301    0.041268   -0.005292

siesta: Pressure (total):       -164.75935445  kBar

* Maximum dynamic memory allocated =    11 MB

siesta:                 ==============================
                            Begin CG move =      2
                        ==============================

outcoor: Atomic coordinates (fractional):                   
   -0.00000022   -0.00000021   -0.00000021   1  Mg         1
    0.50000009    0.50000009    0.50000006   1  Mg         2
    0.24999957    0.24999958    0.24999971   2  C          3
   -0.25000027   -0.25000046   -0.25000036   2  C          4
    0.56751358   -0.06751384    0.24999981   3  O          5
    0.24999991    0.56751360   -0.06751392   3  O          6
   -0.06751342    0.25000022    0.56751371   3  O          7
   -0.56751388    0.06751378   -0.25000000   3  O          8
   -0.24999995   -0.56751355    0.06751357   3  O          9
    0.06751354   -0.25000009   -0.56751361   3  O         10

siesta: k-grid: Number of k-points =   108
siesta: k-grid: Cutoff             =    11.817 Ang
siesta: k-grid: Supercell and displacements
siesta: k-grid:    6   0   0      0.500
siesta: k-grid:    0   6   0      0.500
siesta: k-grid:    0   0   6      0.500

superc: Internal auxiliary supercell:     5 x     5 x     5  =     125
superc: Number of atoms, orbitals, and projectors:   1250  4250 10000

outcell: Unit cell vectors (Ang):
        4.501575   -0.144815   -0.094797
        2.893755    3.451280   -0.094798
        2.893755    1.293803    3.200998

outcell: Cell vector modules (Ang)   :    4.504901    4.504902    4.504901
outcell: Cell angles (23,13,12) (deg):     51.8518     51.8518     51.8518
outcell: Cell volume (Ang**3)        :     52.2564

InitMesh: MESH =    24 x    24 x    24 =       13824
InitMesh: Mesh cutoff (required, used) =   100.000   105.274 Ry

siesta: Eharris(eV) =   -2956.021863


siesta: Eharris(eV) =   -2956.021863


siesta: Atomic forces (eV/Ang):
     1    0.000127    0.000043    0.000096
     2   -0.000097   -0.000109   -0.000033
     3    0.000294    0.000100   -0.000040
     4    0.000185    0.000251    0.000070
     5    1.024353   -2.291005    0.000017
     6    0.000014    1.374495   -2.099614
     7   -1.024445    0.916564    2.099667
     8   -1.024303    2.290983   -0.000008
     9   -0.000007   -1.374558    2.099750
    10    1.024328   -0.916515   -2.099785
----------------------------------------
   Tot    0.000449    0.000249    0.000118
----------------------------------------
   Max    2.291005
   Res    1.122324    sqrt( Sum f_i^2 / 3N )
----------------------------------------
   Max    2.291005    constrained

Stress-tensor-Voigt (kbar):     -908.64    -1196.61    -1237.74      160.92       47.10      105.34
Target enthalpy (eV/cell)    -2901.7149

siesta: Stress tensor (static) (eV/Ang**3):
        -0.567120    0.100438    0.065750
         0.100438   -0.746858    0.029396
         0.065750    0.029396   -0.772527

siesta: Pressure (static):       1114.32840153  kBar

siesta: Stress tensor (total) (eV/Ang**3):
        -0.567120    0.100438    0.065750
         0.100438   -0.746858    0.029396
         0.065750    0.029396   -0.772527

siesta: Pressure (total):       1114.32840153  kBar

* Maximum dynamic memory allocated =    11 MB

siesta:                 ==============================
                            Begin CG move =      3
                        ==============================

outcoor: Atomic coordinates (fractional):                   
    0.00000023    0.00000021    0.00000037   1  Mg         1
    0.49999975    0.49999957    0.49999964   1  Mg         2
    0.25000057    0.25000049    0.25000032   2  C          3
   -0.24999971   -0.24999938   -0.24999954   2  C          4
    0.56782835   -0.06782836    0.24999996   3  O          5
    0.24999997    0.56782827   -0.06782829   3  O          6
   -0.06782853    0.25000004    0.56782803   3  O          7
   -0.56782844    0.06782835   -0.25000002   3  O          8
   -0.24999998   -0.56782840    0.06782827   3  O          9
    0.06782824   -0.25000003   -0.56782844   3  O         10

siesta: k-grid: Number of k-points =   108
siesta: k-grid: Cutoff             =    12.076 Ang
siesta: k-grid: Supercell and displacements
siesta: k-grid:    6   0   0      0.500
siesta: k-grid:    0   6   0      0.500
siesta: k-grid:    0   0   6      0.500

superc: Internal auxiliary supercell:     5 x     5 x     5  =     125
superc: Number of atoms, orbitals, and projectors:   1250  4250 10000

outcell: Unit cell vectors (Ang):
        4.571326   -0.160804   -0.105265
        2.928350    3.513923   -0.105265
        2.928350    1.309270    3.262599

outcell: Cell vector modules (Ang)   :    4.575365    4.575365    4.575366
outcell: Cell angles (23,13,12) (deg):     52.1934     52.1934     52.1934
outcell: Cell volume (Ang**3)        :     55.3036

InitMesh: MESH =    24 x    24 x    24 =       13824
InitMesh: Mesh cutoff (required, used) =   100.000   102.487 Ry

siesta: Eharris(eV) =   -2959.934746


siesta: Eharris(eV) =   -2959.934746


siesta: Atomic forces (eV/Ang):
     1   -0.000207   -0.000069   -0.000122
     2    0.000188    0.000153    0.000063
     3   -0.000302   -0.000117   -0.000018
     4   -0.000241   -0.000217   -0.000082
     5    0.428559   -0.958491    0.000026
     6    0.000006    0.575037   -0.878495
     7   -0.428442    0.383435    0.878479
     8   -0.428504    0.958416    0.000011
     9    0.000020   -0.574981    0.878343
    10    0.428535   -0.383404   -0.878325
----------------------------------------
   Tot   -0.000389   -0.000237   -0.000120
----------------------------------------
   Max    0.958491
   Res    0.469520    sqrt( Sum f_i^2 / 3N )
----------------------------------------
   Max    0.958491    constrained

Stress-tensor-Voigt (kbar):     -493.82     -616.44     -633.95       68.52       20.06       44.86
Target enthalpy (eV/cell)    -2903.9904

siesta: Stress tensor (static) (eV/Ang**3):
        -0.308216    0.042768    0.027996
         0.042768   -0.384749    0.012517
         0.027996    0.012517   -0.395675

siesta: Pressure (static):        581.40384930  kBar

siesta: Stress tensor (total) (eV/Ang**3):
        -0.308216    0.042768    0.027996
         0.042768   -0.384749    0.012517
         0.027996    0.012517   -0.395675

siesta: Pressure (total):        581.40384930  kBar

* Maximum dynamic memory allocated =    11 MB

siesta:                 ==============================
                            Begin CG move =      4
                        ==============================

outcoor: Atomic coordinates (fractional):                   
    0.00000042    0.00000038    0.00000058   1  Mg         1
    0.49999960    0.49999939    0.49999947   1  Mg         2
    0.25000073    0.25000065    0.25000036   2  C          3
   -0.24999967   -0.24999917   -0.24999942   2  C          4
    0.55964884   -0.05964882    0.24999998   3  O          5
    0.24999999    0.55964878   -0.05964871   3  O          6
   -0.05964913    0.24999996    0.55964847   3  O          7
   -0.55964891    0.05964884   -0.25000003   3  O          8
   -0.25000000   -0.55964895    0.05964882   3  O          9
    0.05964877   -0.25000004   -0.55964901   3  O         10

siesta: k-grid: Number of k-points =   108
siesta: k-grid: Cutoff             =    12.412 Ang
siesta: k-grid: Supercell and displacements
siesta: k-grid:    6   0   0      0.500
siesta: k-grid:    0   6   0      0.500
siesta: k-grid:    0   0   6      0.500

superc: Internal auxiliary supercell:     5 x     5 x     5  =     125
superc: Number of atoms, orbitals, and projectors:   1250  4250 10000

outcell: Unit cell vectors (Ang):
        4.783886   -0.127105   -0.083205
        3.095200    3.649858   -0.083205
        3.095200    1.383869    3.378358

outcell: Cell vector modules (Ang)   :    4.786298    4.786298    4.786299
outcell: Cell angles (23,13,12) (deg):     51.2146     51.2146     51.2146
outcell: Cell volume (Ang**3)        :     61.4841

InitMesh: MESH =    30 x    30 x    30 =       27000
InitMesh: Mesh cutoff (required, used) =   100.000   144.591 Ry

siesta: Eharris(eV) =   -2964.352067


siesta: Eharris(eV) =   -2964.352067


siesta: Atomic forces (eV/Ang):
     1   -0.000237   -0.000079   -0.000126
     2    0.000215    0.000163    0.000072
     3   -0.000076   -0.000017    0.000072
     4    0.000000   -0.000134   -0.000013
     5    1.256899   -2.811227    0.000010
     6    0.000020    1.686598   -2.576521
     7   -1.256829    1.124557    2.576481
     8   -1.256870    2.811150    0.000016
     9    0.000000   -1.686479    2.576319
    10    1.256842   -1.124558   -2.576304
----------------------------------------
   Tot   -0.000034   -0.000026    0.000006
----------------------------------------
   Max    2.811227
   Res    1.377122    sqrt( Sum f_i^2 / 3N )
----------------------------------------
   Max    2.811227    constrained

Stress-tensor-Voigt (kbar):       21.28     -170.88     -198.31      107.38       31.43       70.29
Target enthalpy (eV/cell)    -2906.3572

siesta: Stress tensor (static) (eV/Ang**3):
         0.013284    0.067022    0.043873
         0.067022   -0.106652    0.019616
         0.043873    0.019616   -0.123773

siesta: Pressure (static):        115.96721842  kBar

siesta: Stress tensor (total) (eV/Ang**3):
         0.013284    0.067022    0.043873
         0.067022   -0.106652    0.019616
         0.043873    0.019616   -0.123773

siesta: Pressure (total):        115.96721842  kBar

* Maximum dynamic memory allocated =    13 MB

siesta:                 ==============================
                            Begin CG move =      5
                        ==============================

outcoor: Atomic coordinates (fractional):                   
   -0.00000047   -0.00000042   -0.00000058   1  Mg         1
    0.50000031    0.50000047    0.50000036   1  Mg         2
    0.24999667    0.24999672    0.24999676   2  C          3
   -0.25000320   -0.25000338   -0.25000329   2  C          4
    0.56232196   -0.06232174    0.25000019   3  O          5
    0.24999981    0.56232150   -0.06232214   3  O          6
   -0.06232107    0.25000101    0.56232246   3  O          7
   -0.56232177    0.06232179   -0.24999997   3  O          8
   -0.24999968   -0.56232173    0.06232181   3  O          9
    0.06232215   -0.24999990   -0.56232146   3  O         10

siesta: k-grid: Number of k-points =   108
siesta: k-grid: Cutoff             =    12.304 Ang
siesta: k-grid: Supercell and displacements
siesta: k-grid:    6   0   0      0.500
siesta: k-grid:    0   6   0      0.500
siesta: k-grid:    0   0   6      0.500

superc: Internal auxiliary supercell:     5 x     5 x     5  =     125
superc: Number of atoms, orbitals, and projectors:   1250  4250 10000

outcell: Unit cell vectors (Ang):
        4.701747   -0.144176   -0.094380
        3.027707    3.600028   -0.094380
        3.027707    1.353693    3.337158

outcell: Cell vector modules (Ang)   :    4.704904    4.704904    4.704904
outcell: Cell angles (23,13,12) (deg):     51.6806     51.6806     51.6806
outcell: Cell volume (Ang**3)        :     59.2267

InitMesh: MESH =    30 x    30 x    30 =       27000
InitMesh: Mesh cutoff (required, used) =   100.000   150.487 Ry

siesta: Eharris(eV) =   -2963.044998


siesta: Eharris(eV) =   -2963.044998


siesta: Atomic forces (eV/Ang):
     1    0.000093   -0.000020    0.000094
     2   -0.000165   -0.000168   -0.000084
     3    0.000256    0.000110    0.000042
     4    0.000237    0.000141    0.000062
     5    0.994744   -2.225040   -0.000014
     6   -0.000078    1.334876   -2.039211
     7   -0.994871    0.890177    2.039154
     8   -0.994877    2.225023   -0.000023
     9   -0.000087   -1.334970    2.039276
    10    0.994776   -0.890102   -2.039325
----------------------------------------
   Tot    0.000028    0.000026   -0.000030
----------------------------------------
   Max    2.225040
   Res    1.089999    sqrt( Sum f_i^2 / 3N )
----------------------------------------
   Max    2.225040    constrained

Stress-tensor-Voigt (kbar):     -130.21     -307.01     -332.26       98.80       28.92       64.67
Target enthalpy (eV/cell)    -2905.8842

siesta: Stress tensor (static) (eV/Ang**3):
        -0.081267    0.061664    0.040366
         0.061664   -0.191617    0.018048
         0.040366    0.018048   -0.207375

siesta: Pressure (static):        256.48959151  kBar

siesta: Stress tensor (total) (eV/Ang**3):
        -0.081267    0.061664    0.040366
         0.061664   -0.191617    0.018048
         0.040366    0.018048   -0.207375

siesta: Pressure (total):        256.48959151  kBar

* Maximum dynamic memory allocated =    13 MB

siesta:                 ==============================
                            Begin CG move =      6
                        ==============================

outcoor: Atomic coordinates (fractional):                   
   -0.00000056   -0.00000063   -0.00000085   1  Mg         1
    0.49999998    0.50000023    0.49999997   1  Mg         2
    0.24999178    0.24999198    0.24999218   2  C          3
   -0.25000770   -0.25000836   -0.25000805   2  C          4
    0.56333491   -0.06333484    0.25000027   3  O          5
    0.24999917    0.56333376   -0.06333591   3  O          6
   -0.06333302    0.25000265    0.56333656   3  O          7
   -0.56333494    0.06333469   -0.25000015   3  O          8
   -0.24999952   -0.56333517    0.06333496   3  O          9
    0.06333587   -0.24999976   -0.56333436   3  O         10

siesta: k-grid: Number of k-points =   108
siesta: k-grid: Cutoff             =    12.293 Ang
siesta: k-grid: Supercell and displacements
siesta: k-grid:    6   0   0      0.500
siesta: k-grid:    0   6   0      0.500
siesta: k-grid:    0   0   6      0.500

superc: Internal auxiliary supercell:     5 x     5 x     5  =     125
superc: Number of atoms, orbitals, and projectors:   1250  4250 10000

outcell: Unit cell vectors (Ang):
        4.664768   -0.158653   -0.103857
        2.992260    3.582122   -0.103857
        2.992260    1.337844    3.324541

outcell: Cell vector modules (Ang)   :    4.668620    4.668619    4.668620
outcell: Cell angles (23,13,12) (deg):     52.0610     52.0610     52.0610
outcell: Cell volume (Ang**3)        :     58.5255

InitMesh: MESH =    30 x    30 x    30 =       27000
InitMesh: Mesh cutoff (required, used) =   100.000   153.551 Ry

siesta: Eharris(eV) =   -2962.636514


siesta: Eharris(eV) =   -2962.636514


siesta: Atomic forces (eV/Ang):
     1    0.000178   -0.000213    0.000356
     2   -0.000029   -0.000470   -0.000167
     3    0.000995    0.000443    0.000205
     4    0.000965    0.000493    0.000266
     5    0.808881   -1.809725   -0.000049
     6   -0.000056    1.085797   -1.658366
     7   -0.809989    0.723794    1.658332
     8   -0.809254    1.809515   -0.000049
     9   -0.000214   -1.085831    1.658562
    10    0.808662   -0.723892   -1.658815
----------------------------------------
   Tot    0.000139   -0.000088    0.000275
----------------------------------------
   Max    1.809725
   Res    0.886515    sqrt( Sum f_i^2 / 3N )
----------------------------------------
   Max    1.809725    constrained

Stress-tensor-Voigt (kbar):     -184.15     -332.58     -353.78       82.93       24.28       54.30
Target enthalpy (eV/cell)    -2905.6562

siesta: Stress tensor (static) (eV/Ang**3):
        -0.114936    0.051762    0.033890
         0.051762   -0.207578    0.015154
         0.033890    0.015154   -0.220812

siesta: Pressure (static):        290.17124194  kBar

siesta: Stress tensor (total) (eV/Ang**3):
        -0.114936    0.051762    0.033890
         0.051762   -0.207578    0.015154
         0.033890    0.015154   -0.220812

siesta: Pressure (total):        290.17124194  kBar

* Maximum dynamic memory allocated =    13 MB

siesta:                 ==============================
                            Begin CG move =      7
                        ==============================

outcoor: Atomic coordinates (fractional):                   
    0.00000227   -0.00000762    0.00000398   1  Mg         1
    0.50000179    0.49999034    0.49999201   1  Mg         2
    0.24996009    0.24996230    0.24996294   2  C          3
   -0.25003469   -0.25004077   -0.25003853   2  C          4
    0.56936615   -0.06938070    0.24999520   3  O          5
    0.24999138    0.56936713   -0.06937741   3  O          6
   -0.06939357    0.24999370    0.56935922   3  O          7
   -0.56937953    0.06936492   -0.25000758   3  O          8
   -0.25000293   -0.56938514    0.06937025   3  O          9
    0.06936632   -0.25000765   -0.56938786   3  O         10

siesta: k-grid: Number of k-points =   108
siesta: k-grid: Cutoff             =    12.081 Ang
siesta: k-grid: Supercell and displacements
siesta: k-grid:    6   0   0      0.500
siesta: k-grid:    0   6   0      0.500
siesta: k-grid:    0   0   6      0.500

superc: Internal auxiliary supercell:     5 x     5 x     5  =     125
superc: Number of atoms, orbitals, and projectors:   1250  4250 10000

outcell: Unit cell vectors (Ang):
        4.249706   -0.305586   -0.200067
        2.605995    3.370800   -0.200071
        2.605978    1.165141    3.169358

outcell: Cell vector modules (Ang)   :    4.265373    4.265388    4.265384
outcell: Cell angles (23,13,12) (deg):     56.3380     56.3380     56.3374
outcell: Cell volume (Ang**3)        :     50.2246

InitMesh: MESH =    24 x    24 x    24 =       13824
InitMesh: Mesh cutoff (required, used) =   100.000   124.491 Ry

siesta: Eharris(eV) =   -2953.712916


siesta: Eharris(eV) =   -2953.712916


siesta: Atomic forces (eV/Ang):
     1   -0.007418   -0.000326   -0.005579
     2   -0.005860    0.002278    0.000473
     3    0.005502    0.002937    0.001133
     4    0.005510    0.001632    0.001700
     5   -0.654323    1.467721   -0.001182
     6    0.000243   -0.879708    1.344693
     7    0.662515   -0.590442   -1.340319
     8    0.657838   -1.466618   -0.001415
     9    0.000206    0.882720   -1.345909
    10   -0.653079    0.585041    1.348820
----------------------------------------
   Tot    0.011133    0.005236    0.002416
----------------------------------------
   Max    1.467721
   Res    0.719053    sqrt( Sum f_i^2 / 3N )
----------------------------------------
   Max    1.467721    constrained

Stress-tensor-Voigt (kbar):    -1264.15    -1089.79    -1064.75      -97.33      -28.57      -63.81
Target enthalpy (eV/cell)    -2898.9468

siesta: Stress tensor (static) (eV/Ang**3):
        -0.789011   -0.060748   -0.039828
        -0.060748   -0.680188   -0.017833
        -0.039828   -0.017833   -0.664559

siesta: Pressure (static):       1139.56428884  kBar

siesta: Stress tensor (total) (eV/Ang**3):
        -0.789011   -0.060748   -0.039828
        -0.060748   -0.680188   -0.017833
        -0.039828   -0.017833   -0.664559

siesta: Pressure (total):       1139.56428884  kBar
Cycling the Broyden process...

* Maximum dynamic memory allocated =    13 MB

siesta:                 ==============================
                            Begin CG move =      8
                        ==============================

outcoor: Atomic coordinates (fractional):                   
   -0.00001236   -0.00001258   -0.00001467   1  Mg         1
    0.49998925    0.49999138    0.49999067   1  Mg         2
    0.24998770    0.24998964    0.24998880   2  C          3
   -0.25000942   -0.25001399   -0.25001186   2  C          4
    0.56860728   -0.06860880    0.24999809   3  O          5
    0.24999566    0.56860532   -0.06860963   3  O          6
   -0.06860525    0.24999951    0.56861285   3  O          7
   -0.56860754    0.06860658   -0.25000352   3  O          8
   -0.25000126   -0.56860995    0.06860598   3  O          9
    0.06860983   -0.25000373   -0.56860693   3  O         10

siesta: k-grid: Number of k-points =   108
siesta: k-grid: Cutoff             =    11.991 Ang
siesta: k-grid: Supercell and displacements
siesta: k-grid:    6   0   0      0.500
siesta: k-grid:    0   6   0      0.500
siesta: k-grid:    0   0   6      0.500

superc: Internal auxiliary supercell:     5 x     5 x     5  =     125
superc: Number of atoms, orbitals, and projectors:   1250  4250 10000

outcell: Unit cell vectors (Ang):
        4.368428   -0.236104   -0.154560
        2.736940    3.412921   -0.154559
        2.736938    1.223689    3.189757

outcell: Cell vector modules (Ang)   :    4.377533    4.377529    4.377533
outcell: Cell angles (23,13,12) (deg):     54.3298     54.3298     54.3297
outcell: Cell volume (Ang**3)        :     51.4698

InitMesh: MESH =    24 x    24 x    24 =       13824
InitMesh: Mesh cutoff (required, used) =   100.000   115.048 Ry

siesta: Eharris(eV) =   -2955.501718


siesta: Eharris(eV) =   -2955.501718


siesta: Atomic forces (eV/Ang):
     1    0.007937    0.002386    0.003671
     2    0.006085    0.000849    0.001021
     3    0.000273   -0.000049    0.000409
     4    0.000128    0.000742   -0.000031
     5   -0.008022    0.010241    0.002411
     6   -0.000507   -0.009709    0.008683
     7    0.000487   -0.002250   -0.014121
     8    0.002195   -0.012597    0.002469
     9   -0.000547    0.003402   -0.011419
    10   -0.008414    0.006603    0.006863
----------------------------------------
   Tot   -0.000386   -0.000383   -0.000044
----------------------------------------
   Max    0.014121
   Res    0.006177    sqrt( Sum f_i^2 / 3N )
----------------------------------------
   Max    0.014121    constrained

Stress-tensor-Voigt (kbar):    -1012.76    -1059.81    -1066.57       26.27        7.71       17.20
Target enthalpy (eV/cell)    -2900.8321

siesta: Stress tensor (static) (eV/Ang**3):
        -0.632109    0.016399    0.010733
         0.016399   -0.661472    0.004811
         0.010733    0.004811   -0.665696

siesta: Pressure (static):       1046.38107820  kBar

siesta: Stress tensor (total) (eV/Ang**3):
        -0.632109    0.016399    0.010733
         0.016399   -0.661472    0.004811
         0.010733    0.004811   -0.665696

siesta: Pressure (total):       1046.38107820  kBar
Cycling the Broyden process...

* Maximum dynamic memory allocated =    13 MB

siesta:                 ==============================
                            Begin CG move =      9
                        ==============================

outcoor: Atomic coordinates (fractional):                   
   -0.00000159   -0.00000421   -0.00000312   1  Mg         1
    0.49999763    0.49999670    0.49999662   1  Mg         2
    0.24998433    0.24998658    0.24998616   2  C          3
   -0.25001216   -0.25001706   -0.25001503   2  C          4
    0.56687076   -0.06688357    0.24999662   3  O          5
    0.24999387    0.56686955   -0.06688335   3  O          6
   -0.06688375    0.24999658    0.56687322   3  O          7
   -0.56688208    0.06687003   -0.25000535   3  O          8
   -0.25000237   -0.56688544    0.06687105   3  O          9
    0.06687299   -0.25000577   -0.56688416   3  O         10

siesta: k-grid: Number of k-points =   108
siesta: k-grid: Cutoff             =    12.079 Ang
siesta: k-grid: Supercell and displacements
siesta: k-grid:    6   0   0      0.500
siesta: k-grid:    0   6   0      0.500
siesta: k-grid:    0   0   6      0.500

superc: Internal auxiliary supercell:     5 x     5 x     5  =     125
superc: Number of atoms, orbitals, and projectors:   1250  4250 10000

outcell: Unit cell vectors (Ang):
        4.369909   -0.251449   -0.164608
        2.726493    3.424260   -0.164608
        2.726489    1.219017    3.204172

outcell: Cell vector modules (Ang)   :    4.380232    4.380230    4.380235
outcell: Cell angles (23,13,12) (deg):     54.7237     54.7237     54.7235
outcell: Cell volume (Ang**3)        :     52.1224

InitMesh: MESH =    24 x    24 x    24 =       13824
InitMesh: Mesh cutoff (required, used) =   100.000   115.504 Ry

siesta: Eharris(eV) =   -2956.459330


siesta: Eharris(eV) =   -2956.459330


siesta: Atomic forces (eV/Ang):
     1   -0.002255   -0.001146   -0.000513
     2   -0.002006   -0.002069   -0.005975
     3    0.004192    0.001703    0.001479
     4    0.004160    0.002013    0.001262
     5    0.070472   -0.156335   -0.001034
     6   -0.000249    0.094850   -0.142962
     7   -0.069691    0.061830    0.143870
     8   -0.069379    0.156490   -0.000924
     9   -0.000290   -0.092856    0.144133
    10    0.070352   -0.063341   -0.143044
----------------------------------------
   Tot    0.005306    0.001139   -0.003707
----------------------------------------
   Max    0.156490
   Res    0.076690    sqrt( Sum f_i^2 / 3N )
----------------------------------------
   Max    0.156490    constrained

Stress-tensor-Voigt (kbar):     -902.74     -908.03     -909.34        2.95        0.78        1.93
Target enthalpy (eV/cell)    -2901.6477

siesta: Stress tensor (static) (eV/Ang**3):
        -0.563441    0.001840    0.001204
         0.001840   -0.566744    0.000485
         0.001204    0.000485   -0.567559

siesta: Pressure (static):        906.70573204  kBar

siesta: Stress tensor (total) (eV/Ang**3):
        -0.563441    0.001840    0.001204
         0.001840   -0.566744    0.000485
         0.001204    0.000485   -0.567559

siesta: Pressure (total):        906.70573204  kBar
Cycling the Broyden process...

* Maximum dynamic memory allocated =    13 MB

siesta:                 ==============================
                            Begin CG move =     10
                        ==============================

outcoor: Atomic coordinates (fractional):                   
   -0.00000644   -0.00000930   -0.00000790   1  Mg         1
    0.49999386    0.49999088    0.49998309   1  Mg         2
    0.24999288    0.24999488    0.24999504   2  C          3
   -0.25000363   -0.25000836   -0.25000638   2  C          4
    0.56742440   -0.06743524    0.24999569   3  O          5
    0.24999306    0.56742325   -0.06743509   3  O          6
   -0.06743567    0.24999555    0.56742647   3  O          7
   -0.56743339    0.06742338   -0.25000613   3  O          8
   -0.25000323   -0.56743686    0.06742487   3  O          9
    0.06742645   -0.25000665   -0.56743613   3  O         10

siesta: k-grid: Number of k-points =   108
siesta: k-grid: Cutoff             =    12.045 Ang
siesta: k-grid: Supercell and displacements
siesta: k-grid:    6   0   0      0.500
siesta: k-grid:    0   6   0      0.500
siesta: k-grid:    0   0   6      0.500

superc: Internal auxiliary supercell:     5 x     5 x     5  =     125
superc: Number of atoms, orbitals, and projectors:   1250  4250 10000

outcell: Unit cell vectors (Ang):
        4.348052   -0.254983   -0.166921
        2.709284    3.410329   -0.166914
        2.709280    1.211330    3.192378

outcell: Cell vector modules (Ang)   :    4.358719    4.358718    4.358761
outcell: Cell angles (23,13,12) (deg):     54.8480     54.8482     54.8477
outcell: Cell volume (Ang**3)        :     51.5318

InitMesh: MESH =    24 x    24 x    24 =       13824
InitMesh: Mesh cutoff (required, used) =   100.000   116.838 Ry

siesta: Eharris(eV) =   -2955.658043


siesta: Eharris(eV) =   -2955.658043


siesta: Atomic forces (eV/Ang):
     1    0.001520    0.000848   -0.000430
     2    0.003141    0.001427    0.001495
     3   -0.000373    0.000454    0.000145
     4    0.000254   -0.000566   -0.000335
     5    0.034632   -0.039014    0.006134
     6    0.015329    0.031096   -0.039057
     7   -0.005634    0.026034    0.044587
     8   -0.005945    0.051334    0.006330
     9    0.015531   -0.021712    0.043993
    10    0.033442   -0.009201   -0.037767
----------------------------------------
   Tot    0.091898    0.040699    0.025095
----------------------------------------
   Max    0.051334
   Res    0.023231    sqrt( Sum f_i^2 / 3N )
----------------------------------------
   Max    0.051334    constrained

Stress-tensor-Voigt (kbar):     -988.91    -1001.19    -1003.05        6.86        2.03        4.49
Target enthalpy (eV/cell)    -2901.0115

siesta: Stress tensor (static) (eV/Ang**3):
        -0.617222    0.004281    0.002805
         0.004281   -0.624889    0.001264
         0.002805    0.001264   -0.626049

siesta: Pressure (static):        997.71793938  kBar

siesta: Stress tensor (total) (eV/Ang**3):
        -0.617222    0.004281    0.002805
         0.004281   -0.624889    0.001264
         0.002805    0.001264   -0.626049

siesta: Pressure (total):        997.71793938  kBar
Cycling the Broyden process...

* Maximum dynamic memory allocated =    13 MB

siesta:                 ==============================
                            Begin CG move =     11
                        ==============================

outcoor: Atomic coordinates (fractional):                   
   -0.00000546   -0.00000811   -0.00000717   1  Mg         1
    0.49999513    0.49999265    0.49998599   1  Mg         2
    0.24999214    0.24999432    0.24999435   2  C          3
   -0.25000419   -0.25000911   -0.25000710   2  C          4
    0.56725498   -0.06725871    0.24999995   3  O          5
    0.24999728    0.56725344   -0.06725892   3  O          6
   -0.06725878    0.24999979    0.56725722   3  O          7
   -0.56725687    0.06725390   -0.25000187   3  O          8
   -0.24999901   -0.56726025    0.06725512   3  O          9
    0.06725674   -0.25000245   -0.56725948   3  O         10

siesta: k-grid: Number of k-points =   108
siesta: k-grid: Cutoff             =    12.051 Ang
siesta: k-grid: Supercell and displacements
siesta: k-grid:    6   0   0      0.500
siesta: k-grid:    0   6   0      0.500
siesta: k-grid:    0   0   6      0.500

superc: Internal auxiliary supercell:     5 x     5 x     5  =     125
superc: Number of atoms, orbitals, and projectors:   1250  4250 10000

outcell: Unit cell vectors (Ang):
        4.353077   -0.253781   -0.166134
        2.713531    3.413272   -0.166128
        2.713527    1.213228    3.194754

outcell: Cell vector modules (Ang)   :    4.363632    4.363631    4.363669
outcell: Cell angles (23,13,12) (deg):     54.8093     54.8094     54.8089
outcell: Cell volume (Ang**3)        :     51.6520

InitMesh: MESH =    24 x    24 x    24 =       13824
InitMesh: Mesh cutoff (required, used) =   100.000   116.515 Ry

siesta: Eharris(eV) =   -2955.822720


siesta: Eharris(eV) =   -2955.822720


siesta: Atomic forces (eV/Ang):
     1    0.002821    0.001147    0.000972
     2    0.003748    0.001680    0.002321
     3   -0.000017    0.000469    0.000218
     4    0.000475   -0.000281   -0.000186
     5    0.051702   -0.119422    0.001154
     6   -0.000519    0.068629   -0.110564
     7   -0.054374    0.048070    0.107345
     8   -0.054495    0.117854    0.001330
     9   -0.000388   -0.072608    0.107131
    10    0.050778   -0.046045   -0.109729
----------------------------------------
   Tot   -0.000268   -0.000507   -0.000007
----------------------------------------
   Max    0.119422
   Res    0.058035    sqrt( Sum f_i^2 / 3N )
----------------------------------------
   Max    0.119422    constrained

Stress-tensor-Voigt (kbar):     -975.20     -990.57     -992.68        8.58        2.53        5.61
Target enthalpy (eV/cell)    -2901.1563

siesta: Stress tensor (static) (eV/Ang**3):
        -0.608667    0.005355    0.003504
         0.005355   -0.618256    0.001576
         0.003504    0.001576   -0.619574

siesta: Pressure (static):        986.14877046  kBar

siesta: Stress tensor (total) (eV/Ang**3):
        -0.608667    0.005355    0.003504
         0.005355   -0.618256    0.001576
         0.003504    0.001576   -0.619574

siesta: Pressure (total):        986.14877046  kBar
Cycling the Broyden process...

* Maximum dynamic memory allocated =    13 MB

siesta:                 ==============================
                            Begin CG move =     12
                        ==============================

outcoor: Atomic coordinates (fractional):                   
   -0.00000135   -0.00000426   -0.00000296   1  Mg         1
    0.50000147    0.49999882    0.49999310   1  Mg         2
    0.24999223    0.24999536    0.24999528   2  C          3
   -0.25000270   -0.25000881   -0.25000667   2  C          4
    0.56750959   -0.06752103    0.24999815   3  O          5
    0.24999513    0.56750591   -0.06752330   3  O          6
   -0.06752050    0.24999796    0.56751142   3  O          7
   -0.56751901    0.06750792   -0.25000360   3  O          8
   -0.25000085   -0.56752220    0.06750864   3  O          9
    0.06750934   -0.25000443   -0.56752229   3  O         10

siesta: k-grid: Number of k-points =   108
siesta: k-grid: Cutoff             =    12.046 Ang
siesta: k-grid: Supercell and displacements
siesta: k-grid:    6   0   0      0.500
siesta: k-grid:    0   6   0      0.500
siesta: k-grid:    0   0   6      0.500

superc: Internal auxiliary supercell:     5 x     5 x     5  =     125
superc: Number of atoms, orbitals, and projectors:   1250  4250 10000

outcell: Unit cell vectors (Ang):
        4.339212   -0.259150   -0.169648
        2.700285    3.406520   -0.169642
        2.700281    1.207306    3.189972

outcell: Cell vector modules (Ang)   :    4.350253    4.350252    4.350290
outcell: Cell angles (23,13,12) (deg):     54.9696     54.9697     54.9692
outcell: Cell volume (Ang**3)        :     51.4001

InitMesh: MESH =    24 x    24 x    24 =       13824
InitMesh: Mesh cutoff (required, used) =   100.000   117.483 Ry

siesta: Eharris(eV) =   -2955.483315


siesta: Eharris(eV) =   -2955.483315


siesta: Atomic forces (eV/Ang):
     1   -0.001856   -0.001220   -0.000961
     2   -0.002684   -0.001206   -0.000416
     3    0.000196    0.000250    0.000676
     4    0.000336    0.000047    0.000581
     5   -0.010647    0.025727   -0.001113
     6   -0.000167   -0.014407    0.023702
     7    0.012102   -0.011250   -0.022712
     8    0.011902   -0.024912   -0.000968
     9   -0.000307    0.016362   -0.022376
    10   -0.010757    0.009385    0.023565
----------------------------------------
   Tot   -0.001881   -0.001223   -0.000022
----------------------------------------
   Max    0.025727
   Res    0.012438    sqrt( Sum f_i^2 / 3N )
----------------------------------------
   Max    0.025727    constrained

Stress-tensor-Voigt (kbar):    -1034.12    -1024.50    -1023.11       -5.38       -1.57       -3.53
Target enthalpy (eV/cell)    -2900.8542

siesta: Stress tensor (static) (eV/Ang**3):
        -0.645442   -0.003355   -0.002202
        -0.003355   -0.639438   -0.000981
        -0.002202   -0.000981   -0.638568

siesta: Pressure (static):       1027.24535427  kBar

siesta: Stress tensor (total) (eV/Ang**3):
        -0.645442   -0.003355   -0.002202
        -0.003355   -0.639438   -0.000981
        -0.002202   -0.000981   -0.638568

siesta: Pressure (total):       1027.24535427  kBar
Cycling the Broyden process...

* Maximum dynamic memory allocated =    13 MB

siesta:                 ==============================
                            Begin CG move =     13
                        ==============================

outcoor: Atomic coordinates (fractional):                   
   -0.00000188   -0.00000535   -0.00000400   1  Mg         1
    0.49999951    0.49999667    0.49999207   1  Mg         2
    0.24999220    0.24999545    0.24999595   2  C          3
   -0.25000266   -0.25000860   -0.25000603   2  C          4
    0.56754237   -0.06754816    0.25000012   3  O          5
    0.24999727    0.56753847   -0.06755084   3  O          6
   -0.06754798    0.24999965    0.56754341   3  O          7
   -0.56754653    0.06754077   -0.25000149   3  O          8
   -0.24999910   -0.56754943    0.06754161   3  O          9
    0.06754171   -0.25000232   -0.56755021   3  O         10

siesta: k-grid: Number of k-points =   108
siesta: k-grid: Cutoff             =    12.048 Ang
siesta: k-grid: Supercell and displacements
siesta: k-grid:    6   0   0      0.500
siesta: k-grid:    0   6   0      0.500
siesta: k-grid:    0   0   6      0.500

superc: Internal auxiliary supercell:     5 x     5 x     5  =     125
superc: Number of atoms, orbitals, and projectors:   1250  4250 10000

outcell: Unit cell vectors (Ang):
        4.348424   -0.255387   -0.167185
        2.709231    3.410877   -0.167180
        2.709228    1.211305    3.192975

outcell: Cell vector modules (Ang)   :    4.359124    4.359124    4.359159
outcell: Cell angles (23,13,12) (deg):     54.8579     54.8580     54.8576
outcell: Cell volume (Ang**3)        :     51.5598

InitMesh: MESH =    24 x    24 x    24 =       13824
InitMesh: Mesh cutoff (required, used) =   100.000   116.832 Ry

siesta: Eharris(eV) =   -2955.698927


siesta: Eharris(eV) =   -2955.698927


siesta: Atomic forces (eV/Ang):
     1    0.000098   -0.000206   -0.000114
     2   -0.000144    0.000149    0.000525
     3    0.000786    0.000325   -0.000073
     4    0.000780    0.000329   -0.000019
     5   -0.003425    0.006998   -0.000018
     6   -0.000104   -0.004561    0.006267
     7    0.003077   -0.003092   -0.006482
     8    0.002898   -0.007246    0.000100
     9   -0.000331    0.004195   -0.006562
    10   -0.003435    0.002860    0.006335
----------------------------------------
   Tot    0.000200   -0.000248   -0.000040
----------------------------------------
   Max    0.007246
   Res    0.003490    sqrt( Sum f_i^2 / 3N )
----------------------------------------
   Max    0.007246    constrained

Stress-tensor-Voigt (kbar):     -992.07     -999.61    -1000.68        4.22        1.24        2.77
Target enthalpy (eV/cell)    -2901.0180

siesta: Stress tensor (static) (eV/Ang**3):
        -0.619196    0.002634    0.001727
         0.002634   -0.623904    0.000773
         0.001727    0.000773   -0.624571

siesta: Pressure (static):        997.45684229  kBar

siesta: Stress tensor (total) (eV/Ang**3):
        -0.619196    0.002634    0.001727
         0.002634   -0.623904    0.000773
         0.001727    0.000773   -0.624571

siesta: Pressure (total):        997.45684229  kBar

* Maximum dynamic memory allocated =    13 MB

outcoor: Relaxed atomic coordinates (fractional):           
   -0.00000188   -0.00000535   -0.00000400   1  Mg         1
    0.49999951    0.49999667    0.49999207   1  Mg         2
    0.24999220    0.24999545    0.24999595   2  C          3
   -0.25000266   -0.25000860   -0.25000603   2  C          4
    0.56754237   -0.06754816    0.25000012   3  O          5
    0.24999727    0.56753847   -0.06755084   3  O          6
   -0.06754798    0.24999965    0.56754341   3  O          7
   -0.56754653    0.06754077   -0.25000149   3  O          8
   -0.24999910   -0.56754943    0.06754161   3  O          9
    0.06754171   -0.25000232   -0.56755021   3  O         10

outcell: Unit cell vectors (Ang):
        4.348424   -0.255387   -0.167185
        2.709231    3.410877   -0.167180
        2.709228    1.211305    3.192975

outcell: Cell vector modules (Ang)   :    4.359124    4.359124    4.359159
outcell: Cell angles (23,13,12) (deg):     54.8579     54.8580     54.8576
outcell: Cell volume (Ang**3)        :     51.5598

siesta: Program's energy decomposition (eV):
siesta: Eions   =      5228.674091
siesta: Ena     =      1067.508869
siesta: Ekin    =      2501.977335
siesta: Enl     =      -410.723669
siesta: DEna    =      -141.596861
siesta: DUscf   =        27.593936
siesta: DUext   =         0.000000
siesta: Exc     =      -749.284204
siesta: eta*DQ  =         0.000000
siesta: Emadel  =         0.000000
siesta: Ekinion =         0.000000
siesta: Eharris =     -2955.698927
siesta: Etot    =     -2933.198685
siesta: FreeEng =     -2933.198685

siesta: Final energy (eV):
siesta:       Kinetic =    2501.977335
siesta:       Hartree =     684.643560
siesta:    Ext. field =       0.000000
siesta:   Exch.-corr. =    -749.284204
siesta:  Ion-electron =   -3545.410446
siesta:       Ion-ion =   -1825.124931
siesta:       Ekinion =       0.000000
siesta:         Total =   -2933.198685

siesta: Stress tensor (static) (eV/Ang**3):
siesta:    -0.619196    0.002634    0.001727
siesta:     0.002634   -0.623904    0.000773
siesta:     0.001727    0.000773   -0.624571

siesta: Constrained stress tensor (static) (eV/Ang**3):
siesta:    -0.619196    0.002634    0.001727
siesta:     0.002634   -0.623904    0.000773
siesta:     0.001727    0.000773   -0.624571

siesta: Cell volume =         51.559772 Ang**3

siesta: Pressure (static):
siesta:                Solid            Molecule  Units
siesta:           0.00678044          0.00678458  Ry/Bohr**3
siesta:           0.62255686          0.62293682  eV/Ang**3
siesta:         997.45684229        998.06560887  kBar

* Maximum dynamic memory allocated : Node    0 =    13 MB

* Maximum memory occured during ranger                        

timer: CPU execution times:
timer:  Routine       Calls   Time/call    Tot.time        %
timer:  siesta            1      69.141      69.141   100.00
timer:  Setup             1       0.648       0.648     0.94
timer:  bands             1       0.001       0.001     0.00
timer:  writewave         1       0.000       0.000     0.00
timer:  KSV_init          1       0.001       0.001     0.00
timer:  IterMD           14       4.890      68.458    99.01
timer:  hsparse          17       0.353       5.997     8.67
timer:  overfsm          28       0.014       0.385     0.56
timer:  IterSCF          28       2.055      57.552    83.24
timer:  kinefsm          28       0.013       0.354     0.51
timer:  nlefsm           28       0.634      17.754    25.68
timer:  DHSCF            28       0.925      25.902    37.46
timer:  DHSCF1           14       0.110       1.541     2.23
timer:  DHSCF2           14       0.782      10.949    15.84
timer:  REORD           252       0.000       0.027     0.04
timer:  POISON           42       0.004       0.176     0.25
timer:  DHSCF3           28       0.229       6.405     9.26
timer:  rhoofd           28       0.124       3.458     5.00
timer:  cellXC           42       0.012       0.495     0.72
timer:  vmat             28       0.088       2.464     3.56
timer:  diagon           14       0.935      13.089    18.93
timer:  cdiag          3024       0.002       5.091     7.36
timer:  cdiag1         3024       0.000       0.154     0.22
timer:  cdiag2         3024       0.000       0.668     0.97
timer:  cdiag3         3024       0.001       3.959     5.73
timer:  cdiag4         3024       0.000       0.158     0.23
timer:  DHSCF4           14       0.499       6.992    10.11
timer:  dfscf            14       0.321       4.494     6.50
timer:  optical           1       0.000       0.000     0.00
  

elaps: ELAPSED times:
elaps:  Routine       Calls   Time/call    Tot.time        %
elaps:  siesta            1      70.630      70.630   100.00
elaps:  Setup             1       1.388       1.388     1.96
elaps:  bands             1       0.000       0.000     0.00
elaps:  writewave         1       0.001       0.001     0.00
elaps:  KSV_init          1       0.000       0.000     0.00
elaps:  IterMD           14       4.943      69.205    97.98
elaps:  hsparse          17       0.353       5.993     8.49
elaps:  overfsm          28       0.014       0.388     0.55
elaps:  IterSCF          28       2.074      58.060    82.20
elaps:  kinefsm          28       0.013       0.353     0.50
elaps:  nlefsm           28       0.634      17.755    25.14
elaps:  DHSCF            28       0.925      25.898    36.67
elaps:  DHSCF1           14       0.110       1.543     2.18
elaps:  DHSCF2           14       0.782      10.948    15.50
elaps:  REORD           252       0.000       0.026     0.04
elaps:  POISON           42       0.004       0.175     0.25
elaps:  DHSCF3           28       0.229       6.406     9.07
elaps:  rhoofd           28       0.124       3.459     4.90
elaps:  cellXC           42       0.012       0.495     0.70
elaps:  vmat             28       0.088       2.467     3.49
elaps:  diagon           14       0.936      13.098    18.54
elaps:  cdiag          3024       0.002       5.114     7.24
elaps:  cdiag1         3024       0.000       0.162     0.23
elaps:  cdiag2         3024       0.000       0.689     0.97
elaps:  cdiag3         3024       0.001       3.932     5.57
elaps:  cdiag4         3024       0.000       0.158     0.22
elaps:  DHSCF4           14       0.499       6.990     9.90
elaps:  dfscf            14       0.321       4.492     6.36
elaps:  optical           1       0.000       0.000     0.00
  
>> End of run:  24-FEB-2006  12:55:10
