Siesta Version: siesta-2.0.1
Architecture  : intel9-mkl8
Compiler flags: ifort -w -O2 -mp
SERIAL version

* Running in serial mode
>> Start of run:  19-DEC-2006  16:21:00

                           ***********************       
                           *  WELCOME TO SIESTA  *       
                           ***********************       

reinit: Reading from standard input
************************** Dump of input data file ****************************
#
# MgCO3 in primitive cell. SZ. Variable cell. Harris. Broyden Optim
#
SystemName	MgCo3 R-3c Harris -- SZ, 100 R -- variable cell at 100 Gpa
SystemLabel	var_cell
NumberOfSpecies		3
NumberOfAtoms	       10
%block ChemicalSpeciesLabel
      1      12     Mg
      2       6     C
      3       8     O
%endblock ChemicalSpeciesLabel
PAO.BasisSize  SZ
Diag.Divide-and-Conquer F
# Rhombohedral primitive cell
# (HEX 3-fold cell had A=4.635 and C=15.023, so alpha=48.179 degrees
#  and a=5.67783 Ang)
LatticeConstant     5.67783 Ang
%block LatticeParameters
1.0 1.0 1.0 48.179 48.179 48.179
%endblock LatticeParameters
AtomicCoordinatesFormat    Fractional
%block AtomicCoordinatesAndAtomicSpecies
  0.0         0.0         0.0      1
  0.5         0.5         0.5      1
  0.25        0.25        0.25     2
 -0.25       -0.25       -0.25     2
  0.5274     -0.0274      0.25     3
  0.25        0.5274     -0.0274   3
 -0.0274      0.25        0.5274   3
 -0.5274      0.0274     -0.25     3
 -0.25       -0.5274      0.0274   3
  0.0274     -0.25       -0.5274   3
%endblock AtomicCoordinatesAndAtomicSpecies
kgrid_cutoff 15.0 Ang
Solution.Method       diagon
MeshCutoff             100 Ry
DM.NumberBroyden       4
DM.UseSaveDM           T
DM.MixingWeight        0.1         # New DM amount for next SCF cycle
DM.Tolerance           1.d-3       # Tolerance in maximum difference
                                   # between input and output DM
MaxSCFIterations       20
WriteCoorStep      .true.
WriteForces        .true.
HarrisFunctional T
MD.TypeOfRun         Broyden
MD.Variable-Cell      T
MD.Target-pressure   100.0 GPa
MD.Num-CG-steps	     30
MD.Max-Stress-Tol    2.0 GPa
MD.Broyden.Initial.Inverse.Jacobian 1.0
MD.Broyden.History.Steps 6
************************** End of input data file *****************************

reinit: -----------------------------------------------------------------------
reinit: System Name: MgCo3 R-3c Harris -- SZ, 100 R -- variable cell at 100 Gpa 
reinit: -----------------------------------------------------------------------
reinit: System Label: var_cell                                                    
reinit: -----------------------------------------------------------------------

initatom: Reading input for the pseudopotentials and atomic orbitals ----------
 Species number:            1  Label: Mg Atomic number:          12
 Species number:            2  Label: C Atomic number:           6
 Species number:            3  Label: O Atomic number:           8
Ground state valence configuration:   3s02
Reading pseudopotential information in formatted form from Mg.psf
Ground state valence configuration:   2s02  2p02
Reading pseudopotential information in formatted form from C.psf
Ground state valence configuration:   2s02  2p04
Reading pseudopotential information in formatted form from O.psf
For Mg, standard SIESTA heuristics set lmxkb to 1
 (one more than the basis l, including polarization orbitals).
Use PS.lmax or PS.KBprojectors blocks to override.
For C, standard SIESTA heuristics set lmxkb to 2
 (one more than the basis l, including polarization orbitals).
Use PS.lmax or PS.KBprojectors blocks to override.
For O, standard SIESTA heuristics set lmxkb to 2
 (one more than the basis l, including polarization orbitals).
Use PS.lmax or PS.KBprojectors blocks to override.

<basis_specs>
===============================================================================
Mg                   Z=  12    Mass=  24.310        Charge=  0.0000    
Lmxo=0 Lmxkb=1     BasisType=split      Semic=F
L=0  Nsemic=0  Cnfigmx=3
          n=1  nzeta=1  polorb=0
               vcte:    0.0000    
               rinn:    0.0000    
                rcs:    0.0000    
            lambdas:    1.0000    
-------------------------------------------------------------------------------
L=0  Nkbl=1  erefs: 0.17977+309
L=1  Nkbl=1  erefs: 0.17977+309
===============================================================================
</basis_specs>

atom: Called for Mg  (Z =  12)

read_vps: Pseudopotential generation method:
read_vps: ATM3      Troullier-Martins                       

read_vps: Valence configuration (pseudopotential and basis set generation):
3s( 2.00) rc: 2.59
3p( 0.00) rc: 2.59
Total valence charge:    2.00000

xc_check: Exchange-correlation functional:
xc_check: Ceperley-Alder
V l=0 = -2*Zval/r beyond r=  3.5878
V l=1 = -2*Zval/r beyond r=  3.5878
All V_l potentials equal beyond r=  2.5600
This should be close to max(r_c) in ps generation
All pots = -2*Zval/r beyond r=  3.5878
Using large-core scheme for Vlocal

atom: Estimated core radius    3.58779

atom: Including non-local core corrections could be a good idea
atom: Maximum radius for 4*pi*r*r*local-pseudopot. charge    3.91588
atom: Maximum radius for r*vlocal+2*Zval:    3.63292
GHOST: No ghost state for L =  0
GHOST: No ghost state for L =  1

KBgen: Kleinman-Bylander projectors: 
   l= 0   rc=  2.657845   el= -0.351328   Ekb=  2.184400   kbcos=  0.257081
   l= 1   rc=  2.657845   el= -0.101748   Ekb=  0.525536   kbcos=  0.270508

KBgen: Total number of  Kleinman-Bylander projectors:    4
atom: -------------------------------------------------------------------------

atom: SANKEY-TYPE ORBITALS:

SPLIT: Orbitals with angular momentum L= 0

SPLIT: Basis orbitals for state 3s

SPLIT: PAO cut-off radius determined from an
SPLIT: energy shift=  0.020000 Ry

   izeta = 1
                 lambda =    1.000000
                     rc =    6.619780
                 energy =   -0.332103
                kinetic =    0.289627
    potential(screened) =   -0.621729
       potential(ionic) =   -1.387191
atom: Total number of Sankey-type orbitals:  1

atm_pop: Valence configuration(local Pseudopot. screening):
 3s( 2.00)                                                            
Vna: chval, zval:    2.00000   2.00000

Vna:  Cut-off radius for the neutral-atom potential:   6.619780

atom: _________________________________________________________________________

<basis_specs>
===============================================================================
C                    Z=   6    Mass=  12.010        Charge=  0.0000    
Lmxo=1 Lmxkb=2     BasisType=split      Semic=F
L=0  Nsemic=0  Cnfigmx=2
          n=1  nzeta=1  polorb=0
               vcte:    0.0000    
               rinn:    0.0000    
                rcs:    0.0000    
            lambdas:    1.0000    
L=1  Nsemic=0  Cnfigmx=2
          n=1  nzeta=1  polorb=0
               vcte:    0.0000    
               rinn:    0.0000    
                rcs:    0.0000    
            lambdas:    1.0000    
-------------------------------------------------------------------------------
L=0  Nkbl=1  erefs: 0.17977+309
L=1  Nkbl=1  erefs: 0.17977+309
L=2  Nkbl=1  erefs: 0.17977+309
===============================================================================
</basis_specs>

atom: Called for C   (Z =   6)

read_vps: Pseudopotential generation method:
read_vps: ATM3      Troullier-Martins                       

read_vps: Valence configuration (pseudopotential and basis set generation):
2s( 2.00) rc: 1.49
2p( 2.00) rc: 1.52
3d( 0.00) rc: 1.58
Total valence charge:    4.00000

xc_check: Exchange-correlation functional:
xc_check: Ceperley-Alder
V l=0 = -2*Zval/r beyond r=  1.4666
V l=1 = -2*Zval/r beyond r=  1.5038
V l=2 = -2*Zval/r beyond r=  1.5612
All V_l potentials equal beyond r=  1.5612
This should be close to max(r_c) in ps generation
All pots = -2*Zval/r beyond r=  1.5612

VLOCAL1: 99.0% of the norm of Vloc inside     17.809 Ry
VLOCAL1: 99.9% of the norm of Vloc inside     40.586 Ry
atom: Maximum radius for 4*pi*r*r*local-pseudopot. charge    1.88329
atom: Maximum radius for r*vlocal+2*Zval:    1.62091
GHOST: No ghost state for L =  0
GHOST: No ghost state for L =  1
GHOST: No ghost state for L =  2

KBgen: Kleinman-Bylander projectors: 
   l= 0   rc=  1.747182   el= -1.001947   Ekb=  5.181700   kbcos=  0.300603
   l= 1   rc=  1.747182   el= -0.398598   Ekb= -4.328763   kbcos= -0.367074
   l= 2   rc=  1.955272   el=  0.002326   Ekb= -1.016175   kbcos= -0.009979

KBgen: Total number of  Kleinman-Bylander projectors:    9
atom: -------------------------------------------------------------------------

atom: SANKEY-TYPE ORBITALS:

SPLIT: Orbitals with angular momentum L= 0

SPLIT: Basis orbitals for state 2s

SPLIT: PAO cut-off radius determined from an
SPLIT: energy shift=  0.020000 Ry

   izeta = 1
                 lambda =    1.000000
                     rc =    4.191849
                 energy =   -0.983897
                kinetic =    0.886956
    potential(screened) =   -1.870853
       potential(ionic) =   -5.479661

SPLIT: Orbitals with angular momentum L= 1

SPLIT: Basis orbitals for state 2p

SPLIT: PAO cut-off radius determined from an
SPLIT: energy shift=  0.020000 Ry

   izeta = 1
                 lambda =    1.000000
                     rc =    4.870301
                 energy =   -0.379093
                kinetic =    2.545357
    potential(screened) =   -2.924450
       potential(ionic) =   -6.433151
atom: Total number of Sankey-type orbitals:  4

atm_pop: Valence configuration(local Pseudopot. screening):
 2s( 2.00)                                                            
 2p( 2.00)                                                            
Vna: chval, zval:    4.00000   4.00000

Vna:  Cut-off radius for the neutral-atom potential:   4.870301

atom: _________________________________________________________________________

<basis_specs>
===============================================================================
O                    Z=   8    Mass=  16.000        Charge=  0.0000    
Lmxo=1 Lmxkb=2     BasisType=split      Semic=F
L=0  Nsemic=0  Cnfigmx=2
          n=1  nzeta=1  polorb=0
               vcte:    0.0000    
               rinn:    0.0000    
                rcs:    0.0000    
            lambdas:    1.0000    
L=1  Nsemic=0  Cnfigmx=2
          n=1  nzeta=1  polorb=0
               vcte:    0.0000    
               rinn:    0.0000    
                rcs:    0.0000    
            lambdas:    1.0000    
-------------------------------------------------------------------------------
L=0  Nkbl=1  erefs: 0.17977+309
L=1  Nkbl=1  erefs: 0.17977+309
L=2  Nkbl=1  erefs: 0.17977+309
===============================================================================
</basis_specs>

atom: Called for O   (Z =   8)

read_vps: Pseudopotential generation method:
read_vps: ATM3      Troullier-Martins                       

read_vps: Valence configuration (pseudopotential and basis set generation):
2s( 2.00) rc: 1.14
2p( 4.00) rc: 1.14
3d( 0.00) rc: 1.14
Total valence charge:    6.00000

xc_check: Exchange-correlation functional:
xc_check: Ceperley-Alder
V l=0 = -2*Zval/r beyond r=  1.1278
V l=1 = -2*Zval/r beyond r=  1.1278
V l=2 = -2*Zval/r beyond r=  1.1278
All V_l potentials equal beyond r=  1.1278
This should be close to max(r_c) in ps generation
All pots = -2*Zval/r beyond r=  1.1278

VLOCAL1: 99.0% of the norm of Vloc inside     34.126 Ry
VLOCAL1: 99.9% of the norm of Vloc inside     77.774 Ry
atom: Maximum radius for 4*pi*r*r*local-pseudopot. charge    1.37759
atom: Maximum radius for r*vlocal+2*Zval:    1.18566
GHOST: No ghost state for L =  0
GHOST: No ghost state for L =  1
GHOST: No ghost state for L =  2

KBgen: Kleinman-Bylander projectors: 
   l= 0   rc=  1.294105   el= -1.742414   Ekb=  9.135903   kbcos=  0.326910
   l= 1   rc=  1.294105   el= -0.676589   Ekb= -8.124878   kbcos= -0.395047
   l= 2   rc=  1.448233   el=  0.002386   Ekb= -2.039267   kbcos= -0.003484

KBgen: Total number of  Kleinman-Bylander projectors:    9
atom: -------------------------------------------------------------------------

atom: SANKEY-TYPE ORBITALS:

SPLIT: Orbitals with angular momentum L= 0

SPLIT: Basis orbitals for state 2s

SPLIT: PAO cut-off radius determined from an
SPLIT: energy shift=  0.020000 Ry

   izeta = 1
                 lambda =    1.000000
                     rc =    3.305093
                 energy =   -1.723766
                kinetic =    1.614911
    potential(screened) =   -3.338677
       potential(ionic) =  -11.304675

SPLIT: Orbitals with angular momentum L= 1

SPLIT: Basis orbitals for state 2p

SPLIT: PAO cut-off radius determined from an
SPLIT: energy shift=  0.020000 Ry

   izeta = 1
                 lambda =    1.000000
                     rc =    3.937239
                 energy =   -0.658841
                kinetic =    5.005986
    potential(screened) =   -5.664827
       potential(ionic) =  -13.452360
atom: Total number of Sankey-type orbitals:  4

atm_pop: Valence configuration(local Pseudopot. screening):
 2s( 2.00)                                                            
 2p( 4.00)                                                            
Vna: chval, zval:    6.00000   6.00000

Vna:  Cut-off radius for the neutral-atom potential:   3.937239

atom: _________________________________________________________________________

prinput: Basis input ----------------------------------------------------------

PAO.BasisType split     

%block ChemicalSpeciesLabel
    1   12 Mg                      # Species index, atomic number, species label
    2    6 C                       # Species index, atomic number, species label
    3    8 O                       # Species index, atomic number, species label
%endblock ChemicalSpeciesLabel

%block PAO.Basis                 # Define Basis set
Mg          1                    # Species label, number of l-shells
 n=3   0   1                         # n, l, Nzeta 
   6.620   
   1.000   
C           2                    # Species label, number of l-shells
 n=2   0   1                         # n, l, Nzeta 
   4.192   
   1.000   
 n=2   1   1                         # n, l, Nzeta 
   4.870   
   1.000   
O           2                    # Species label, number of l-shells
 n=2   0   1                         # n, l, Nzeta 
   3.305   
   1.000   
 n=2   1   1                         # n, l, Nzeta 
   3.937   
   1.000   
%endblock PAO.Basis

prinput: ----------------------------------------------------------------------


siesta: ******************** Simulation parameters ****************************
siesta:
siesta: The following are some of the parameters of the simulation.
siesta: A complete list of the parameters used, including default values,
siesta: can be found in file out.fdf
siesta:
coor:   Atomic-coordinates input format  =     Fractional
redata: Number of spin components        =     1
redata: Long output                      =     F
redata: Number of Atomic Species         =     3
redata: Charge density info will appear in .RHO file
redata: Write Mulliken Pop.              =     NO
redata: Mesh Cutoff                      =   100.0000  Ry
redata: Net charge of the system         =     0.0000 |e|
redata: Max. number of SCF Iter          =    20
redata: Broyden mixing with     4 saved histories.
redata: Mix DM in first SCF step ?       =     F
redata: Write Pulay info on disk?        =     F
redata: New DM Mixing Weight             =     0.1000
redata: New DM Occupancy tolerance       = 0.000000000001
redata: No kicks to SCF
redata: DM Mixing Weight for Kicks       =     0.5000
redata: DM Tolerance for SCF             =     0.001000
redata: Require Energy convergence for SCF =     F
redata: DM Energy tolerance for SCF      =     0.000100 eV
redata: Using Saved Data (generic)   =     F
redata: Use continuation files for DM    =     T
redata: Neglect nonoverlap interactions  =     F
redata: Method of Calculation            =     Diagonalization
redata: Divide and Conquer               =     F
redata: Electronic Temperature           =     0.0019  Ry
redata: Fix the spin of the system       =     F
redata: Dynamics option                  =     Broyden coord. optimization
redata: Variable cell                    =     T
redata: Maximum number of CG moves       =    30
redata: Force tolerance                  =     0.0016  Ry/Bohr
redata: Stress tolerance                 =     2.0000  GPa
redata: ***********************************************************************

siesta: Atomic coordinates (Bohr) and species
siesta:      0.00000   0.00000   0.00000  1        1
siesta:     12.51930   5.59740   3.66414  1        2
siesta:      6.25965   2.79870   1.83207  2        3
siesta:     -6.25965  -2.79870  -1.83207  2        4
siesta:      7.25136   0.58061   1.83207  3        5
siesta:      6.25965   4.12944  -0.20079  3        6
siesta:      5.26794   3.68605   3.86493  3        7
siesta:     -7.25136  -0.58061  -1.83207  3        8
siesta:     -6.25965  -4.12944   0.20079  3        9
siesta:     -5.26794  -3.68605  -3.86493  3       10

initatomlists: Number of atoms, orbitals, and projectors:     10    34    80

siesta: System type = bulk      

siesta: k-grid: Number of k-points =   154
siesta: k-grid: Cutoff (effective) =    16.222 Ang
siesta: k-grid: Supercell and displacements
siesta: k-grid:   -7   0   7      0.500
siesta: k-grid:    0  -7   7      0.000
siesta: k-grid:    0   0   6      0.000
Naive supercell factors:     4    4    4

superc: Internal auxiliary supercell:     5 x     5 x     4  =     100
superc: Number of atoms, orbitals, and projectors:   1000  3400  8000

* Maximum dynamic memory allocated =     1 MB

siesta:                 ==============================
                            Begin CG move =      0
                        ==============================

outcoor: Atomic coordinates (fractional):                   
    0.00000000    0.00000000    0.00000000   1  Mg         1
    0.50000000    0.50000000    0.50000000   1  Mg         2
    0.25000000    0.25000000    0.25000000   2  C          3
   -0.25000000   -0.25000000   -0.25000000   2  C          4
    0.52740000   -0.02740000    0.25000000   3  O          5
    0.25000000    0.52740000   -0.02740000   3  O          6
   -0.02740000    0.25000000    0.52740000   3  O          7
   -0.52740000    0.02740000   -0.25000000   3  O          8
   -0.25000000   -0.52740000    0.02740000   3  O          9
    0.02740000   -0.25000000   -0.52740000   3  O         10

superc: Internal auxiliary supercell:     5 x     5 x     4  =     100
superc: Number of atoms, orbitals, and projectors:   1000  3400  8000

outcell: Unit cell vectors (Ang):
        5.677830    0.000000    0.000000
        3.786009    4.231299    0.000000
        3.786009    1.692731    3.877957

outcell: Cell vector modules (Ang)   :    5.677830    5.677830    5.677830
outcell: Cell angles (23,13,12) (deg):     48.1790     48.1790     48.1790
outcell: Cell volume (Ang**3)        :     93.1663

InitMesh: MESH =    32 x    32 x    32 =       32768
InitMesh: Mesh cutoff (required, used) =   100.000   112.857 Ry

* Maximum dynamic memory allocated =    12 MB

stepf: Fermi-Dirac step function
 Broyden: No of relevant DM elements:         9610
 maxit for broyden:            4
 cycle on maxit:  T
 variable weight:  T
 initial alpha:   0.100000000000000     

siesta: Program's energy decomposition (eV):
siesta: Eions   =      5228.674091
siesta: Ena     =      1092.429444
siesta: Ekin    =      2100.835149
siesta: Enl     =      -258.044678
siesta: DEna    =        -0.000015
siesta: DUscf   =         0.000000
siesta: DUext   =         0.000000
siesta: Exc     =      -683.847183
siesta: eta*DQ  =         0.000000
siesta: Emadel  =         0.000000
siesta: Ekinion =         0.000000
siesta: Eharris =     -2966.326649
siesta: Etot    =     -2977.301374
siesta: FreeEng =     -2977.301374

siesta: Eharris(eV) =   -2966.326649


siesta: Eharris(eV) =   -2966.326649

timer: Routine,Calls,Time,% = IterSCF        1       3.602  73.31
elaps: Routine,Calls,Wall,% = IterSCF        1       3.647  72.45

siesta: E_KS - E_eggbox =     -2949.8288

siesta: Atomic forces (eV/Ang):
     1    0.000000    0.000000    0.000000
     2   -0.000013   -0.000006   -0.000013
     3   -0.000131   -0.000058   -0.000130
     4   -0.000181    0.000028   -0.000041
     5    2.760278   -6.173726   -0.000004
     6    0.000004    3.703925   -5.658187
     7   -2.760271    2.469806    5.658181
     8   -2.760280    6.173723    0.000003
     9    0.000000   -3.703926    5.658183
    10    2.760284   -2.469812   -5.658183
----------------------------------------
   Tot   -0.000310   -0.000045   -0.000192
----------------------------------------
   Max    6.173726
   Res    3.024370    sqrt( Sum f_i^2 / 3N )
----------------------------------------
   Max    6.173726    constrained

Stress-tensor-Voigt (kbar):      567.99      382.08      355.54      103.89       30.41       68.01
Target enthalpy (eV/cell)    -2891.6795

siesta: Stress tensor (static) (eV/Ang**3):
         0.354510    0.064841    0.042446
         0.064841    0.238476    0.018978
         0.042446    0.018978    0.221909

siesta: Pressure (static):       -435.20667223  kBar

siesta: Stress tensor (total) (eV/Ang**3):
         0.354510    0.064841    0.042446
         0.064841    0.238476    0.018978
         0.042446    0.018978    0.221909

siesta: Pressure (total):       -435.20667223  kBar
 
Broyden_optim: max_history for broyden:   6
Broyden_optim: cycle on maxit: T
Broyden_optim: initial inverse jacobian:   1.0000
 
Broyden_optim: No of elements:     36

Broyden_optim: No target stress found, assuming hydrostatic MD.TargetPressure.

Broyden_optim: Target stress (kBar)
Broyden_optim:     -1000.000       0.000       0.000
Broyden_optim:         0.000   -1000.000       0.000
Broyden_optim:         0.000       0.000   -1000.000

* Maximum dynamic memory allocated =    12 MB

siesta:                 ==============================
                            Begin CG move =      1
                        ==============================

outcoor: Atomic coordinates (fractional):                   
    0.00000000    0.00000000    0.00000000   1  Mg         1
    0.49999995    0.49999995    0.49999993   1  Mg         2
    0.24999953    0.24999953    0.24999930   2  C          3
   -0.25000066   -0.25000036   -0.25000051   2  C          4
    0.53740572   -0.03740575    0.24999998   3  O          5
    0.25000001    0.53740574   -0.03740575   3  O          6
   -0.03740569    0.25000005    0.53740578   3  O          7
   -0.53740572    0.03740574   -0.24999999   3  O          8
   -0.25000000   -0.53740574    0.03740575   3  O          9
    0.03740574   -0.25000003   -0.53740576   3  O         10

siesta: k-grid: Number of k-points =   154
siesta: k-grid: Cutoff (effective) =    15.185 Ang
siesta: k-grid: Supercell and displacements
siesta: k-grid:   -7   0   7      0.500
siesta: k-grid:    0  -7   7      0.000
siesta: k-grid:    0   0   6      0.000
Naive supercell factors:     4    4    4

superc: Internal auxiliary supercell:     4 x     5 x     5  =     100
superc: Number of atoms, orbitals, and projectors:   1000  3400  8000

outcell: Unit cell vectors (Ang):
        5.251635   -0.028238   -0.018485
        3.480776    3.932513   -0.018485
        3.480776    1.556261    3.611517

outcell: Cell vector modules (Ang)   :    5.251743    5.251743    5.251743
outcell: Cell angles (23,13,12) (deg):     48.7948     48.7948     48.7948
outcell: Cell volume (Ang**3)        :     75.2462

InitMesh: MESH =    30 x    30 x    30 =       27000
InitMesh: Mesh cutoff (required, used) =   100.000   116.744 Ry

siesta: Eharris(eV) =   -2965.796805


siesta: Eharris(eV) =   -2965.796805


siesta: Atomic forces (eV/Ang):
     1   -0.000026   -0.000013   -0.000004
     2    0.000017    0.000008    0.000005
     3    0.000007    0.000005    0.000067
     4    0.000049   -0.000062    0.000007
     5    3.774806   -8.442861   -0.000012
     6   -0.000008    5.065285   -7.737848
     7   -3.774789    3.377565    7.737788
     8   -3.774841    8.442895   -0.000001
     9    0.000008   -5.065271    7.737778
    10    3.774796   -3.377560   -7.737784
----------------------------------------
   Tot    0.000020   -0.000009   -0.000005
----------------------------------------
   Max    8.442895
   Res    4.135961    sqrt( Sum f_i^2 / 3N )
----------------------------------------
   Max    8.442895    constrained

Stress-tensor-Voigt (kbar):      453.52       49.24       -8.48      225.91       66.12      147.88
Target enthalpy (eV/cell)    -2901.8854

siesta: Stress tensor (static) (eV/Ang**3):
         0.283059    0.141001    0.092301
         0.141001    0.030734    0.041268
         0.092301    0.041268   -0.005292

siesta: Pressure (static):       -164.75931973  kBar

siesta: Stress tensor (total) (eV/Ang**3):
         0.283059    0.141001    0.092301
         0.141001    0.030734    0.041268
         0.092301    0.041268   -0.005292

siesta: Pressure (total):       -164.75931973  kBar

* Maximum dynamic memory allocated =    12 MB

siesta:                 ==============================
                            Begin CG move =      2
                        ==============================

outcoor: Atomic coordinates (fractional):                   
   -0.00000021   -0.00000021   -0.00000019   1  Mg         1
    0.50000009    0.50000009    0.50000006   1  Mg         2
    0.24999958    0.24999959    0.24999971   2  C          3
   -0.25000027   -0.25000048   -0.25000036   2  C          4
    0.56751361   -0.06751379    0.24999985   3  O          5
    0.24999995    0.56751363   -0.06751391   3  O          6
   -0.06751345    0.25000019    0.56751370   3  O          7
   -0.56751388    0.06751380   -0.25000004   3  O          8
   -0.24999994   -0.56751354    0.06751357   3  O          9
    0.06751355   -0.25000010   -0.56751360   3  O         10

siesta: k-grid: Number of k-points =   154
siesta: k-grid: Cutoff (effective) =    13.515 Ang
siesta: k-grid: Supercell and displacements
siesta: k-grid:   -7   0   7      0.500
siesta: k-grid:    0  -7   7      0.000
siesta: k-grid:    0   0   6      0.000
Naive supercell factors:     5    5    5

superc: Internal auxiliary supercell:     5 x     5 x     5  =     125
superc: Number of atoms, orbitals, and projectors:   1250  4250 10000

outcell: Unit cell vectors (Ang):
        4.501575   -0.144815   -0.094797
        2.893755    3.451280   -0.094798
        2.893755    1.293803    3.200998

outcell: Cell vector modules (Ang)   :    4.504901    4.504901    4.504901
outcell: Cell angles (23,13,12) (deg):     51.8518     51.8518     51.8518
outcell: Cell volume (Ang**3)        :     52.2564

InitMesh: MESH =    24 x    24 x    24 =       13824
InitMesh: Mesh cutoff (required, used) =   100.000   105.274 Ry

siesta: Eharris(eV) =   -2956.021853


siesta: Eharris(eV) =   -2956.021853


siesta: Atomic forces (eV/Ang):
     1    0.000127    0.000050    0.000084
     2   -0.000095   -0.000097   -0.000035
     3    0.000289    0.000106   -0.000034
     4    0.000182    0.000259    0.000071
     5    1.024339   -2.291018    0.000024
     6    0.000007    1.374472   -2.099616
     7   -1.024438    0.916561    2.099669
     8   -1.024294    2.290975   -0.000006
     9    0.000000   -1.374552    2.099748
    10    1.024327   -0.916521   -2.099785
----------------------------------------
   Tot    0.000444    0.000236    0.000120
----------------------------------------
   Max    2.291018
   Res    1.122322    sqrt( Sum f_i^2 / 3N )
----------------------------------------
   Max    2.291018    constrained

Stress-tensor-Voigt (kbar):     -908.64    -1196.61    -1237.74      160.92       47.10      105.34
Target enthalpy (eV/cell)    -2901.7149

siesta: Stress tensor (static) (eV/Ang**3):
        -0.567120    0.100438    0.065750
         0.100438   -0.746857    0.029396
         0.065750    0.029396   -0.772526

siesta: Pressure (static):       1114.32821483  kBar

siesta: Stress tensor (total) (eV/Ang**3):
        -0.567120    0.100438    0.065750
         0.100438   -0.746857    0.029396
         0.065750    0.029396   -0.772526

siesta: Pressure (total):       1114.32821483  kBar

* Maximum dynamic memory allocated =    12 MB

siesta:                 ==============================
                            Begin CG move =      3
                        ==============================

outcoor: Atomic coordinates (fractional):                   
    0.00000024    0.00000022    0.00000037   1  Mg         1
    0.49999976    0.49999961    0.49999965   1  Mg         2
    0.25000056    0.25000051    0.25000033   2  C          3
   -0.24999972   -0.24999938   -0.24999954   2  C          4
    0.56782833   -0.06782838    0.24999997   3  O          5
    0.24999998    0.56782823   -0.06782833   3  O          6
   -0.06782853    0.25000001    0.56782804   3  O          7
   -0.56782842    0.06782838   -0.25000003   3  O          8
   -0.24999994   -0.56782836    0.06782829   3  O          9
    0.06782825   -0.25000006   -0.56782845   3  O         10

siesta: k-grid: Number of k-points =   154
siesta: k-grid: Cutoff (effective) =    13.726 Ang
siesta: k-grid: Supercell and displacements
siesta: k-grid:   -7   0   7      0.500
siesta: k-grid:    0  -7   7      0.000
siesta: k-grid:    0   0   6      0.000
Naive supercell factors:     5    5    5

superc: Internal auxiliary supercell:     5 x     5 x     5  =     125
superc: Number of atoms, orbitals, and projectors:   1250  4250 10000

outcell: Unit cell vectors (Ang):
        4.571326   -0.160805   -0.105265
        2.928349    3.513923   -0.105265
        2.928349    1.309270    3.262599

outcell: Cell vector modules (Ang)   :    4.575365    4.575365    4.575365
outcell: Cell angles (23,13,12) (deg):     52.1934     52.1934     52.1934
outcell: Cell volume (Ang**3)        :     55.3036

InitMesh: MESH =    24 x    24 x    24 =       13824
InitMesh: Mesh cutoff (required, used) =   100.000   102.487 Ry

siesta: Eharris(eV) =   -2959.934739


siesta: Eharris(eV) =   -2959.934739


siesta: Atomic forces (eV/Ang):
     1   -0.000211   -0.000071   -0.000120
     2    0.000177    0.000146    0.000060
     3   -0.000299   -0.000126   -0.000020
     4   -0.000242   -0.000219   -0.000085
     5    0.428577   -0.958476    0.000023
     6    0.000020    0.575062   -0.878495
     7   -0.428436    0.383447    0.878499
     8   -0.428509    0.958411    0.000014
     9    0.000019   -0.574988    0.878338
    10    0.428543   -0.383405   -0.878315
----------------------------------------
   Tot   -0.000360   -0.000219   -0.000100
----------------------------------------
   Max    0.958476
   Res    0.469521    sqrt( Sum f_i^2 / 3N )
----------------------------------------
   Max    0.958476    constrained

Stress-tensor-Voigt (kbar):     -493.82     -616.44     -633.95       68.52       20.06       44.86
Target enthalpy (eV/cell)    -2903.9904

siesta: Stress tensor (static) (eV/Ang**3):
        -0.308216    0.042768    0.027996
         0.042768   -0.384749    0.012518
         0.027996    0.012518   -0.395675

siesta: Pressure (static):        581.40414456  kBar

siesta: Stress tensor (total) (eV/Ang**3):
        -0.308216    0.042768    0.027996
         0.042768   -0.384749    0.012518
         0.027996    0.012518   -0.395675

siesta: Pressure (total):        581.40414456  kBar

* Maximum dynamic memory allocated =    12 MB

siesta:                 ==============================
                            Begin CG move =      4
                        ==============================

outcoor: Atomic coordinates (fractional):                   
    0.00000043    0.00000039    0.00000057   1  Mg         1
    0.49999961    0.49999943    0.49999949   1  Mg         2
    0.25000072    0.25000066    0.25000037   2  C          3
   -0.24999967   -0.24999916   -0.24999941   2  C          4
    0.55964158   -0.05964164    0.24999997   3  O          5
    0.24999998    0.55964148   -0.05964153   3  O          6
   -0.05964190    0.24999993    0.55964124   3  O          7
   -0.55964165    0.05964163   -0.25000003   3  O          8
   -0.24999997   -0.55964168    0.05964161   3  O          9
    0.05964154   -0.25000007   -0.55964180   3  O         10

siesta: k-grid: Number of k-points =   154
siesta: k-grid: Cutoff (effective) =    14.359 Ang
siesta: k-grid: Supercell and displacements
siesta: k-grid:   -7   0   7      0.500
siesta: k-grid:    0  -7   7      0.000
siesta: k-grid:    0   0   6      0.000
Naive supercell factors:     5    5    5

superc: Internal auxiliary supercell:     5 x     5 x     5  =     125
superc: Number of atoms, orbitals, and projectors:   1250  4250 10000

outcell: Unit cell vectors (Ang):
        4.784080   -0.127074   -0.083185
        3.095352    3.649982   -0.083184
        3.095352    1.383938    3.378463

outcell: Cell vector modules (Ang)   :    4.786491    4.786491    4.786491
outcell: Cell angles (23,13,12) (deg):     51.2138     51.2138     51.2137
outcell: Cell volume (Ang**3)        :     61.4899

InitMesh: MESH =    30 x    30 x    30 =       27000
InitMesh: Mesh cutoff (required, used) =   100.000   144.578 Ry

siesta: Eharris(eV) =   -2964.355058


siesta: Eharris(eV) =   -2964.355058


siesta: Atomic forces (eV/Ang):
     1   -0.000242   -0.000082   -0.000125
     2    0.000201    0.000153    0.000068
     3   -0.000072   -0.000025    0.000074
     4    0.000004   -0.000134   -0.000019
     5    1.257652   -2.812864    0.000026
     6    0.000023    1.687597   -2.578038
     7   -1.257565    1.125216    2.577986
     8   -1.257608    2.812798   -0.000003
     9    0.000006   -1.687483    2.577837
    10    1.257580   -1.125239   -2.577807
----------------------------------------
   Tot   -0.000020   -0.000063   -0.000001
----------------------------------------
   Max    2.812864
   Res    1.377930    sqrt( Sum f_i^2 / 3N )
----------------------------------------
   Max    2.812864    constrained

Stress-tensor-Voigt (kbar):       21.46     -170.74     -198.18      107.40       31.44       70.31
Target enthalpy (eV/cell)    -2906.3580

siesta: Stress tensor (static) (eV/Ang**3):
         0.013393    0.067036    0.043882
         0.067036   -0.106569    0.019621
         0.043882    0.019621   -0.123693

siesta: Pressure (static):        115.82168333  kBar

siesta: Stress tensor (total) (eV/Ang**3):
         0.013393    0.067036    0.043882
         0.067036   -0.106569    0.019621
         0.043882    0.019621   -0.123693

siesta: Pressure (total):        115.82168333  kBar

* Maximum dynamic memory allocated =    13 MB

siesta:                 ==============================
                            Begin CG move =      5
                        ==============================

outcoor: Atomic coordinates (fractional):                   
   -0.00000045   -0.00000042   -0.00000057   1  Mg         1
    0.50000031    0.50000048    0.50000036   1  Mg         2
    0.24999668    0.24999670    0.24999672   2  C          3
   -0.25000325   -0.25000344   -0.25000331   2  C          4
    0.56230668   -0.06230621    0.25000016   3  O          5
    0.25000000    0.56230642   -0.06230655   3  O          6
   -0.06230565    0.25000115    0.56230739   3  O          7
   -0.56230644    0.06230634   -0.24999989   3  O          8
   -0.24999974   -0.56230635    0.06230630   3  O          9
    0.06230688   -0.24999970   -0.56230590   3  O         10

siesta: k-grid: Number of k-points =   154
siesta: k-grid: Cutoff (effective) =    14.116 Ang
siesta: k-grid: Supercell and displacements
siesta: k-grid:   -7   0   7      0.500
siesta: k-grid:    0  -7   7      0.000
siesta: k-grid:    0   0   6      0.000
Naive supercell factors:     5    5    5

superc: Internal auxiliary supercell:     5 x     5 x     5  =     125
superc: Number of atoms, orbitals, and projectors:   1250  4250 10000

outcell: Unit cell vectors (Ang):
        4.702014   -0.144115   -0.094340
        3.027930    3.600186   -0.094340
        3.027930    1.353793    3.337288

outcell: Cell vector modules (Ang)   :    4.705168    4.705167    4.705168
outcell: Cell angles (23,13,12) (deg):     51.6789     51.6789     51.6789
outcell: Cell volume (Ang**3)        :     59.2337

InitMesh: MESH =    30 x    30 x    30 =       27000
InitMesh: Mesh cutoff (required, used) =   100.000   150.467 Ry

siesta: Eharris(eV) =   -2963.049087


siesta: Eharris(eV) =   -2963.049087


siesta: Atomic forces (eV/Ang):
     1    0.000137    0.000003    0.000122
     2   -0.000178   -0.000188   -0.000083
     3    0.000244    0.000137    0.000074
     4    0.000244    0.000159    0.000046
     5    0.996372   -2.228720   -0.000008
     6   -0.000077    1.337046   -2.042561
     7   -0.996477    0.891650    2.042462
     8   -0.996499    2.228683   -0.000022
     9   -0.000070   -1.337171    2.042661
    10    0.996431   -0.891546   -2.042686
----------------------------------------
   Tot    0.000127    0.000053    0.000004
----------------------------------------
   Max    2.228720
   Res    1.091790    sqrt( Sum f_i^2 / 3N )
----------------------------------------
   Max    2.228720    constrained

Stress-tensor-Voigt (kbar):     -130.21     -307.15     -332.41       98.87       28.94       64.72
Target enthalpy (eV/cell)    -2905.8867

siesta: Stress tensor (static) (eV/Ang**3):
        -0.081270    0.061711    0.040397
         0.061711   -0.191703    0.018062
         0.040397    0.018062   -0.207472

siesta: Pressure (static):        256.58890646  kBar

siesta: Stress tensor (total) (eV/Ang**3):
        -0.081270    0.061711    0.040397
         0.061711   -0.191703    0.018062
         0.040397    0.018062   -0.207472

siesta: Pressure (total):        256.58890646  kBar

* Maximum dynamic memory allocated =    13 MB

siesta:                 ==============================
                            Begin CG move =      6
                        ==============================

outcoor: Atomic coordinates (fractional):                   
   -0.00000032   -0.00000045   -0.00000055   1  Mg         1
    0.49999990    0.50000008    0.49999988   1  Mg         2
    0.24999129    0.24999153    0.24999171   2  C          3
   -0.25000821   -0.25000894   -0.25000857   2  C          4
    0.56347179   -0.06347118    0.25000008   3  O          5
    0.24999961    0.56347112   -0.06347201   3  O          6
   -0.06346935    0.25000331    0.56347412   3  O          7
   -0.56347175    0.06347117   -0.24999986   3  O          8
   -0.24999967   -0.56347188    0.06347136   3  O          9
    0.06347294   -0.24999898   -0.56347049   3  O         10

siesta: k-grid: Number of k-points =   154
siesta: k-grid: Cutoff (effective) =    13.992 Ang
siesta: k-grid: Supercell and displacements
siesta: k-grid:   -7   0   7      0.500
siesta: k-grid:    0  -7   7      0.000
siesta: k-grid:    0   0   6      0.000
Naive supercell factors:     5    5    5

superc: Internal auxiliary supercell:     5 x     5 x     5  =     125
superc: Number of atoms, orbitals, and projectors:   1250  4250 10000

outcell: Unit cell vectors (Ang):
        4.660023   -0.160309   -0.104941
        2.987862    3.579689   -0.104941
        2.987862    1.335877    3.322745

outcell: Cell vector modules (Ang)   :    4.663960    4.663958    4.663960
outcell: Cell angles (23,13,12) (deg):     52.1053     52.1053     52.1053
outcell: Cell volume (Ang**3)        :     58.4268

InitMesh: MESH =    30 x    30 x    30 =       27000
InitMesh: Mesh cutoff (required, used) =   100.000   153.942 Ry

siesta: Eharris(eV) =   -2962.572841


siesta: Eharris(eV) =   -2962.572841


siesta: Atomic forces (eV/Ang):
     1    0.000137   -0.000235    0.000446
     2    0.000152   -0.000483   -0.000095
     3    0.000669    0.000358    0.000161
     4    0.000666    0.000397    0.000157
     5    0.783138   -1.754315    0.001239
     6   -0.000505    1.053360   -1.606562
     7   -0.785349    0.702993    1.606158
     8   -0.783491    1.754057   -0.001336
     9   -0.000178   -1.051462    1.606199
    10    0.783144   -0.700380   -1.608478
----------------------------------------
   Tot   -0.001616    0.004289   -0.002111
----------------------------------------
   Max    1.754315
   Res    0.859056    sqrt( Sum f_i^2 / 3N )
----------------------------------------
   Max    1.754315    constrained

Stress-tensor-Voigt (kbar):     -189.83     -335.16     -355.74       81.10       23.87       53.07
Target enthalpy (eV/cell)    -2905.6193

siesta: Stress tensor (static) (eV/Ang**3):
        -0.118482    0.050621    0.033121
         0.050621   -0.209187    0.014897
         0.033121    0.014897   -0.222034

siesta: Pressure (static):        293.57694259  kBar

siesta: Stress tensor (total) (eV/Ang**3):
        -0.118482    0.050621    0.033121
         0.050621   -0.209187    0.014897
         0.033121    0.014897   -0.222034

siesta: Pressure (total):        293.57694259  kBar

* Maximum dynamic memory allocated =    13 MB

siesta:                 ==============================
                            Begin CG move =      7
                        ==============================

outcoor: Atomic coordinates (fractional):                   
    0.00000159   -0.00000861    0.00000674   1  Mg         1
    0.50000869    0.49999411    0.49999852   1  Mg         2
    0.24994243    0.24994630    0.24994685   2  C          3
   -0.25005201   -0.25005764   -0.25005574   2  C          4
    0.56900337   -0.06908041    0.25000581   3  O          5
    0.24997449    0.56906285   -0.06902075   3  O          6
   -0.06907239    0.25004138    0.56901628   3  O          7
   -0.56901514    0.06906552   -0.25001703   3  O          8
   -0.25000345   -0.56902351    0.06901116   3  O          9
    0.06901403   -0.24997704   -0.56907595   3  O         10

siesta: k-grid: Number of k-points =   154
siesta: k-grid: Cutoff (effective) =    12.773 Ang
siesta: k-grid: Supercell and displacements
siesta: k-grid:   -7   0   7      0.500
siesta: k-grid:    0  -7   7      0.000
siesta: k-grid:    0   0   6      0.000
Naive supercell factors:     5    5    5

superc: Internal auxiliary supercell:     5 x     5 x     5  =     125
superc: Number of atoms, orbitals, and projectors:   1250  4250 10000

outcell: Unit cell vectors (Ang):
        4.241301   -0.311477   -0.203838
        2.596001    3.368753   -0.204087
        2.596041    1.160589    3.168748

outcell: Cell vector modules (Ang)   :    4.257605    4.257860    4.257624
outcell: Cell angles (23,13,12) (deg):     56.5127     56.5073     56.5111
outcell: Cell volume (Ang**3)        :     50.1751

InitMesh: MESH =    24 x    24 x    24 =       13824
InitMesh: Mesh cutoff (required, used) =   100.000   125.239 Ry

siesta: Eharris(eV) =   -2953.642824


siesta: Eharris(eV) =   -2953.642824


siesta: Atomic forces (eV/Ang):
     1   -0.009601    0.007039   -0.010590
     2   -0.014930    0.004976    0.001812
     3    0.007359    0.001305   -0.004245
     4    0.002837    0.007205    0.001680
     5   -0.636646    1.444931   -0.005170
     6   -0.001270   -0.868283    1.316521
     7    0.649295   -0.579943   -1.307420
     8    0.637380   -1.439559    0.000454
     9   -0.002871    0.857330   -1.319106
    10   -0.633632    0.569320    1.320844
----------------------------------------
   Tot   -0.002080    0.004321   -0.005218
----------------------------------------
   Max    1.444931
   Res    0.704086    sqrt( Sum f_i^2 / 3N )
----------------------------------------
   Max    1.444931    constrained

Stress-tensor-Voigt (kbar):    -1264.72    -1084.95    -1059.49     -100.50      -29.33      -65.67
Target enthalpy (eV/cell)    -2898.9078

siesta: Stress tensor (static) (eV/Ang**3):
        -0.789370   -0.062728   -0.040987
        -0.062728   -0.677166   -0.018308
        -0.040987   -0.018308   -0.661275

siesta: Pressure (static):       1136.38859219  kBar

siesta: Stress tensor (total) (eV/Ang**3):
        -0.789370   -0.062728   -0.040987
        -0.062728   -0.677166   -0.018308
        -0.040987   -0.018308   -0.661275

siesta: Pressure (total):       1136.38859219  kBar
Cycling the Broyden process...

* Maximum dynamic memory allocated =    13 MB

siesta:                 ==============================
                            Begin CG move =      8
                        ==============================

outcoor: Atomic coordinates (fractional):                   
   -0.00001590   -0.00000420   -0.00001709   1  Mg         1
    0.49997743    0.49998729    0.49998762   1  Mg         2
    0.24998048    0.24997960    0.24997279   2  C          3
   -0.25002565   -0.25001973   -0.25002292   2  C          4
    0.56891147   -0.06892506    0.25000629   3  O          5
    0.24998483    0.56892328   -0.06891621   3  O          6
   -0.06892645    0.25002246    0.56892670   3  O          7
   -0.56891692    0.06892566   -0.25001517   3  O          8
   -0.25000609   -0.56892215    0.06889775   3  O          9
    0.06892379   -0.24998605   -0.56892858   3  O         10

siesta: k-grid: Number of k-points =   154
siesta: k-grid: Cutoff (effective) =    13.072 Ang
siesta: k-grid: Supercell and displacements
siesta: k-grid:   -7   0   7      0.500
siesta: k-grid:    0  -7   7      0.000
siesta: k-grid:    0   0   6      0.000
Naive supercell factors:     5    5    5

superc: Internal auxiliary supercell:     5 x     5 x     5  =     125
superc: Number of atoms, orbitals, and projectors:   1250  4250 10000

outcell: Unit cell vectors (Ang):
        4.347436   -0.244647   -0.160129
        2.716576    3.403147   -0.160264
        2.716590    1.214536    3.182895

outcell: Cell vector modules (Ang)   :    4.357257    4.357394    4.357267
outcell: Cell angles (23,13,12) (deg):     54.5832     54.5803     54.5821
outcell: Cell volume (Ang**3)        :     51.1110

InitMesh: MESH =    24 x    24 x    24 =       13824
InitMesh: Mesh cutoff (required, used) =   100.000   116.504 Ry

siesta: Eharris(eV) =   -2955.008145


siesta: Eharris(eV) =   -2955.008145


siesta: Atomic forces (eV/Ang):
     1    0.006493   -0.000592    0.003604
     2    0.009463    0.000640   -0.000425
     3    0.000397    0.001308   -0.000691
     4    0.000422    0.001206    0.000726
     5   -0.122427    0.260170    0.003428
     6   -0.000868   -0.160595    0.240006
     7    0.110994   -0.102049   -0.244223
     8    0.115409   -0.263979    0.002526
     9    0.000390    0.156626   -0.242375
    10   -0.121711    0.108582    0.235409
----------------------------------------
   Tot   -0.001439    0.001316   -0.002016
----------------------------------------
   Max    0.263979
   Res    0.128701    sqrt( Sum f_i^2 / 3N )
----------------------------------------
   Max    0.263979    constrained

Stress-tensor-Voigt (kbar):    -1057.37    -1094.11    -1099.41       20.64        6.03       13.46
Target enthalpy (eV/cell)    -2900.3933

siesta: Stress tensor (static) (eV/Ang**3):
        -0.659950    0.012880    0.008398
         0.012880   -0.682885    0.003761
         0.008398    0.003761   -0.686191

siesta: Pressure (static):       1083.63104204  kBar

siesta: Stress tensor (total) (eV/Ang**3):
        -0.659950    0.012880    0.008398
         0.012880   -0.682885    0.003761
         0.008398    0.003761   -0.686191

siesta: Pressure (total):       1083.63104204  kBar
Cycling the Broyden process...

* Maximum dynamic memory allocated =    13 MB

siesta:                 ==============================
                            Begin CG move =      9
                        ==============================

outcoor: Atomic coordinates (fractional):                   
   -0.00000925    0.00000016   -0.00001028   1  Mg         1
    0.49998816    0.49999489    0.49999443   1  Mg         2
    0.24997570    0.24997628    0.24996574   2  C          3
   -0.25003190   -0.25002314   -0.25002719   2  C          4
    0.56634904   -0.06638652    0.25000599   3  O          5
    0.24997892    0.56637018   -0.06636710   3  O          6
   -0.06639063    0.25002645    0.56636680   3  O          7
   -0.56636804    0.06637400   -0.25001939   3  O          8
   -0.25000697   -0.56637218    0.06633850   3  O          9
    0.06636575   -0.24998137   -0.56639159   3  O         10

siesta: k-grid: Number of k-points =   154
siesta: k-grid: Cutoff (effective) =    13.132 Ang
siesta: k-grid: Supercell and displacements
siesta: k-grid:   -7   0   7      0.500
siesta: k-grid:    0  -7   7      0.000
siesta: k-grid:    0   0   6      0.000
Naive supercell factors:     5    5    5

superc: Internal auxiliary supercell:     5 x     5 x     5  =     125
superc: Number of atoms, orbitals, and projectors:   1250  4250 10000

outcell: Unit cell vectors (Ang):
        4.366582   -0.256410   -0.167817
        2.720577    3.425304   -0.167998
        2.720599    1.216304    3.206241

outcell: Cell vector modules (Ang)   :    4.377322    4.377496    4.377332
outcell: Cell angles (23,13,12) (deg):     54.8596     54.8557     54.8581
outcell: Cell volume (Ang**3)        :     52.2099

InitMesh: MESH =    24 x    24 x    24 =       13824
InitMesh: Mesh cutoff (required, used) =   100.000   115.860 Ry

siesta: Eharris(eV) =   -2956.588917


siesta: Eharris(eV) =   -2956.588917


siesta: Atomic forces (eV/Ang):
     1   -0.001880   -0.001609   -0.000085
     2   -0.001315   -0.001598   -0.001786
     3    0.001215    0.001137   -0.000365
     4    0.001069    0.001357    0.000422
     5    0.105037   -0.224701    0.001132
     6    0.002228    0.135767   -0.205991
     7   -0.111865    0.062866    0.203701
     8   -0.099275    0.227820    0.001127
     9    0.005234   -0.132026    0.210380
    10    0.086250   -0.111520   -0.197039
----------------------------------------
   Tot   -0.013303   -0.042507    0.011494
----------------------------------------
   Max    0.227820
   Res    0.109932    sqrt( Sum f_i^2 / 3N )
----------------------------------------
   Max    0.227820    constrained

Stress-tensor-Voigt (kbar):     -902.26     -906.86     -910.25        5.19        0.73        2.03
Target enthalpy (eV/cell)    -2901.7811

siesta: Stress tensor (static) (eV/Ang**3):
        -0.563141    0.003241    0.001266
         0.003241   -0.566014    0.000456
         0.001266    0.000456   -0.568128

siesta: Pressure (static):        906.45828701  kBar

siesta: Stress tensor (total) (eV/Ang**3):
        -0.563141    0.003241    0.001266
         0.003241   -0.566014    0.000456
         0.001266    0.000456   -0.568128

siesta: Pressure (total):        906.45828701  kBar
Cycling the Broyden process...

* Maximum dynamic memory allocated =    13 MB

siesta:                 ==============================
                            Begin CG move =     10
                        ==============================

outcoor: Atomic coordinates (fractional):                   
   -0.00001164   -0.00000238   -0.00001264   1  Mg         1
    0.49998591    0.49999236    0.49999142   1  Mg         2
    0.24997741    0.24997828    0.24996712   2  C          3
   -0.25003041   -0.25002103   -0.25002542   2  C          4
    0.56673637   -0.06676523    0.25000943   3  O          5
    0.24998124    0.56675454   -0.06674783   3  O          6
   -0.06678063    0.25000060    0.56673518   3  O          7
   -0.56674940    0.06675918   -0.25001703   3  O          8
   -0.25000255   -0.56674975    0.06672783   3  O          9
    0.06673670   -0.25000536   -0.56678039   3  O         10

siesta: k-grid: Number of k-points =   154
siesta: k-grid: Cutoff (effective) =    13.110 Ang
siesta: k-grid: Supercell and displacements
siesta: k-grid:   -7   0   7      0.500
siesta: k-grid:    0  -7   7      0.000
siesta: k-grid:    0   0   6      0.000
Naive supercell factors:     5    5    5

superc: Internal auxiliary supercell:     5 x     5 x     5  =     125
superc: Number of atoms, orbitals, and projectors:   1250  4250 10000

outcell: Unit cell vectors (Ang):
        4.359138   -0.255854   -0.167387
        2.716027    3.419211   -0.167558
        2.716095    1.214229    3.200640

outcell: Cell vector modules (Ang)   :    4.369847    4.369884    4.369853
outcell: Cell angles (23,13,12) (deg):     54.8551     54.8510     54.8537
outcell: Cell volume (Ang**3)        :     51.9349

InitMesh: MESH =    24 x    24 x    24 =       13824
InitMesh: Mesh cutoff (required, used) =   100.000   116.252 Ry

siesta: Eharris(eV) =   -2956.217750


siesta: Eharris(eV) =   -2956.217750


siesta: Atomic forces (eV/Ang):
     1   -0.001056    0.001673   -0.004347
     2   -0.002679    0.003801   -0.000919
     3    0.001019    0.000432   -0.000063
     4    0.000842    0.000678    0.000451
     5    0.090444   -0.204985   -0.000203
     6   -0.001443    0.120751   -0.189457
     7   -0.089756    0.080145    0.192871
     8   -0.095153    0.205092    0.001238
     9   -0.000812   -0.122948    0.187065
    10    0.095224   -0.084748   -0.189068
----------------------------------------
   Tot   -0.003370   -0.000109   -0.002433
----------------------------------------
   Max    0.205092
   Res    0.100934    sqrt( Sum f_i^2 / 3N )
----------------------------------------
   Max    0.205092    constrained

Stress-tensor-Voigt (kbar):     -937.44     -947.23     -948.58        5.49        1.65        3.59
Target enthalpy (eV/cell)    -2901.4840

siesta: Stress tensor (static) (eV/Ang**3):
        -0.585098    0.003425    0.002243
         0.003425   -0.591207    0.001031
         0.002243    0.001031   -0.592048

siesta: Pressure (static):        944.41498850  kBar

siesta: Stress tensor (total) (eV/Ang**3):
        -0.585098    0.003425    0.002243
         0.003425   -0.591207    0.001031
         0.002243    0.001031   -0.592048

siesta: Pressure (total):        944.41498850  kBar
Cycling the Broyden process...

* Maximum dynamic memory allocated =    13 MB

siesta:                 ==============================
                            Begin CG move =     11
                        ==============================

outcoor: Atomic coordinates (fractional):                   
   -0.00001340   -0.00000020   -0.00002019   1  Mg         1
    0.49998006    0.49999623    0.49998874   1  Mg         2
    0.24997915    0.24998020    0.24996802   2  C          3
   -0.25002924   -0.25001900   -0.25002344   2  C          4
    0.56739290   -0.06742817    0.25000756   3  O          5
    0.24997787    0.56740841   -0.06741453   3  O          6
   -0.06743878    0.24999690    0.56740323   3  O          7
   -0.56741826    0.06741436   -0.25002014   3  O          8
   -0.25000396   -0.56741046    0.06738542   3  O          9
    0.06740388   -0.25000740   -0.56744134   3  O         10

siesta: k-grid: Number of k-points =   154
siesta: k-grid: Cutoff (effective) =    13.045 Ang
siesta: k-grid: Supercell and displacements
siesta: k-grid:   -7   0   7      0.500
siesta: k-grid:    0  -7   7      0.000
siesta: k-grid:    0   0   6      0.000
Naive supercell factors:     5    5    5

superc: Internal auxiliary supercell:     5 x     5 x     5  =     125
superc: Number of atoms, orbitals, and projectors:   1250  4250 10000

outcell: Unit cell vectors (Ang):
        4.337206   -0.261185   -0.170867
        2.697431    3.406401   -0.171046
        2.697505    1.205902    3.190300

outcell: Cell vector modules (Ang)   :    4.348422    4.348443    4.348419
outcell: Cell angles (23,13,12) (deg):     55.0268     55.0224     55.0253
outcell: Cell volume (Ang**3)        :     51.4114

InitMesh: MESH =    24 x    24 x    24 =       13824
InitMesh: Mesh cutoff (required, used) =   100.000   117.669 Ry

siesta: Eharris(eV) =   -2955.504625


siesta: Eharris(eV) =   -2955.504625


siesta: Atomic forces (eV/Ang):
     1   -0.000980    0.000242   -0.000350
     2   -0.000937   -0.000028   -0.000673
     3    0.000396    0.000778    0.000287
     4    0.000695    0.000904   -0.000704
     5    0.001612   -0.001326   -0.006173
     6    0.010827   -0.013814   -0.011363
     7    0.000404    0.002429    0.003670
     8   -0.001478    0.002944    0.006936
     9   -0.008835    0.013427    0.012192
    10    0.003475    0.000135   -0.003715
----------------------------------------
   Tot    0.005179    0.005690    0.000107
----------------------------------------
   Max    0.013814
   Res    0.005762    sqrt( Sum f_i^2 / 3N )
----------------------------------------
   Max    0.013814    constrained

Stress-tensor-Voigt (kbar):    -1056.83    -1029.61    -1025.25      -14.79       -5.76       -9.52
Target enthalpy (eV/cell)    -2900.8719

siesta: Stress tensor (static) (eV/Ang**3):
        -0.659611   -0.009233   -0.005940
        -0.009233   -0.642627   -0.003598
        -0.005940   -0.003598   -0.639902

siesta: Pressure (static):       1037.22874090  kBar

siesta: Stress tensor (total) (eV/Ang**3):
        -0.659611   -0.009233   -0.005940
        -0.009233   -0.642627   -0.003598
        -0.005940   -0.003598   -0.639902

siesta: Pressure (total):       1037.22874090  kBar
Cycling the Broyden process...

* Maximum dynamic memory allocated =    13 MB

siesta:                 ==============================
                            Begin CG move =     12
                        ==============================

outcoor: Atomic coordinates (fractional):                   
   -0.00001177    0.00000028   -0.00001791   1  Mg         1
    0.49998284    0.49999743    0.49998992   1  Mg         2
    0.24997992    0.24998156    0.24996973   2  C          3
   -0.25002764   -0.25001752   -0.25002245   2  C          4
    0.56757391   -0.06760842    0.25000378   3  O          5
    0.24998809    0.56758512   -0.06759874   3  O          6
   -0.06761843    0.24999923    0.56758521   3  O          7
   -0.56759950    0.06759450   -0.25001519   3  O          8
   -0.25001144   -0.56758702    0.06757179   3  O          9
    0.06758606   -0.25000438   -0.56762121   3  O         10

siesta: k-grid: Number of k-points =   154
siesta: k-grid: Cutoff (effective) =    13.062 Ang
siesta: k-grid: Supercell and displacements
siesta: k-grid:   -7   0   7      0.500
siesta: k-grid:    0  -7   7      0.000
siesta: k-grid:    0   0   6      0.000
Naive supercell factors:     5    5    5

superc: Internal auxiliary supercell:     5 x     5 x     5  =     125
superc: Number of atoms, orbitals, and projectors:   1250  4250 10000

outcell: Unit cell vectors (Ang):
        4.343181   -0.257798   -0.168664
        2.703938    3.408575   -0.168788
        2.704003    1.208850    3.191401

outcell: Cell vector modules (Ang)   :    4.354093    4.354096    4.354077
outcell: Cell angles (23,13,12) (deg):     54.9286     54.9256     54.9281
outcell: Cell volume (Ang**3)        :     51.4774

InitMesh: MESH =    24 x    24 x    24 =       13824
InitMesh: Mesh cutoff (required, used) =   100.000   117.211 Ry

siesta: Eharris(eV) =   -2955.589607


siesta: Eharris(eV) =   -2955.589607


siesta: Atomic forces (eV/Ang):
     1   -0.001578    0.000112   -0.000228
     2   -0.001472   -0.000471   -0.000557
     3    0.004620    0.002092    0.002866
     4    0.005180    0.003214   -0.000660
     5   -0.024211    0.055749   -0.001127
     6   -0.000832   -0.031711    0.050210
     7    0.024104   -0.022767   -0.049148
     8    0.023209   -0.054925   -0.000657
     9   -0.001140    0.031338   -0.050364
    10   -0.021434    0.023501    0.051346
----------------------------------------
   Tot    0.006447    0.006132    0.001684
----------------------------------------
   Max    0.055749
   Res    0.026794    sqrt( Sum f_i^2 / 3N )
----------------------------------------
   Max    0.055749    constrained

Stress-tensor-Voigt (kbar):     -996.67    -1004.38    -1005.45        4.14        1.31        2.70
Target enthalpy (eV/cell)    -2900.9219

siesta: Stress tensor (static) (eV/Ang**3):
        -0.622068    0.002585    0.001683
         0.002585   -0.626876    0.000818
         0.001683    0.000818   -0.627549

siesta: Pressure (static):       1002.16827540  kBar

siesta: Stress tensor (total) (eV/Ang**3):
        -0.622068    0.002585    0.001683
         0.002585   -0.626876    0.000818
         0.001683    0.000818   -0.627549

siesta: Pressure (total):       1002.16827540  kBar
Cycling the Broyden process...

* Maximum dynamic memory allocated =    13 MB

siesta:                 ==============================
                            Begin CG move =     13
                        ==============================

outcoor: Atomic coordinates (fractional):                   
   -0.00001463   -0.00000133   -0.00002038   1  Mg         1
    0.49998004    0.49999528    0.49998721   1  Mg         2
    0.24998577    0.24998746    0.24997687   2  C          3
   -0.25002118   -0.25000971   -0.25001768   2  C          4
    0.56745408   -0.06748694    0.25000434   3  O          5
    0.24998535    0.56746613   -0.06747816   3  O          6
   -0.06750077    0.24999364    0.56746277   3  O          7
   -0.56748094    0.06747355   -0.25001775   3  O          8
   -0.25001137   -0.56746912    0.06744950   3  O          9
    0.06746767   -0.25000416   -0.56749843   3  O         10

siesta: k-grid: Number of k-points =   154
siesta: k-grid: Cutoff (effective) =    13.052 Ang
siesta: k-grid: Supercell and displacements
siesta: k-grid:   -7   0   7      0.500
siesta: k-grid:    0  -7   7      0.000
siesta: k-grid:    0   0   6      0.000
Naive supercell factors:     5    5    5

superc: Internal auxiliary supercell:     5 x     5 x     5  =     125
superc: Number of atoms, orbitals, and projectors:   1250  4250 10000

outcell: Unit cell vectors (Ang):
        4.339695   -0.259964   -0.170066
        2.700000    3.407415   -0.170206
        2.700075    1.207077    3.190923

outcell: Cell vector modules (Ang)   :    4.350800    4.350799    4.350797
outcell: Cell angles (23,13,12) (deg):     54.9903     54.9869     54.9896
outcell: Cell volume (Ang**3)        :     51.4458

InitMesh: MESH =    24 x    24 x    24 =       13824
InitMesh: Mesh cutoff (required, used) =   100.000   117.484 Ry

siesta: Eharris(eV) =   -2955.550971


siesta: Eharris(eV) =   -2955.550971


siesta: Atomic forces (eV/Ang):
     1   -0.000025    0.000526    0.000212
     2    0.000170    0.000203   -0.000238
     3   -0.000141    0.000378    0.000749
     4    0.000225    0.000658   -0.001037
     5   -0.002085    0.048208   -0.008159
     6    0.018269   -0.027904    0.034452
     7    0.027992   -0.002231   -0.037345
     8    0.025496   -0.036405    0.018624
     9    0.016407    0.021145   -0.038943
    10   -0.009067    0.030013    0.033964
----------------------------------------
   Tot    0.077240    0.034590    0.002281
----------------------------------------
   Max    0.048208
   Res    0.021270    sqrt( Sum f_i^2 / 3N )
----------------------------------------
   Max    0.048208    constrained

Stress-tensor-Voigt (kbar):    -1022.75    -1012.10    -1011.95       -5.41       -3.66       -2.38
Target enthalpy (eV/cell)    -2900.9015

siesta: Stress tensor (static) (eV/Ang**3):
        -0.638344   -0.003380   -0.001483
        -0.003380   -0.631695   -0.002286
        -0.001483   -0.002286   -0.631602

siesta: Pressure (static):       1015.59882026  kBar

siesta: Stress tensor (total) (eV/Ang**3):
        -0.638344   -0.003380   -0.001483
        -0.003380   -0.631695   -0.002286
        -0.001483   -0.002286   -0.631602

siesta: Pressure (total):       1015.59882026  kBar
Cycling the Broyden process...

* Maximum dynamic memory allocated =    13 MB

siesta:                 ==============================
                            Begin CG move =     14
                        ==============================

outcoor: Atomic coordinates (fractional):                   
   -0.00001391   -0.00000096   -0.00001923   1  Mg         1
    0.49998084    0.49999529    0.49998824   1  Mg         2
    0.24998418    0.24998559    0.24997490   2  C          3
   -0.25002306   -0.25001204   -0.25001915   2  C          4
    0.56736905   -0.06739879    0.25000589   3  O          5
    0.24998462    0.56738181   -0.06738901   3  O          6
   -0.06741186    0.24999908    0.56737807   3  O          7
   -0.56739226    0.06738798   -0.25001664   3  O          8
   -0.25000733   -0.56738331    0.06736196   3  O          9
    0.06738160   -0.25000068   -0.56741060   3  O         10

siesta: k-grid: Number of k-points =   154
siesta: k-grid: Cutoff (effective) =    13.063 Ang
siesta: k-grid: Supercell and displacements
siesta: k-grid:   -7   0   7      0.500
siesta: k-grid:    0  -7   7      0.000
siesta: k-grid:    0   0   6      0.000
Naive supercell factors:     5    5    5

superc: Internal auxiliary supercell:     5 x     5 x     5  =     125
superc: Number of atoms, orbitals, and projectors:   1250  4250 10000

outcell: Unit cell vectors (Ang):
        4.343324   -0.258774   -0.169303
        2.703306    3.409353   -0.169445
        2.703371    1.208558    3.192375

outcell: Cell vector modules (Ang)   :    4.354319    4.354338    4.354318
outcell: Cell angles (23,13,12) (deg):     54.9542     54.9508     54.9533
outcell: Cell volume (Ang**3)        :     51.5209

InitMesh: MESH =    24 x    24 x    24 =       13824
InitMesh: Mesh cutoff (required, used) =   100.000   117.238 Ry

siesta: Eharris(eV) =   -2955.654242


siesta: Eharris(eV) =   -2955.654242


siesta: Atomic forces (eV/Ang):
     1    0.000387    0.000139    0.000457
     2    0.000661    0.000007   -0.000331
     3    0.000355    0.000673    0.000744
     4    0.000821    0.000693   -0.000814
     5   -0.008170    0.016461   -0.000389
     6   -0.000246   -0.010948    0.014551
     7    0.006581   -0.005726   -0.014377
     8    0.005971   -0.016355    0.000922
     9   -0.000557    0.008923   -0.015553
    10   -0.008086    0.005954    0.012939
----------------------------------------
   Tot   -0.002283   -0.000179   -0.001852
----------------------------------------
   Max    0.016461
   Res    0.007853    sqrt( Sum f_i^2 / 3N )
----------------------------------------
   Max    0.016461    constrained

Stress-tensor-Voigt (kbar):     -988.97     -993.64     -994.26        2.66        0.75        1.75
Target enthalpy (eV/cell)    -2900.9923

siesta: Stress tensor (static) (eV/Ang**3):
        -0.617261    0.001662    0.001091
         0.001662   -0.620172    0.000466
         0.001091    0.000466   -0.620560

siesta: Pressure (static):        992.28825827  kBar

siesta: Stress tensor (total) (eV/Ang**3):
        -0.617261    0.001662    0.001091
         0.001662   -0.620172    0.000466
         0.001091    0.000466   -0.620560

siesta: Pressure (total):        992.28825827  kBar

* Maximum dynamic memory allocated =    13 MB

outcoor: Relaxed atomic coordinates (fractional):           
   -0.00001391   -0.00000096   -0.00001923   1  Mg         1
    0.49998084    0.49999529    0.49998824   1  Mg         2
    0.24998418    0.24998559    0.24997490   2  C          3
   -0.25002306   -0.25001204   -0.25001915   2  C          4
    0.56736905   -0.06739879    0.25000589   3  O          5
    0.24998462    0.56738181   -0.06738901   3  O          6
   -0.06741186    0.24999908    0.56737807   3  O          7
   -0.56739226    0.06738798   -0.25001664   3  O          8
   -0.25000733   -0.56738331    0.06736196   3  O          9
    0.06738160   -0.25000068   -0.56741060   3  O         10

outcell: Unit cell vectors (Ang):
        4.343324   -0.258774   -0.169303
        2.703306    3.409353   -0.169445
        2.703371    1.208558    3.192375

outcell: Cell vector modules (Ang)   :    4.354319    4.354338    4.354318
outcell: Cell angles (23,13,12) (deg):     54.9542     54.9508     54.9533
outcell: Cell volume (Ang**3)        :     51.5209

siesta: Program's energy decomposition (eV):
siesta: Eions   =      5228.674091
siesta: Ena     =      1067.464400
siesta: Ekin    =      2502.350832
siesta: Enl     =      -410.797265
siesta: DEna    =      -141.740602
siesta: DUscf   =        27.602325
siesta: DUext   =         0.000000
siesta: Exc     =      -749.354389
siesta: eta*DQ  =         0.000000
siesta: Emadel  =         0.000000
siesta: Ekinion =         0.000000
siesta: Eharris =     -2955.654242
siesta: Etot    =     -2933.148789
siesta: FreeEng =     -2933.148789

siesta: Final energy (eV):
siesta:       Kinetic =    2502.350832
siesta:       Hartree =     684.505096
siesta:    Ext. field =       0.000000
siesta:   Exch.-corr. =    -749.354389
siesta:  Ion-electron =   -3545.381202
siesta:       Ion-ion =   -1825.269127
siesta:       Ekinion =       0.000000
siesta:         Total =   -2933.148789

siesta: Stress tensor (static) (eV/Ang**3):
siesta:    -0.617261    0.001662    0.001091
siesta:     0.001662   -0.620172    0.000466
siesta:     0.001091    0.000466   -0.620560

siesta: Constrained stress tensor (static) (eV/Ang**3):
siesta:    -0.617261    0.001662    0.001091
siesta:     0.001662   -0.620172    0.000466
siesta:     0.001091    0.000466   -0.620560

siesta: Cell volume =         51.520928 Ang**3

siesta: Pressure (static):
siesta:                Solid            Molecule  Units
siesta:           0.00674530          0.00675413  Ry/Bohr**3
siesta:           0.61933092          0.62014082  eV/Ang**3
siesta:         992.28825827        993.58586926  kBar

* Maximum dynamic memory allocated : Node    0 =    13 MB

* Maximum memory occured during ranger                        

timer: CPU execution times:
timer:  Routine       Calls   Time/call    Tot.time        %
timer:  siesta            1     108.157     108.157   100.00
timer:  Setup             1       0.725       0.725     0.67
timer:  bands             1       0.000       0.000     0.00
timer:  writewave         1       0.001       0.001     0.00
timer:  KSV_init          1       0.000       0.000     0.00
timer:  IterMD           15       7.159     107.384    99.29
timer:  hsparse          18       0.558      10.047     9.29
timer:  overfsm          30       0.017       0.497     0.46
timer:  IterSCF          30       2.950      88.512    81.84
timer:  kinefsm          30       0.015       0.456     0.42
timer:  nlefsm           30       0.822      24.647    22.79
timer:  DHSCF            30       1.324      39.732    36.74
timer:  DHSCF1           15       0.326       4.894     4.53
timer:  DHSCF2           15       1.069      16.035    14.83
timer:  REORD           270       0.000       0.017     0.02
timer:  POISON           45       0.007       0.307     0.28
timer:  DHSCF3           30       0.278       8.333     7.70
timer:  rhoofd           30       0.107       3.218     2.97
timer:  cellXC           45       0.015       0.656     0.61
timer:  vmat             30       0.147       4.415     4.08
timer:  diagon           15       1.540      23.104    21.36
timer:  cdiag          4620       0.002       7.817     7.23
timer:  cdiag1         4620       0.000       0.227     0.21
timer:  cdiag2         4620       0.000       1.010     0.93
timer:  cdiag3         4620       0.001       6.063     5.61
timer:  cdiag4         4620       0.000       0.229     0.21
timer:  DHSCF4           15       0.697      10.458     9.67
timer:  dfscf            15       0.449       6.739     6.23
timer:  optical           1       0.000       0.000     0.00
  

elaps: ELAPSED times:
elaps:  Routine       Calls   Time/call    Tot.time        %
elaps:  siesta            1     108.966     108.966   100.00
elaps:  Setup             1       0.800       0.800     0.73
elaps:  bands             1       0.000       0.000     0.00
elaps:  writewave         1       0.001       0.001     0.00
elaps:  KSV_init          1       0.000       0.000     0.00
elaps:  IterMD           15       7.208     108.114    99.22
elaps:  hsparse          18       0.558      10.048     9.22
elaps:  overfsm          30       0.017       0.497     0.46
elaps:  IterSCF          30       2.972      89.166    81.83
elaps:  kinefsm          30       0.015       0.458     0.42
elaps:  nlefsm           30       0.821      24.645    22.62
elaps:  DHSCF            30       1.324      39.728    36.46
elaps:  DHSCF1           15       0.326       4.892     4.49
elaps:  DHSCF2           15       1.069      16.034    14.71
elaps:  REORD           270       0.000       0.022     0.02
elaps:  POISON           45       0.007       0.309     0.28
elaps:  DHSCF3           30       0.278       8.333     7.65
elaps:  rhoofd           30       0.107       3.217     2.95
elaps:  cellXC           45       0.015       0.655     0.60
elaps:  vmat             30       0.147       4.418     4.05
elaps:  diagon           15       1.540      23.101    21.20
elaps:  cdiag          4620       0.002       7.789     7.15
elaps:  cdiag1         4620       0.000       0.237     0.22
elaps:  cdiag2         4620       0.000       1.035     0.95
elaps:  cdiag3         4620       0.001       6.011     5.52
elaps:  cdiag4         4620       0.000       0.241     0.22
elaps:  DHSCF4           15       0.697      10.455     9.60
elaps:  dfscf            15       0.449       6.736     6.18
elaps:  optical           1       0.000       0.000     0.00
  
>> End of run:  19-DEC-2006  16:22:49
