Siesta Version: siesta-trunk-479
Architecture  : atto-intel12-openmpi
Compiler flags: /share/apps/openmpi-1.6.5-intel/bin/mpif90 -w  -O2 -mp
PP flags      : -DCDF -DMPI 
PARALLEL version
NetCDF support

* Running on    4 nodes in parallel
>> Start of run:  29-SEP-2015  15:49:31

                           ***********************       
                           *  WELCOME TO SIESTA  *       
                           ***********************       

reinit: Reading from standard input
************************** Dump of input data file ****************************
#
# MgCO3 in primitive cell. SZ. Variable cell. Harris. Broyden Optim
#
SystemName	MgCo3 R-3c Harris -- SZ, 100 R -- variable cell at 100 Gpa
SystemLabel	var_cell
NumberOfSpecies		3
NumberOfAtoms	       10
%block ChemicalSpeciesLabel
      1      12     Mg
      2       6     C
      3       8     O
%endblock ChemicalSpeciesLabel
PAO.BasisSize  SZ
Diag.Divide-and-Conquer F
# Rhombohedral primitive cell
# (HEX 3-fold cell had A=4.635 and C=15.023, so alpha=48.179 degrees
#  and a=5.67783 Ang)
LatticeConstant     5.67783 Ang
%block LatticeParameters
1.0 1.0 1.0 48.179 48.179 48.179
%endblock LatticeParameters
AtomicCoordinatesFormat    Fractional
%block AtomicCoordinatesAndAtomicSpecies
  0.0         0.0         0.0      1
  0.5         0.5         0.5      1
  0.25        0.25        0.25     2
 -0.25       -0.25       -0.25     2
  0.5274     -0.0274      0.25     3
  0.25        0.5274     -0.0274   3
 -0.0274      0.25        0.5274   3
 -0.5274      0.0274     -0.25     3
 -0.25       -0.5274      0.0274   3
  0.0274     -0.25       -0.5274   3
%endblock AtomicCoordinatesAndAtomicSpecies
kgrid_cutoff 15.0 Ang
Solution.Method       diagon
MeshCutoff             100 Ry
DM.NumberBroyden       4
DM.UseSaveDM           T
DM.MixingWeight        0.1         # New DM amount for next SCF cycle
DM.Tolerance           1.d-3       # Tolerance in maximum difference
                                   # between input and output DM
MaxSCFIterations       20
WriteCoorStep      .true.
WriteForces        .true.
HarrisFunctional T
MD.TypeOfRun         Broyden
MD.Variable-Cell      T
MD.Target-pressure   100.0 GPa
MD.Num-CG-steps	     30
MD.Max-Stress-Tol    2.0 GPa
MD.Broyden.Initial.Inverse.Jacobian 1.0
MD.Broyden.History.Steps 6
************************** End of input data file *****************************

reinit: -----------------------------------------------------------------------
reinit: System Name: MgCo3 R-3c Harris -- SZ, 100 R -- variable cell at 100 Gpa
reinit: -----------------------------------------------------------------------
reinit: System Label: var_cell                                                    
reinit: -----------------------------------------------------------------------

initatom: Reading input for the pseudopotentials and atomic orbitals ----------
 Species number:            1  Label: Mg Atomic number:          12
 Species number:            2  Label: C Atomic number:           6
 Species number:            3  Label: O Atomic number:           8
Ground state valence configuration:   3s02
Reading pseudopotential information in formatted form from Mg.psf

Valence configuration for pseudopotential generation:
3s( 2.00) rc: 2.59
3p( 0.00) rc: 2.59
3d( 0.00) rc: 2.59
4f( 0.00) rc: 2.59
Ground state valence configuration:   2s02  2p02
Reading pseudopotential information in formatted form from C.psf

Valence configuration for pseudopotential generation:
2s( 2.00) rc: 1.49
2p( 2.00) rc: 1.52
3d( 0.00) rc: 1.58
Ground state valence configuration:   2s02  2p04
Reading pseudopotential information in formatted form from O.psf

Valence configuration for pseudopotential generation:
2s( 2.00) rc: 1.14
2p( 4.00) rc: 1.14
3d( 0.00) rc: 1.14
4f( 0.00) rc: 1.14
For Mg, standard SIESTA heuristics set lmxkb to 1
 (one more than the basis l, including polarization orbitals).
Use PS.lmax or PS.KBprojectors blocks to override.
For C, standard SIESTA heuristics set lmxkb to 2
 (one more than the basis l, including polarization orbitals).
Use PS.lmax or PS.KBprojectors blocks to override.
For O, standard SIESTA heuristics set lmxkb to 2
 (one more than the basis l, including polarization orbitals).
Use PS.lmax or PS.KBprojectors blocks to override.

<basis_specs>
===============================================================================
Mg                   Z=  12    Mass=  24.310        Charge= 0.17977+309
Lmxo=0 Lmxkb= 1    BasisType=split      Semic=F
L=0  Nsemic=0  Cnfigmx=3
          n=1  nzeta=1  polorb=0
            splnorm:   0.15000    
               vcte:    0.0000    
               rinn:    0.0000    
               qcoe:    0.0000    
               qyuk:    0.0000    
               qwid:   0.10000E-01
                rcs:    0.0000    
            lambdas:   1.00000    
-------------------------------------------------------------------------------
L=0  Nkbl=1  erefs: 0.17977+309
L=1  Nkbl=1  erefs: 0.17977+309
===============================================================================
</basis_specs>

atom: Called for Mg                    (Z =  12)

read_vps: Pseudopotential generation method:
read_vps: ATM3      Troullier-Martins                       
Total valence charge:    2.00000

xc_check: Exchange-correlation functional:
xc_check: Ceperley-Alder
V l=0 = -2*Zval/r beyond r=  3.5878
V l=1 = -2*Zval/r beyond r=  3.5878
All V_l potentials equal beyond r=  2.5600
This should be close to max(r_c) in ps generation
All pots = -2*Zval/r beyond r=  3.5878
Using large-core scheme for Vlocal

atom: Estimated core radius    3.58779

atom: Including non-local core corrections could be a good idea
atom: Maximum radius for 4*pi*r*r*local-pseudopot. charge    3.91588
atom: Maximum radius for r*vlocal+2*Zval:    3.63292
GHOST: No ghost state for L =  0
GHOST: No ghost state for L =  1

KBgen: Kleinman-Bylander projectors: 
   l= 0   rc=  2.657845   el= -0.351328   Ekb=  2.184400   kbcos=  0.257081
   l= 1   rc=  2.657845   el= -0.101748   Ekb=  0.525536   kbcos=  0.270508

KBgen: Total number of  Kleinman-Bylander projectors:    4
atom: -------------------------------------------------------------------------

atom: SANKEY-TYPE ORBITALS:

SPLIT: Orbitals with angular momentum L= 0

SPLIT: Basis orbitals for state 3s

SPLIT: PAO cut-off radius determined from an
SPLIT: energy shift=  0.020000 Ry

   izeta = 1
                 lambda =    1.000000
                     rc =    6.619780
                 energy =   -0.332103
                kinetic =    0.289627
    potential(screened) =   -0.621729
       potential(ionic) =   -1.387191
atom: Total number of Sankey-type orbitals:  1

atm_pop: Valence configuration (for local Pseudopot. screening):
 3s( 2.00)                                                            
Vna: chval, zval:    2.00000   2.00000

Vna:  Cut-off radius for the neutral-atom potential:   6.619780

atom: _________________________________________________________________________

<basis_specs>
===============================================================================
C                    Z=   6    Mass=  12.010        Charge= 0.17977+309
Lmxo=1 Lmxkb= 2    BasisType=split      Semic=F
L=0  Nsemic=0  Cnfigmx=2
          n=1  nzeta=1  polorb=0
            splnorm:   0.15000    
               vcte:    0.0000    
               rinn:    0.0000    
               qcoe:    0.0000    
               qyuk:    0.0000    
               qwid:   0.10000E-01
                rcs:    0.0000    
            lambdas:   1.00000    
L=1  Nsemic=0  Cnfigmx=2
          n=1  nzeta=1  polorb=0
            splnorm:   0.15000    
               vcte:    0.0000    
               rinn:    0.0000    
               qcoe:    0.0000    
               qyuk:    0.0000    
               qwid:   0.10000E-01
                rcs:    0.0000    
            lambdas:   1.00000    
-------------------------------------------------------------------------------
L=0  Nkbl=1  erefs: 0.17977+309
L=1  Nkbl=1  erefs: 0.17977+309
L=2  Nkbl=1  erefs: 0.17977+309
===============================================================================
</basis_specs>

atom: Called for C                     (Z =   6)

read_vps: Pseudopotential generation method:
read_vps: ATM3      Troullier-Martins                       
Total valence charge:    4.00000

xc_check: Exchange-correlation functional:
xc_check: Ceperley-Alder
V l=0 = -2*Zval/r beyond r=  1.4666
V l=1 = -2*Zval/r beyond r=  1.5038
V l=2 = -2*Zval/r beyond r=  1.5612
All V_l potentials equal beyond r=  1.5612
This should be close to max(r_c) in ps generation
All pots = -2*Zval/r beyond r=  1.5612

VLOCAL1: 99.0% of the norm of Vloc inside     17.809 Ry
VLOCAL1: 99.9% of the norm of Vloc inside     40.586 Ry
atom: Maximum radius for 4*pi*r*r*local-pseudopot. charge    1.88329
atom: Maximum radius for r*vlocal+2*Zval:    1.62091
GHOST: No ghost state for L =  0
GHOST: No ghost state for L =  1
GHOST: No ghost state for L =  2

KBgen: Kleinman-Bylander projectors: 
   l= 0   rc=  1.747182   el= -1.001947   Ekb=  5.181700   kbcos=  0.300603
   l= 1   rc=  1.747182   el= -0.398598   Ekb= -4.328763   kbcos= -0.367074
   l= 2   rc=  1.955272   el=  0.002326   Ekb= -1.016175   kbcos= -0.009979

KBgen: Total number of  Kleinman-Bylander projectors:    9
atom: -------------------------------------------------------------------------

atom: SANKEY-TYPE ORBITALS:

SPLIT: Orbitals with angular momentum L= 0

SPLIT: Basis orbitals for state 2s

SPLIT: PAO cut-off radius determined from an
SPLIT: energy shift=  0.020000 Ry

   izeta = 1
                 lambda =    1.000000
                     rc =    4.191849
                 energy =   -0.983897
                kinetic =    0.886956
    potential(screened) =   -1.870853
       potential(ionic) =   -5.479661

SPLIT: Orbitals with angular momentum L= 1

SPLIT: Basis orbitals for state 2p

SPLIT: PAO cut-off radius determined from an
SPLIT: energy shift=  0.020000 Ry

   izeta = 1
                 lambda =    1.000000
                     rc =    4.870301
                 energy =   -0.379093
                kinetic =    2.545357
    potential(screened) =   -2.924450
       potential(ionic) =   -6.433151
atom: Total number of Sankey-type orbitals:  4

atm_pop: Valence configuration (for local Pseudopot. screening):
 2s( 2.00)                                                            
 2p( 2.00)                                                            
Vna: chval, zval:    4.00000   4.00000

Vna:  Cut-off radius for the neutral-atom potential:   4.870301

atom: _________________________________________________________________________

<basis_specs>
===============================================================================
O                    Z=   8    Mass=  16.000        Charge= 0.17977+309
Lmxo=1 Lmxkb= 2    BasisType=split      Semic=F
L=0  Nsemic=0  Cnfigmx=2
          n=1  nzeta=1  polorb=0
            splnorm:   0.15000    
               vcte:    0.0000    
               rinn:    0.0000    
               qcoe:    0.0000    
               qyuk:    0.0000    
               qwid:   0.10000E-01
                rcs:    0.0000    
            lambdas:   1.00000    
L=1  Nsemic=0  Cnfigmx=2
          n=1  nzeta=1  polorb=0
            splnorm:   0.15000    
               vcte:    0.0000    
               rinn:    0.0000    
               qcoe:    0.0000    
               qyuk:    0.0000    
               qwid:   0.10000E-01
                rcs:    0.0000    
            lambdas:   1.00000    
-------------------------------------------------------------------------------
L=0  Nkbl=1  erefs: 0.17977+309
L=1  Nkbl=1  erefs: 0.17977+309
L=2  Nkbl=1  erefs: 0.17977+309
===============================================================================
</basis_specs>

atom: Called for O                     (Z =   8)

read_vps: Pseudopotential generation method:
read_vps: ATM3      Troullier-Martins                       
Total valence charge:    6.00000

xc_check: Exchange-correlation functional:
xc_check: Ceperley-Alder
V l=0 = -2*Zval/r beyond r=  1.1278
V l=1 = -2*Zval/r beyond r=  1.1278
V l=2 = -2*Zval/r beyond r=  1.1278
All V_l potentials equal beyond r=  1.1278
This should be close to max(r_c) in ps generation
All pots = -2*Zval/r beyond r=  1.1278

VLOCAL1: 99.0% of the norm of Vloc inside     34.126 Ry
VLOCAL1: 99.9% of the norm of Vloc inside     77.774 Ry
atom: Maximum radius for 4*pi*r*r*local-pseudopot. charge    1.37759
atom: Maximum radius for r*vlocal+2*Zval:    1.18566
GHOST: No ghost state for L =  0
GHOST: No ghost state for L =  1
GHOST: No ghost state for L =  2

KBgen: Kleinman-Bylander projectors: 
   l= 0   rc=  1.294105   el= -1.742414   Ekb=  9.135903   kbcos=  0.326910
   l= 1   rc=  1.294105   el= -0.676589   Ekb= -8.124878   kbcos= -0.395047
   l= 2   rc=  1.448233   el=  0.002386   Ekb= -2.039267   kbcos= -0.003484

KBgen: Total number of  Kleinman-Bylander projectors:    9
atom: -------------------------------------------------------------------------

atom: SANKEY-TYPE ORBITALS:

SPLIT: Orbitals with angular momentum L= 0

SPLIT: Basis orbitals for state 2s

SPLIT: PAO cut-off radius determined from an
SPLIT: energy shift=  0.020000 Ry

   izeta = 1
                 lambda =    1.000000
                     rc =    3.305093
                 energy =   -1.723766
                kinetic =    1.614911
    potential(screened) =   -3.338677
       potential(ionic) =  -11.304675

SPLIT: Orbitals with angular momentum L= 1

SPLIT: Basis orbitals for state 2p

SPLIT: PAO cut-off radius determined from an
SPLIT: energy shift=  0.020000 Ry

   izeta = 1
                 lambda =    1.000000
                     rc =    3.937239
                 energy =   -0.658841
                kinetic =    5.005986
    potential(screened) =   -5.664827
       potential(ionic) =  -13.452360
atom: Total number of Sankey-type orbitals:  4

atm_pop: Valence configuration (for local Pseudopot. screening):
 2s( 2.00)                                                            
 2p( 4.00)                                                            
Vna: chval, zval:    6.00000   6.00000

Vna:  Cut-off radius for the neutral-atom potential:   3.937239

atom: _________________________________________________________________________

prinput: Basis input ----------------------------------------------------------

PAO.BasisType split     

%block ChemicalSpeciesLabel
    1   12 Mg                      # Species index, atomic number, species label
    2    6 C                       # Species index, atomic number, species label
    3    8 O                       # Species index, atomic number, species label
%endblock ChemicalSpeciesLabel

%block PAO.Basis                 # Define Basis set
Mg                    1                    # Species label, number of l-shells
 n=3   0   1                         # n, l, Nzeta 
   6.620   
   1.000   
C                     2                    # Species label, number of l-shells
 n=2   0   1                         # n, l, Nzeta 
   4.192   
   1.000   
 n=2   1   1                         # n, l, Nzeta 
   4.870   
   1.000   
O                     2                    # Species label, number of l-shells
 n=2   0   1                         # n, l, Nzeta 
   3.305   
   1.000   
 n=2   1   1                         # n, l, Nzeta 
   3.937   
   1.000   
%endblock PAO.Basis

prinput: ----------------------------------------------------------------------

Dumping basis to NetCDF file Mg.ion.nc
Dumping basis to NetCDF file C.ion.nc
Dumping basis to NetCDF file O.ion.nc
coor:   Atomic-coordinates input format  =     Fractional

siesta: Atomic coordinates (Bohr) and species
siesta:      0.00000   0.00000   0.00000  1        1
siesta:     12.51930   5.59740   3.66414  1        2
siesta:      6.25965   2.79870   1.83207  2        3
siesta:     -6.25965  -2.79870  -1.83207  2        4
siesta:      7.25136   0.58061   1.83207  3        5
siesta:      6.25965   4.12944  -0.20079  3        6
siesta:      5.26794   3.68605   3.86493  3        7
siesta:     -7.25136  -0.58061  -1.83207  3        8
siesta:     -6.25965  -4.12944   0.20079  3        9
siesta:     -5.26794  -3.68605  -3.86493  3       10

siesta: System type = bulk      

initatomlists: Number of atoms, orbitals, and projectors:     10    34    80

siesta: ******************** Simulation parameters ****************************
siesta:
siesta: The following are some of the parameters of the simulation.
siesta: A complete list of the parameters used, including default values,
siesta: can be found in file out.fdf
siesta:
redata: Non-Collinear-spin run           =     F
redata: SpinPolarized (Up/Down) run      =     F
redata: Number of spin components        =     1
redata: Long output                      =     F
redata: Number of Atomic Species         =        3
redata: Charge density info will appear in .RHO file
redata: Write Mulliken Pop.              =     NO
redata: Mesh Cutoff                      =   100.0000  Ry
redata: Net charge of the system         =     0.0000 |e|
redata: Min. number of SCF Iter          =        0
redata: Max. number of SCF Iter          =       20
redata: Mix DM or H after convergence    =     F
redata: Recompute H after scf cycle      =     F
redata: Broyden mixing with     4 saved histories.
redata: Mix DM in first SCF step ?       =     F
redata: Write Pulay info on disk?        =     F
redata: Discard 1st Pulay DM after  kick =     F
redata: New DM Mixing Weight             =     0.1000
redata: New DM Occupancy tolerance       = 0.000000000001
redata: No kicks to SCF
redata: DM Mixing Weight for Kicks       =     0.5000
redata: DM Tolerance for SCF             =     0.001000
redata: Require (free) Energy convergence in SCF =     F
redata: DM (free)Energy tolerance for SCF =     0.000010 eV
redata: Require Harris convergence for SCF =     F
redata: DM Harris energy tolerance for SCF =     0.000010 eV
redata: Using Saved Data (generic)   =     F
redata: Use continuation files for DM    =     T
redata: Neglect nonoverlap interactions  =     F
redata: Method of Calculation            =     Diagonalization
redata: Divide and Conquer               =     F
redata: Electronic Temperature           =     0.0019  Ry
redata: Fix the spin of the system       =     F
redata: Dynamics option                  =     Broyden coord. optimization
redata: Variable cell                    =     T
redata: Maximum number of CG moves       =       30
redata: Force tolerance                  =     0.0016  Ry/Bohr
redata: Stress tolerance                 =     2.0000  GPa
redata: ***********************************************************************
Total number of electrons:    48.000000
Total ionic charge:    48.000000

* ProcessorY, Blocksize:    2   9


* Orbital distribution balance (max,min):     9     7

 Kpoints in:          154 . Kpoints trimmed:          154

siesta: k-grid: Number of k-points =   154
siesta: k-grid: Cutoff (effective) =    16.222 Ang
siesta: k-grid: Supercell and displacements
siesta: k-grid:   -7   0   7      0.500
siesta: k-grid:    0  -7   7      0.000
siesta: k-grid:    0   0   6      0.000
Naive supercell factors:     4    4    4
Auxiliary supercell needs to be larger than naive one...

superc: Internal auxiliary supercell:     5 x     5 x     4  =     100
superc: Number of atoms, orbitals, and projectors:   1000   3400   8000

                     ====================================
                        Begin Broyden opt. move =      0
                     ====================================

outcoor: Atomic coordinates (fractional):                   
    0.00000000    0.00000000    0.00000000   1       1  Mg
    0.50000000    0.50000000    0.50000000   1       2  Mg
    0.25000000    0.25000000    0.25000000   2       3  C
   -0.25000000   -0.25000000   -0.25000000   2       4  C
    0.52740000   -0.02740000    0.25000000   3       5  O
    0.25000000    0.52740000   -0.02740000   3       6  O
   -0.02740000    0.25000000    0.52740000   3       7  O
   -0.52740000    0.02740000   -0.25000000   3       8  O
   -0.25000000   -0.52740000    0.02740000   3       9  O
    0.02740000   -0.25000000   -0.52740000   3      10  O

superc: Internal auxiliary supercell:     5 x     5 x     4  =     100
superc: Number of atoms, orbitals, and projectors:   1000   3400   8000

outcell: Unit cell vectors (Ang):
        5.677830    0.000000    0.000000
        3.786009    4.231299    0.000000
        3.786009    1.692731    3.877957

outcell: Cell vector modules (Ang)   :    5.677830    5.677830    5.677830
outcell: Cell angles (23,13,12) (deg):     48.1790     48.1790     48.1790
outcell: Cell volume (Ang**3)        :     93.1663
New_DM. Step:     1
Initializing Density Matrix...
New grid distribution:   1
           1       1:   16    1:    8    1:    8
           2       1:   16    1:    8    9:   16
           3       1:   16    9:   16    1:    8
           4       1:   16    9:   16    9:   16

InitMesh: MESH =    32 x    32 x    32 =       32768
InitMesh: (bp) =    16 x    16 x    16 =        4096
InitMesh: Mesh cutoff (required, used) =   100.000   112.857 Ry
ExtMesh (bp) on 0 =    76 x    68 x    68 =      351424
New grid distribution:   2
           1       1:   16    1:    8    1:    8
           2       1:   16    1:    8    9:   16
           3       1:   16    9:   16    1:    8
           4       1:   16    9:   16    9:   16
New grid distribution:   3
           1       1:   16    1:    8    1:    8
           2       1:   16    1:    8    9:   16
           3       1:   16    9:   16    1:    8
           4       1:   16    9:   16    9:   16
Setting up quadratic distribution...
ExtMesh (bp) on 0 =    76 x    68 x    68 =      351424
PhiOnMesh: Number of (b)points on node 0 =                 1024
PhiOnMesh: nlist on node 0 =                22552

stepf: Fermi-Dirac step function

siesta: Program's energy decomposition (eV):
siesta: Ebs     =      -700.301948
siesta: Eions   =      5228.674091
siesta: Ena     =      1092.429444
siesta: Ekin    =      2100.835149
siesta: Enl     =      -258.044678
siesta: DEna    =        -0.000017
siesta: DUscf   =         0.000000
siesta: DUext   =         0.000000
siesta: Exc     =      -683.847186
siesta: eta*DQ  =         0.000000
siesta: Emadel  =         0.000000
siesta: Emeta   =         0.000000
siesta: Emolmec =         0.000000
siesta: Ekinion =         0.000000
siesta: Eharris =     -2966.326653
siesta: Etot    =     -2977.301380
siesta: FreeEng =     -2977.301380

siesta: Eharris(eV) =   -2966.326653


siesta: Eharris(eV) =   -2966.326653

 Broyden: No of relevant DM elements:         9610
 maxit for broyden:            4
 cycle on maxit:  T
 variable weight:  T
 initial alpha:   0.100000000000000     
timer: Routine,Calls,Time,% =    IterSCF     1       0.982  39.61
:!: SCF did not converge in maximum number of steps.

Using DM_out to compute the final energy and forces

siesta: E_KS - E_eggbox =     -2949.8288

siesta: Atomic forces (eV/Ang):
     1   -0.000000    0.000000    0.000000
     2    0.000000   -0.000000   -0.000000
     3    0.000000   -0.000001    0.000001
     4   -0.000000    0.000001   -0.000001
     5    2.760285   -6.173729   -0.000000
     6    0.000000    3.703929   -5.658182
     7   -2.760285    2.469801    5.658181
     8   -2.760285    6.173729    0.000000
     9   -0.000000   -3.703929    5.658182
    10    2.760285   -2.469801   -5.658181
----------------------------------------
   Tot   -0.000000    0.000000    0.000000
----------------------------------------
   Max    6.173729
   Res    3.024371    sqrt( Sum f_i^2 / 3N )
----------------------------------------
   Max    6.173729    constrained

Stress-tensor-Voigt (kbar):      567.99      382.09      355.54      103.89       30.41       68.01
(Free)E + p*V (eV/cell)    -2975.1357
Target enthalpy (eV/cell)    -2891.6795

siesta: Stress tensor (static) (eV/Ang**3):
         0.354511    0.064841    0.042446
         0.064841    0.238476    0.018978
         0.042446    0.018978    0.221909

siesta: Pressure (static):       -435.20680258  kBar

siesta: Stress tensor (total) (eV/Ang**3):
         0.354511    0.064841    0.042446
         0.064841    0.238476    0.018978
         0.042446    0.018978    0.221909

siesta: Pressure (total):       -435.20680258  kBar
 
Broyden_optim: max_history for broyden:   6
Broyden_optim: cycle on maxit: T
Broyden_optim: initial inverse jacobian:   1.0000
 
Broyden_optim: No of elements:     36

Broyden_optim: No target stress found, assuming hydrostatic MD.TargetPressure.

Broyden_optim: Target stress (kBar)
Broyden_optim:     -1000.000       0.000       0.000
Broyden_optim:         0.000   -1000.000       0.000
Broyden_optim:         0.000       0.000   -1000.000

                     ====================================
                        Begin Broyden opt. move =      1
                     ====================================

outcoor: Atomic coordinates (fractional):                   
   -0.00000000    0.00000000    0.00000000   1       1  Mg
    0.50000000    0.50000000    0.50000000   1       2  Mg
    0.25000000    0.25000000    0.25000000   2       3  C
   -0.25000000   -0.25000000   -0.25000000   2       4  C
    0.53740574   -0.03740574    0.25000000   3       5  O
    0.25000000    0.53740574   -0.03740574   3       6  O
   -0.03740575    0.25000000    0.53740574   3       7  O
   -0.53740574    0.03740574   -0.25000000   3       8  O
   -0.25000000   -0.53740574    0.03740574   3       9  O
    0.03740575   -0.25000000   -0.53740574   3      10  O
 Kpoints in:          168 . Kpoints trimmed:          168

siesta: k-grid: Number of k-points =   168
siesta: k-grid: Cutoff (effective) =    15.185 Ang
siesta: k-grid: Supercell and displacements
siesta: k-grid:    0   7  -7      0.500
siesta: k-grid:   -7   0   7      0.000
siesta: k-grid:    0   6   0      0.000
Naive supercell factors:     4    4    4
Auxiliary supercell needs to be larger than naive one...

superc: Internal auxiliary supercell:     5 x     5 x     4  =     100
superc: Number of atoms, orbitals, and projectors:   1000   3400   8000

outcell: Unit cell vectors (Ang):
        5.251635   -0.028238   -0.018485
        3.480776    3.932513   -0.018485
        3.480776    1.556261    3.611517

outcell: Cell vector modules (Ang)   :    5.251743    5.251743    5.251743
outcell: Cell angles (23,13,12) (deg):     48.7948     48.7948     48.7948
outcell: Cell volume (Ang**3)        :     75.2462
New_DM. Step:     2
Initializing Density Matrix...
New grid distribution:   1
           1       1:   15    1:    8    1:    8
           2       1:   15    1:    8    9:   15
           3       1:   15    9:   15    1:    8
           4       1:   15    9:   15    9:   15

InitMesh: MESH =    30 x    30 x    30 =       27000
InitMesh: (bp) =    15 x    15 x    15 =        3375
InitMesh: Mesh cutoff (required, used) =   100.000   116.744 Ry
ExtMesh (bp) on 0 =    75 x    68 x    68 =      346800
New grid distribution:   2
           1       1:   15    1:    7    1:    7
           2       1:   15    1:    8    8:   15
           3       1:   15    8:   15    1:    7
           4       1:   15    9:   15    8:   15
New grid distribution:   3
           1       1:   15    1:    8    1:    8
           2       1:   15    1:    8    9:   15
           3       1:   15    9:   15    1:    8
           4       1:   15    9:   15    9:   15
Setting up quadratic distribution...
ExtMesh (bp) on 0 =    75 x    67 x    67 =      336675
PhiOnMesh: Number of (b)points on node 0 =                  735
PhiOnMesh: nlist on node 0 =                19894

siesta: Eharris(eV) =   -2965.796810


siesta: Eharris(eV) =   -2965.796810

:!: SCF did not converge in maximum number of steps.

Using DM_out to compute the final energy and forces

siesta: Atomic forces (eV/Ang):
     1   -0.000000    0.000000   -0.000000
     2    0.000000   -0.000000    0.000000
     3   -0.000000    0.000000   -0.000001
     4    0.000000   -0.000000    0.000001
     5    3.774812   -8.442847   -0.000000
     6   -0.000000    5.065285   -7.737812
     7   -3.774812    3.377561    7.737813
     8   -3.774812    8.442847    0.000000
     9    0.000000   -5.065285    7.737812
    10    3.774812   -3.377561   -7.737813
----------------------------------------
   Tot   -0.000000    0.000000   -0.000000
----------------------------------------
   Max    8.442847
   Res    4.135961    sqrt( Sum f_i^2 / 3N )
----------------------------------------
   Max    8.442847    constrained

Stress-tensor-Voigt (kbar):      453.52       49.24       -8.48      225.91       66.12      147.88
(Free)E + p*V (eV/cell)    -2956.5877
Target enthalpy (eV/cell)    -2901.8854

siesta: Stress tensor (static) (eV/Ang**3):
         0.283059    0.141001    0.092301
         0.141001    0.030734    0.041268
         0.092301    0.041268   -0.005293

siesta: Pressure (static):       -164.75942245  kBar

siesta: Stress tensor (total) (eV/Ang**3):
         0.283059    0.141001    0.092301
         0.141001    0.030734    0.041268
         0.092301    0.041268   -0.005293

siesta: Pressure (total):       -164.75942245  kBar

                     ====================================
                        Begin Broyden opt. move =      2
                     ====================================

outcoor: Atomic coordinates (fractional):                   
   -0.00000000   -0.00000000   -0.00000000   1       1  Mg
    0.50000000    0.50000000    0.50000000   1       2  Mg
    0.25000000    0.25000000    0.25000000   2       3  C
   -0.25000000   -0.25000000   -0.25000000   2       4  C
    0.56751368   -0.06751367    0.25000000   3       5  O
    0.25000000    0.56751367   -0.06751367   3       6  O
   -0.06751368    0.25000000    0.56751367   3       7  O
   -0.56751368    0.06751367   -0.25000000   3       8  O
   -0.25000000   -0.56751367    0.06751367   3       9  O
    0.06751368   -0.25000000   -0.56751367   3      10  O
 Kpoints in:          448 . Kpoints trimmed:          224

siesta: k-grid: Number of k-points =   224
siesta: k-grid: Cutoff (effective) =    15.757 Ang
siesta: k-grid: Supercell and displacements
siesta: k-grid:    0  -8   8      0.500
siesta: k-grid:    0   0   7      0.500
siesta: k-grid:   -8   0   8      0.000
Naive supercell factors:     5    5    5

superc: Internal auxiliary supercell:     5 x     5 x     5  =     125
superc: Number of atoms, orbitals, and projectors:   1250   4250  10000

outcell: Unit cell vectors (Ang):
        4.501575   -0.144815   -0.094798
        2.893755    3.451279   -0.094798
        2.893755    1.293803    3.200998

outcell: Cell vector modules (Ang)   :    4.504901    4.504901    4.504901
outcell: Cell angles (23,13,12) (deg):     51.8518     51.8518     51.8518
outcell: Cell volume (Ang**3)        :     52.2564
New_DM. Step:     3
DM reset as supercell changed.
Initializing Density Matrix...
New grid distribution:   1
           1       1:   12    1:    6    1:    6
           2       1:   12    1:    6    7:   12
           3       1:   12    7:   12    1:    6
           4       1:   12    7:   12    7:   12

InitMesh: MESH =    24 x    24 x    24 =       13824
InitMesh: (bp) =    12 x    12 x    12 =        1728
InitMesh: Mesh cutoff (required, used) =   100.000   105.274 Ry
ExtMesh (bp) on 0 =    64 x    58 x    58 =      215296
New grid distribution:   2
           1       1:   12    1:    6    1:    6
           2       1:   12    1:    6    7:   12
           3       1:   12    7:   12    1:    6
           4       1:   12    7:   12    7:   12
New grid distribution:   3
           1       1:   12    1:    6    1:    6
           2       1:   12    1:    6    7:   12
           3       1:   12    7:   12    1:    6
           4       1:   12    7:   12    7:   12
Setting up quadratic distribution...
ExtMesh (bp) on 0 =    64 x    58 x    58 =      215296
PhiOnMesh: Number of (b)points on node 0 =                  432
PhiOnMesh: nlist on node 0 =                16556

siesta: Eharris(eV) =   -2956.021850


siesta: Eharris(eV) =   -2956.021850

:!: SCF did not converge in maximum number of steps.

Using DM_out to compute the final energy and forces

siesta: Atomic forces (eV/Ang):
     1    0.000000    0.000000    0.000000
     2   -0.000000   -0.000000   -0.000000
     3   -0.000000   -0.000000    0.000001
     4    0.000000    0.000000   -0.000001
     5    1.024315   -2.291016    0.000001
     6   -0.000000    1.374496   -2.099700
     7   -1.024316    0.916522    2.099700
     8   -1.024315    2.291016   -0.000001
     9    0.000000   -1.374496    2.099700
    10    1.024316   -0.916522   -2.099700
----------------------------------------
   Tot    0.000000    0.000000    0.000000
----------------------------------------
   Max    2.291016
   Res    1.122317    sqrt( Sum f_i^2 / 3N )
----------------------------------------
   Max    2.291016    constrained

Stress-tensor-Voigt (kbar):     -908.64    -1196.62    -1237.73      160.92       47.10      105.34
(Free)E + p*V (eV/cell)    -2897.9860
Target enthalpy (eV/cell)    -2901.7149

siesta: Stress tensor (static) (eV/Ang**3):
        -0.567121    0.100440    0.065749
         0.100440   -0.746860    0.029397
         0.065749    0.029397   -0.772524

siesta: Pressure (static):       1114.32885322  kBar

siesta: Stress tensor (total) (eV/Ang**3):
        -0.567121    0.100440    0.065749
         0.100440   -0.746860    0.029397
         0.065749    0.029397   -0.772524

siesta: Pressure (total):       1114.32885322  kBar

                     ====================================
                        Begin Broyden opt. move =      3
                     ====================================

outcoor: Atomic coordinates (fractional):                   
   -0.00000000    0.00000000    0.00000000   1       1  Mg
    0.50000000    0.50000000    0.50000000   1       2  Mg
    0.25000000    0.25000000    0.25000000   2       3  C
   -0.25000000   -0.25000000   -0.25000000   2       4  C
    0.56782832   -0.06782832    0.25000000   3       5  O
    0.25000000    0.56782832   -0.06782832   3       6  O
   -0.06782832    0.25000000    0.56782832   3       7  O
   -0.56782832    0.06782832   -0.25000000   3       8  O
   -0.25000000   -0.56782832    0.06782832   3       9  O
    0.06782832   -0.25000000   -0.56782832   3      10  O
 Kpoints in:          280 . Kpoints trimmed:          280

siesta: k-grid: Number of k-points =   280
siesta: k-grid: Cutoff (effective) =    16.014 Ang
siesta: k-grid: Supercell and displacements
siesta: k-grid:    0   8  -8      0.500
siesta: k-grid:    0   7   0      0.000
siesta: k-grid:   -8   8   0      0.500
Naive supercell factors:     5    5    5

superc: Internal auxiliary supercell:     5 x     5 x     5  =     125
superc: Number of atoms, orbitals, and projectors:   1250   4250  10000

outcell: Unit cell vectors (Ang):
        4.571326   -0.160805   -0.105265
        2.928349    3.513923   -0.105265
        2.928349    1.309270    3.262598

outcell: Cell vector modules (Ang)   :    4.575365    4.575365    4.575365
outcell: Cell angles (23,13,12) (deg):     52.1934     52.1934     52.1934
outcell: Cell volume (Ang**3)        :     55.3036
New_DM. Step:     4
Initializing Density Matrix...
New grid distribution:   1
           1       1:   12    1:    6    1:    6
           2       1:   12    1:    6    7:   12
           3       1:   12    7:   12    1:    6
           4       1:   12    7:   12    7:   12

InitMesh: MESH =    24 x    24 x    24 =       13824
InitMesh: (bp) =    12 x    12 x    12 =        1728
InitMesh: Mesh cutoff (required, used) =   100.000   102.487 Ry
ExtMesh (bp) on 0 =    64 x    58 x    58 =      215296
New grid distribution:   2
           1       1:   12    1:    6    1:    6
           2       1:   12    1:    6    7:   12
           3       1:   12    7:   12    1:    6
           4       1:   12    7:   12    7:   12
New grid distribution:   3
           1       1:   12    1:    6    1:    6
           2       1:   12    1:    6    7:   12
           3       1:   12    7:   12    1:    6
           4       1:   12    7:   12    7:   12
Setting up quadratic distribution...
ExtMesh (bp) on 0 =    64 x    58 x    58 =      215296
PhiOnMesh: Number of (b)points on node 0 =                  432
PhiOnMesh: nlist on node 0 =                15730

siesta: Eharris(eV) =   -3685.104920


siesta: Eharris(eV) =   -3685.104920

:!: SCF did not converge in maximum number of steps.

Using DM_out to compute the final energy and forces

siesta: Atomic forces (eV/Ang):
     1   -0.000000    0.000000   -0.000000
     2    0.000000   -0.000000    0.000000
     3    0.003704   -0.040742    0.049425
     4   -0.003704    0.040742   -0.049425
     5  -16.633020   37.274888    0.043118
     6    0.011767  -22.251245   33.984194
     7   16.613072  -14.949339  -34.113098
     8   16.633020  -37.274888   -0.043118
     9   -0.011767   22.251245  -33.984193
    10  -16.613072   14.949339   34.113098
----------------------------------------
   Tot   -0.000000   -0.000000    0.000000
----------------------------------------
   Max   37.274888
   Res   18.219595    sqrt( Sum f_i^2 / 3N )
----------------------------------------
   Max   37.274888    constrained

Stress-tensor-Voigt (kbar):     9425.73    11664.20    12014.90    -1234.11     -390.48     -811.27
(Free)E + p*V (eV/cell)    -4004.5299
Target enthalpy (eV/cell)    -3589.1151

siesta: Stress tensor (static) (eV/Ang**3):
         5.883013   -0.770263   -0.506348
        -0.770263    7.280142   -0.243714
        -0.506348   -0.243714    7.499028

siesta: Pressure (static):     -11034.94141844  kBar

siesta: Stress tensor (total) (eV/Ang**3):
         5.883013   -0.770263   -0.506348
        -0.770263    7.280142   -0.243714
        -0.506348   -0.243714    7.499028

siesta: Pressure (total):     -11034.94141844  kBar

                     ====================================
                        Begin Broyden opt. move =      4
                     ====================================

outcoor: Atomic coordinates (fractional):                   
    0.00000000    0.00000000    0.00000000   1       1  Mg
    0.50000000    0.50000000    0.50000000   1       2  Mg
    0.24999950    0.25000374    0.24999677   2       3  C
   -0.24999950   -0.25000374   -0.24999677   2       4  C
    0.56182771   -0.06183412    0.24999358   3       5  O
    0.24999852    0.56181951   -0.06182077   3       6  O
   -0.06182513    0.25000792    0.56183281   3       7  O
   -0.56182771    0.06183412   -0.24999358   3       8  O
   -0.24999852   -0.56181951    0.06182077   3       9  O
    0.06182513   -0.25000792   -0.56183282   3      10  O
 Kpoints in:          448 . Kpoints trimmed:          448

siesta: k-grid: Number of k-points =   448
siesta: k-grid: Cutoff (effective) =    16.841 Ang
siesta: k-grid: Supercell and displacements
siesta: k-grid:    8  -8   0      0.500
siesta: k-grid:    7   0   0      0.500
siesta: k-grid:    8   0  -8      0.000
Naive supercell factors:     5    5    5

superc: Internal auxiliary supercell:     5 x     5 x     5  =     125
superc: Number of atoms, orbitals, and projectors:   1250   4250  10000

outcell: Unit cell vectors (Ang):
        4.849371   -0.137675   -0.090147
        3.130988    3.705860   -0.090289
        3.130972    1.399794    3.432541

outcell: Cell vector modules (Ang)   :    4.852162    4.852282    4.852293
outcell: Cell angles (23,13,12) (deg):     51.4265     51.4237     51.4230
outcell: Cell volume (Ang**3)        :     64.4688
New_DM. Step:     5
Initializing Density Matrix...
New grid distribution:   1
           1       1:   15    1:    8    1:    8
           2       1:   15    1:    8    9:   15
           3       1:   15    9:   15    1:    8
           4       1:   15    9:   15    9:   15

InitMesh: MESH =    30 x    30 x    30 =       27000
InitMesh: (bp) =    15 x    15 x    15 =        3375
InitMesh: Mesh cutoff (required, used) =   100.000   141.045 Ry
ExtMesh (bp) on 0 =    79 x    72 x    72 =      409536
New grid distribution:   2
           1       1:   15    1:    7    1:    8
           2       1:   15    1:    8    9:   15
           3       1:   15    8:   15    1:    8
           4       1:   15    9:   15    9:   15
New grid distribution:   3
           1       1:   15    1:    8    1:    8
           2       1:   15    1:    8    9:   15
           3       1:   15    9:   15    1:    8
           4       1:   15    9:   15    9:   15
Setting up quadratic distribution...
ExtMesh (bp) on 0 =    79 x    71 x    72 =      403848
PhiOnMesh: Number of (b)points on node 0 =                  840
PhiOnMesh: nlist on node 0 =                25779

siesta: Eharris(eV) =   -3653.368379


siesta: Eharris(eV) =   -3653.368379

:!: SCF did not converge in maximum number of steps.

Using DM_out to compute the final energy and forces

siesta: Atomic forces (eV/Ang):
     1    0.000000   -0.000000   -0.000000
     2   -0.000000   -0.000000    0.000000
     3    0.002837   -0.011701    0.008173
     4   -0.002838    0.011702   -0.008174
     5  -18.016403   40.180778   -0.052180
     6    0.058346  -24.117867   36.828630
     7   17.944999  -16.040863  -36.765405
     8   18.016402  -40.180778    0.052180
     9   -0.058346   24.117866  -36.828629
    10  -17.944998   16.040864   36.765405
----------------------------------------
   Tot    0.000001    0.000001    0.000000
----------------------------------------
   Max   40.180778
   Res   19.677633    sqrt( Sum f_i^2 / 3N )
----------------------------------------
   Max   40.180778    constrained

Stress-tensor-Voigt (kbar):     7614.92    10059.12    10420.96    -1363.19     -389.53     -901.93
(Free)E + p*V (eV/cell)    -3963.4248
Target enthalpy (eV/cell)    -3546.3597

siesta: Stress tensor (static) (eV/Ang**3):
         4.752807   -0.850827   -0.562936
        -0.850827    6.278339   -0.243124
        -0.562936   -0.243124    6.504181

siesta: Pressure (static):      -9364.99781425  kBar

siesta: Stress tensor (total) (eV/Ang**3):
         4.752807   -0.850827   -0.562936
        -0.850827    6.278339   -0.243124
        -0.562936   -0.243124    6.504181

siesta: Pressure (total):      -9364.99781425  kBar

                     ====================================
                        Begin Broyden opt. move =      5
                     ====================================

outcoor: Atomic coordinates (fractional):                   
    0.00000000    0.00000000    0.00000000   1       1  Mg
    0.50000000    0.50000000    0.50000000   1       2  Mg
    0.24999719    0.25008448    0.24991870   2       3  C
   -0.24999720   -0.25008448   -0.24991870   2       4  C
    0.55257008   -0.05310078    0.24951316   3       5  O
    0.25019453    0.55263731   -0.05240625   3       6  O
   -0.05278811    0.25029258    0.55308838   3       7  O
   -0.55257008    0.05310078   -0.24951316   3       8  O
   -0.25019453   -0.55263731    0.05240625   3       9  O
    0.05278811   -0.25029258   -0.55308838   3      10  O
 Kpoints in:          280 . Kpoints trimmed:          280

siesta: k-grid: Number of k-points =   280
siesta: k-grid: Cutoff (effective) =    15.818 Ang
siesta: k-grid: Supercell and displacements
siesta: k-grid:    8   0  -8      0.500
siesta: k-grid:    7   0   0      0.000
siesta: k-grid:    8  -8   0      0.500
Naive supercell factors:     5    5    5

superc: Internal auxiliary supercell:     5 x     5 x     5  =     125
superc: Number of atoms, orbitals, and projectors:   1250   4250  10000

outcell: Unit cell vectors (Ang):
        4.713901   -0.057947   -0.036261
        3.100072    3.555404   -0.043156
        3.101214    1.381765    3.275027

outcell: Cell vector modules (Ang)   :    4.714397    4.717330    4.717267
outcell: Cell angles (23,13,12) (deg):     49.7255     49.5783     49.6162
outcell: Cell volume (Ang**3)        :     56.0105
New_DM. Step:     6
Initializing Density Matrix...
New grid distribution:   1
           1       1:   15    1:    8    1:    8
           2       1:   15    1:    8    9:   15
           3       1:   15    9:   15    1:    8
           4       1:   15    9:   15    9:   15

InitMesh: MESH =    30 x    30 x    30 =       27000
InitMesh: (bp) =    15 x    15 x    15 =        3375
InitMesh: Mesh cutoff (required, used) =   100.000   146.164 Ry
ExtMesh (bp) on 0 =    79 x    72 x    72 =      409536
New grid distribution:   2
           1       1:   15    1:    7    1:    7
           2       1:   15    1:    7    8:   15
           3       1:   15    8:   15    1:    7
           4       1:   15    8:   15    8:   15
New grid distribution:   3
           1       1:   15    1:    8    1:    8
           2       1:   15    1:    8    9:   15
           3       1:   15    9:   15    1:    8
           4       1:   15    9:   15    9:   15
Setting up quadratic distribution...
ExtMesh (bp) on 0 =    79 x    71 x    71 =      398239
PhiOnMesh: Number of (b)points on node 0 =                  735
PhiOnMesh: nlist on node 0 =                25807

siesta: Eharris(eV) =   -3705.396885


siesta: Eharris(eV) =   -3705.396885

:!: SCF did not converge in maximum number of steps.

Using DM_out to compute the final energy and forces

siesta: Atomic forces (eV/Ang):
     1    0.000001   -0.000002    0.000001
     2    0.000001   -0.000002    0.000002
     3   -0.063812   -0.425166    0.884286
     4    0.063810    0.425177   -0.884291
     5  -23.653196   52.672584    0.141500
     6    0.067695  -31.394943   47.951578
     7   23.715115  -21.227086  -48.521093
     8   23.653200  -52.672591   -0.141500
     9   -0.067696   31.394942  -47.951575
    10  -23.715124   21.227087   48.521093
----------------------------------------
   Tot   -0.000007   -0.000001    0.000002
----------------------------------------
   Max   52.672591
   Res   25.803301    sqrt( Sum f_i^2 / 3N )
----------------------------------------
   Max   52.672591    constrained

Stress-tensor-Voigt (kbar):    12036.60    15826.08    16425.48    -2149.77     -545.94    -1446.46
(Free)E + p*V (eV/cell)    -4081.7175
Target enthalpy (eV/cell)    -3530.6740

siesta: Stress tensor (static) (eV/Ang**3):
         7.512574   -1.341765   -0.902800
        -1.341765    9.877753   -0.340742
        -0.902800   -0.340742   10.251870

siesta: Pressure (static):     -14762.72061952  kBar

siesta: Stress tensor (total) (eV/Ang**3):
         7.512574   -1.341765   -0.902800
        -1.341765    9.877753   -0.340742
        -0.902800   -0.340742   10.251870

siesta: Pressure (total):     -14762.72061952  kBar

                     ====================================
                        Begin Broyden opt. move =      6
                     ====================================

outcoor: Atomic coordinates (fractional):                   
    0.00000000    0.00000000    0.00000000   1       1  Mg
    0.50000000    0.50000000    0.50000000   1       2  Mg
    0.25002495    0.25018480    0.24978587   2       3  C
   -0.25002495   -0.25018480   -0.24978587   2       4  C
    0.56617040   -0.06639672    0.24975536   3       5  O
    0.25007512    0.56613170   -0.06603637   3       6  O
   -0.06631203    0.25013373    0.56645488   3       7  O
   -0.56617040    0.06639672   -0.24975536   3       8  O
   -0.25007512   -0.56613170    0.06603637   3       9  O
    0.06631204   -0.25013372   -0.56645487   3      10  O
 Kpoints in:          448 . Kpoints trimmed:          448

siesta: k-grid: Number of k-points =   448
siesta: k-grid: Cutoff (effective) =    16.652 Ang
siesta: k-grid: Supercell and displacements
siesta: k-grid:    8  -8   0      0.500
siesta: k-grid:    7   0   0      0.500
siesta: k-grid:    8   0  -8      0.000
Naive supercell factors:     5    5    5

superc: Internal auxiliary supercell:     5 x     5 x     5  =     125
superc: Number of atoms, orbitals, and projectors:   1250   4250  10000

outcell: Unit cell vectors (Ang):
        4.784185   -0.140662   -0.091964
        3.085296    3.660018   -0.093871
        3.085375    1.378087    3.392496

outcell: Cell vector modules (Ang)   :    4.787136    4.787859    4.788287
outcell: Cell angles (23,13,12) (deg):     51.5858     51.5454     51.5437
outcell: Cell volume (Ang**3)        :     62.1827
New_DM. Step:     7
Initializing Density Matrix...
New grid distribution:   1
           1       1:   15    1:    8    1:    8
           2       1:   15    1:    8    9:   15
           3       1:   15    9:   15    1:    8
           4       1:   15    9:   15    9:   15

InitMesh: MESH =    30 x    30 x    30 =       27000
InitMesh: (bp) =    15 x    15 x    15 =        3375
InitMesh: Mesh cutoff (required, used) =   100.000   145.107 Ry
ExtMesh (bp) on 0 =    79 x    72 x    72 =      409536
New grid distribution:   2
           1       1:   15    1:    7    1:    7
           2       1:   15    1:    8    8:   15
           3       1:   15    8:   15    1:    7
           4       1:   15    9:   15    8:   15
New grid distribution:   3
           1       1:   15    1:    8    1:    8
           2       1:   15    1:    8    9:   15
           3       1:   15    9:   15    1:    8
           4       1:   15    9:   15    9:   15
Setting up quadratic distribution...
ExtMesh (bp) on 0 =    79 x    71 x    71 =      398239
PhiOnMesh: Number of (b)points on node 0 =                  735
PhiOnMesh: nlist on node 0 =                23385

siesta: Eharris(eV) =   -3657.661008


siesta: Eharris(eV) =   -3657.661008

:!: SCF did not converge in maximum number of steps.

Using DM_out to compute the final energy and forces

siesta: Atomic forces (eV/Ang):
     1   -0.000002    0.000001    0.000000
     2    0.000003   -0.000001   -0.000001
     3    0.128295    0.047068   -0.507768
     4   -0.128294   -0.047075    0.507778
     5  -16.621456   37.091897   -0.263262
     6    0.105292  -22.580391   34.327966
     7   16.459048  -14.571183  -33.739811
     8   16.621456  -37.091892    0.263263
     9   -0.105293   22.580393  -34.327971
    10  -16.459052   14.571178   33.739805
----------------------------------------
   Tot   -0.000002   -0.000003   -0.000001
----------------------------------------
   Max   37.091897
   Res   18.188487    sqrt( Sum f_i^2 / 3N )
----------------------------------------
   Max   37.091897    constrained

Stress-tensor-Voigt (kbar):     7707.82    10024.94    10358.80    -1257.23     -368.83     -840.55
(Free)E + p*V (eV/cell)    -3964.1925
Target enthalpy (eV/cell)    -3561.9613

siesta: Stress tensor (static) (eV/Ang**3):
         4.810790   -0.784690   -0.524623
        -0.784690    6.257007   -0.230206
        -0.524623   -0.230206    6.465387

siesta: Pressure (static):      -9363.85381355  kBar

siesta: Stress tensor (total) (eV/Ang**3):
         4.810790   -0.784690   -0.524623
        -0.784690    6.257007   -0.230206
        -0.524623   -0.230206    6.465387

siesta: Pressure (total):      -9363.85381355  kBar

                     ====================================
                        Begin Broyden opt. move =      7
                     ====================================

outcoor: Atomic coordinates (fractional):                   
   -0.00000000   -0.00000000   -0.00000000   1       1  Mg
    0.50000000    0.50000000    0.50000000   1       2  Mg
    0.25022331    0.25028970    0.24948952   2       3  C
   -0.25022331   -0.25028971   -0.24948951   2       4  C
    0.56306334   -0.06327955    0.24948853   3       5  O
    0.25017876    0.56265615   -0.06261031   3       6  O
   -0.06333638    0.25035758    0.56352342   3       7  O
   -0.56306334    0.06327955   -0.24948853   3       8  O
   -0.25017876   -0.56265615    0.06261031   3       9  O
    0.06333637   -0.25035759   -0.56352343   3      10  O
 Kpoints in:          224 . Kpoints trimmed:          224

siesta: k-grid: Number of k-points =   224
siesta: k-grid: Cutoff (effective) =    17.018 Ang
siesta: k-grid: Supercell and displacements
siesta: k-grid:   -8   0   8      0.500
siesta: k-grid:    0   7   0      0.000
siesta: k-grid:   -8   8   0      0.500
Naive supercell factors:     4    4    4
Auxiliary supercell needs to be larger than naive one...

superc: Internal auxiliary supercell:     5 x     5 x     4  =     100
superc: Number of atoms, orbitals, and projectors:   1000   3400   8000

outcell: Unit cell vectors (Ang):
        4.929755   -0.127920   -0.082229
        3.191859    3.756631   -0.085342
        3.192890    1.423703    3.478246

outcell: Cell vector modules (Ang)   :    4.932100    4.930266    4.931498
outcell: Cell angles (23,13,12) (deg):     51.1766     51.1051     51.1253
outcell: Cell volume (Ang**3)        :     67.0812
New_DM. Step:     8
DM reset as supercell changed.
Initializing Density Matrix...
New grid distribution:   1
           1       1:   15    1:    8    1:    8
           2       1:   15    1:    8    9:   15
           3       1:   15    9:   15    1:    8
           4       1:   15    9:   15    9:   15

InitMesh: MESH =    30 x    30 x    30 =       27000
InitMesh: (bp) =    15 x    15 x    15 =        3375
InitMesh: Mesh cutoff (required, used) =   100.000   136.084 Ry
ExtMesh (bp) on 0 =    75 x    68 x    68 =      346800
New grid distribution:   2
           1       1:   15    1:    7    1:    8
           2       1:   15    1:    8    9:   15
           3       1:   15    8:   15    1:    8
           4       1:   15    9:   15    9:   15
New grid distribution:   3
           1       1:   15    1:    8    1:    8
           2       1:   15    1:    8    9:   15
           3       1:   15    9:   15    1:    8
           4       1:   15    9:   15    9:   15
Setting up quadratic distribution...
ExtMesh (bp) on 0 =    75 x    67 x    68 =      341700
PhiOnMesh: Number of (b)points on node 0 =                  840
PhiOnMesh: nlist on node 0 =                24922

siesta: Eharris(eV) =   -2967.146327


siesta: Eharris(eV) =   -2967.146327

:!: SCF did not converge in maximum number of steps.

Using DM_out to compute the final energy and forces

siesta: Atomic forces (eV/Ang):
     1    0.000001   -0.000000   -0.000000
     2   -0.000001    0.000000   -0.000000
     3   -0.037886   -0.038732    0.190174
     4    0.037885    0.038734   -0.190177
     5    0.180218   -0.384347    0.016898
     6   -0.004623    0.302910   -0.465555
     7   -0.137372    0.112424    0.262206
     8   -0.180218    0.384346   -0.016898
     9    0.004623   -0.302911    0.465557
    10    0.137372   -0.112426   -0.262205
----------------------------------------
   Tot   -0.000001   -0.000001   -0.000001
----------------------------------------
   Max    0.465557
   Res    0.204674    sqrt( Sum f_i^2 / 3N )
----------------------------------------
   Max    0.465557    constrained

Stress-tensor-Voigt (kbar):      324.59      323.68      326.33       -1.25        3.82       -2.24
(Free)E + p*V (eV/cell)    -2961.1299
Target enthalpy (eV/cell)    -2905.6600

siesta: Stress tensor (static) (eV/Ang**3):
         0.202589   -0.000780   -0.001398
        -0.000780    0.202025    0.002383
        -0.001398    0.002383    0.203674

siesta: Pressure (static):       -324.86513736  kBar

siesta: Stress tensor (total) (eV/Ang**3):
         0.202589   -0.000780   -0.001398
        -0.000780    0.202025    0.002383
        -0.001398    0.002383    0.203674

siesta: Pressure (total):       -324.86513736  kBar
Cycling the Broyden process...

                     ====================================
                        Begin Broyden opt. move =      8
                     ====================================

outcoor: Atomic coordinates (fractional):                   
   -0.00000000    0.00000000   -0.00000000   1       1  Mg
    0.50000000    0.50000000    0.50000000   1       2  Mg
    0.25015745    0.25032932    0.24951359   2       3  C
   -0.25015744   -0.25032933   -0.24951358   2       4  C
    0.57139883   -0.07155360    0.24947379   3       5  O
    0.25015851    0.57099164   -0.07099112   3       6  O
   -0.07160463    0.25036551    0.57175785   3       7  O
   -0.57139883    0.07155361   -0.24947379   3       8  O
   -0.25015851   -0.57099164    0.07099112   3       9  O
    0.07160462   -0.25036552   -0.57175786   3      10  O
 Kpoints in:          196 . Kpoints trimmed:          172

siesta: k-grid: Number of k-points =   172
siesta: k-grid: Cutoff (effective) =    15.169 Ang
siesta: k-grid: Supercell and displacements
siesta: k-grid:   -7   7   0      0.000
siesta: k-grid:    0   7   0      0.000
siesta: k-grid:   -7   0   7      0.000
Naive supercell factors:     4    4    4
Auxiliary supercell needs to be larger than naive one...

superc: Internal auxiliary supercell:     5 x     5 x     4  =     100
superc: Number of atoms, orbitals, and projectors:   1000   3400   8000

outcell: Unit cell vectors (Ang):
        4.932330   -0.170328   -0.110445
        3.161971    3.785726   -0.112746
        3.162691    1.410504    3.516688

outcell: Cell vector modules (Ang)   :    4.936505    4.933811    4.935507
outcell: Cell angles (23,13,12) (deg):     52.1440     52.0873     52.0937
outcell: Cell volume (Ang**3)        :     69.2341
New_DM. Step:     9
Initializing Density Matrix...
New grid distribution:   1
           1       1:   15    1:    8    1:    8
           2       1:   15    1:    8    9:   15
           3       1:   15    9:   15    1:    8
           4       1:   15    9:   15    9:   15

InitMesh: MESH =    30 x    30 x    30 =       27000
InitMesh: (bp) =    15 x    15 x    15 =        3375
InitMesh: Mesh cutoff (required, used) =   100.000   137.487 Ry
ExtMesh (bp) on 0 =    75 x    68 x    68 =      346800
New grid distribution:   2
           1       1:   15    1:    7    1:    7
           2       1:   15    1:    8    8:   15
           3       1:   15    8:   15    1:    7
           4       1:   15    9:   15    8:   15
New grid distribution:   3
           1       1:   15    1:    8    1:    8
           2       1:   15    1:    8    9:   15
           3       1:   15    9:   15    1:    8
           4       1:   15    9:   15    9:   15
Setting up quadratic distribution...
ExtMesh (bp) on 0 =    75 x    67 x    67 =      336675
PhiOnMesh: Number of (b)points on node 0 =                  735
PhiOnMesh: nlist on node 0 =                21278

siesta: Eharris(eV) =   -2967.459714


siesta: Eharris(eV) =   -2967.459714

:!: SCF did not converge in maximum number of steps.

Using DM_out to compute the final energy and forces

siesta: Atomic forces (eV/Ang):
     1   -0.000000   -0.000000   -0.000001
     2   -0.000000    0.000001    0.000000
     3   -0.024167   -0.036361    0.138671
     4    0.024166    0.036362   -0.138673
     5   -1.024088    2.360290   -0.006001
     6   -0.005294   -1.358289    2.060475
     7    1.057723   -0.960162   -2.214185
     8    1.024088   -2.360290    0.006002
     9    0.005294    1.358288   -2.060474
    10   -1.057722    0.960162    2.214186
----------------------------------------
   Tot   -0.000000   -0.000000   -0.000000
----------------------------------------
   Max    2.360290
   Res    1.145272    sqrt( Sum f_i^2 / 3N )
----------------------------------------
   Max    2.360290    constrained

Stress-tensor-Voigt (kbar):      425.13      626.36      657.08     -115.27      -29.32      -76.32
(Free)E + p*V (eV/cell)    -2971.4090
Target enthalpy (eV/cell)    -2903.5868

siesta: Stress tensor (static) (eV/Ang**3):
         0.265341   -0.071945   -0.047633
        -0.071945    0.390937   -0.018301
        -0.047633   -0.018301    0.410111

siesta: Pressure (static):       -569.52105959  kBar

siesta: Stress tensor (total) (eV/Ang**3):
         0.265341   -0.071945   -0.047633
        -0.071945    0.390937   -0.018301
        -0.047633   -0.018301    0.410111

siesta: Pressure (total):       -569.52105959  kBar
Cycling the Broyden process...

                     ====================================
                        Begin Broyden opt. move =      9
                     ====================================

outcoor: Atomic coordinates (fractional):                   
   -0.00000000    0.00000000   -0.00000000   1       1  Mg
    0.50000000    0.50000000    0.50000000   1       2  Mg
    0.25013971    0.25034096    0.24951811   2       3  C
   -0.25013971   -0.25034097   -0.24951810   2       4  C
    0.57876552   -0.07880402    0.24947596   3       5  O
    0.25014389    0.57830567   -0.07835189   3       6  O
   -0.07893493    0.25036242    0.57902462   3       7  O
   -0.57876552    0.07880402   -0.24947596   3       8  O
   -0.25014389   -0.57830567    0.07835189   3       9  O
    0.07893493   -0.25036243   -0.57902463   3      10  O
 Kpoints in:          224 . Kpoints trimmed:          224

siesta: k-grid: Number of k-points =   224
siesta: k-grid: Cutoff (effective) =    16.660 Ang
siesta: k-grid: Supercell and displacements
siesta: k-grid:   -8   8   0      0.500
siesta: k-grid:    0   7   0      0.000
siesta: k-grid:   -8   0   8      0.500
Naive supercell factors:     5    5    5

superc: Internal auxiliary supercell:     5 x     5 x     5  =     125
superc: Number of atoms, orbitals, and projectors:   1250   4250  10000

outcell: Unit cell vectors (Ang):
        4.757005   -0.199400   -0.129722
        3.023398    3.674028   -0.131615
        3.023951    1.348677    3.422191

outcell: Cell vector modules (Ang)   :    4.762949    4.759910    4.761785
outcell: Cell angles (23,13,12) (deg):     52.9787     52.9277     52.9274
outcell: Cell volume (Ang**3)        :     63.7101
New_DM. Step:    10
DM reset as supercell changed.
Initializing Density Matrix...
New grid distribution:   1
           1       1:   15    1:    8    1:    8
           2       1:   15    1:    8    9:   15
           3       1:   15    9:   15    1:    8
           4       1:   15    9:   15    9:   15

InitMesh: MESH =    30 x    30 x    30 =       27000
InitMesh: (bp) =    15 x    15 x    15 =        3375
InitMesh: Mesh cutoff (required, used) =   100.000   149.254 Ry
ExtMesh (bp) on 0 =    75 x    68 x    68 =      346800
New grid distribution:   2
           1       1:   15    1:    7    1:    8
           2       1:   15    1:    8    9:   15
           3       1:   15    8:   15    1:    8
           4       1:   15    9:   15    9:   15
New grid distribution:   3
           1       1:   15    1:    8    1:    8
           2       1:   15    1:    8    9:   15
           3       1:   15    9:   15    1:    8
           4       1:   15    9:   15    9:   15
Setting up quadratic distribution...
ExtMesh (bp) on 0 =    75 x    67 x    68 =      341700
PhiOnMesh: Number of (b)points on node 0 =                  840
PhiOnMesh: nlist on node 0 =                26090

siesta: Eharris(eV) =   -2965.202768


siesta: Eharris(eV) =   -2965.202768

:!: SCF did not converge in maximum number of steps.

Using DM_out to compute the final energy and forces

siesta: Atomic forces (eV/Ang):
     1    0.000000    0.000000   -0.000000
     2   -0.000000    0.000000   -0.000000
     3   -0.023392   -0.036593    0.135395
     4    0.023392    0.036595   -0.135397
     5   -1.508918    3.472095    0.012491
     6   -0.008011   -2.021048    3.078639
     7    1.536352   -1.416481   -3.219174
     8    1.508918   -3.472096   -0.012489
     9    0.008012    2.021047   -3.078638
    10   -1.536352    1.416480    3.219175
----------------------------------------
   Tot    0.000001   -0.000001    0.000002
----------------------------------------
   Max    3.472096
   Res    1.686125    sqrt( Sum f_i^2 / 3N )
----------------------------------------
   Max    3.472096    constrained

Stress-tensor-Voigt (kbar):      198.30      452.92      490.80     -144.16      -37.63      -95.29
(Free)E + p*V (eV/cell)    -2958.0566
Target enthalpy (eV/cell)    -2903.1551

siesta: Stress tensor (static) (eV/Ang**3):
         0.123768   -0.089979   -0.059474
        -0.089979    0.282690   -0.023489
        -0.059474   -0.023489    0.306331

siesta: Pressure (static):       -380.67594030  kBar

siesta: Stress tensor (total) (eV/Ang**3):
         0.123768   -0.089979   -0.059474
        -0.089979    0.282690   -0.023489
        -0.059474   -0.023489    0.306331

siesta: Pressure (total):       -380.67594030  kBar
Cycling the Broyden process...

                     ====================================
                        Begin Broyden opt. move =     10
                     ====================================

outcoor: Atomic coordinates (fractional):                   
   -0.00000000    0.00000000   -0.00000000   1       1  Mg
    0.50000000    0.50000000    0.50000000   1       2  Mg
    0.25012883    0.25037258    0.24949192   2       3  C
   -0.25012883   -0.25037258   -0.24949191   2       4  C
    0.57779781   -0.07765679    0.24955218   3       5  O
    0.25012665    0.57724063   -0.07731350   3       6  O
   -0.07798381    0.25026944    0.57790905   3       7  O
   -0.57779781    0.07765679   -0.24955217   3       8  O
   -0.25012665   -0.57724064    0.07731350   3       9  O
    0.07798381   -0.25026945   -0.57790906   3      10  O
 Kpoints in:          224 . Kpoints trimmed:          224

siesta: k-grid: Number of k-points =   224
siesta: k-grid: Cutoff (effective) =    16.552 Ang
siesta: k-grid: Supercell and displacements
siesta: k-grid:   -8   8   0      0.500
siesta: k-grid:    0   7   0      0.000
siesta: k-grid:   -8   0   8      0.500
Naive supercell factors:     5    5    5

superc: Internal auxiliary supercell:     5 x     5 x     5  =     125
superc: Number of atoms, orbitals, and projectors:   1250   4250  10000

outcell: Unit cell vectors (Ang):
        4.727239   -0.193957   -0.126363
        3.007607    3.647364   -0.127998
        3.008019    1.341450    3.396761

outcell: Cell vector modules (Ang)   :    4.732903    4.729202    4.731348
outcell: Cell angles (23,13,12) (deg):     52.8748     52.8275     52.8200
outcell: Cell volume (Ang**3)        :     62.3112
New_DM. Step:    11
Initializing Density Matrix...
New grid distribution:   1
           1       1:   15    1:    8    1:    8
           2       1:   15    1:    8    9:   15
           3       1:   15    9:   15    1:    8
           4       1:   15    9:   15    9:   15

InitMesh: MESH =    30 x    30 x    30 =       27000
InitMesh: (bp) =    15 x    15 x    15 =        3375
InitMesh: Mesh cutoff (required, used) =   100.000   150.980 Ry
ExtMesh (bp) on 0 =    79 x    72 x    72 =      409536
New grid distribution:   2
           1       1:   15    1:    7    1:    7
           2       1:   15    1:    8    8:   15
           3       1:   15    8:   15    1:    7
           4       1:   15    9:   15    8:   15
New grid distribution:   3
           1       1:   15    1:    8    1:    8
           2       1:   15    1:    8    9:   15
           3       1:   15    9:   15    1:    8
           4       1:   15    9:   15    9:   15
Setting up quadratic distribution...
ExtMesh (bp) on 0 =    79 x    71 x    71 =      398239
PhiOnMesh: Number of (b)points on node 0 =                  735
PhiOnMesh: nlist on node 0 =                23420

siesta: Eharris(eV) =   -2964.695704


siesta: Eharris(eV) =   -2964.695704

:!: SCF did not converge in maximum number of steps.

Using DM_out to compute the final energy and forces

siesta: Atomic forces (eV/Ang):
     1   -0.000000   -0.000000   -0.000000
     2    0.000000    0.000000    0.000000
     3   -0.027654   -0.039492    0.152224
     4    0.027654    0.039493   -0.152225
     5   -1.370507    3.128016    0.016513
     6   -0.006433   -1.800331    2.768553
     7    1.414218   -1.294598   -2.941228
     8    1.370508   -3.128017   -0.016511
     9    0.006432    1.800331   -2.768553
    10   -1.414218    1.294597    2.941228
----------------------------------------
   Tot    0.000000   -0.000000    0.000001
----------------------------------------
   Max    3.128017
   Res    1.525811    sqrt( Sum f_i^2 / 3N )
----------------------------------------
   Max    3.128017    constrained

Stress-tensor-Voigt (kbar):      112.57      329.89      365.47     -125.96      -32.02      -84.24
(Free)E + p*V (eV/cell)    -2952.9346
Target enthalpy (eV/cell)    -2903.5697

siesta: Stress tensor (static) (eV/Ang**3):
         0.070258   -0.078617   -0.052576
        -0.078617    0.205898   -0.019986
        -0.052576   -0.019986    0.228109

siesta: Pressure (static):       -269.31032127  kBar

siesta: Stress tensor (total) (eV/Ang**3):
         0.070258   -0.078617   -0.052576
        -0.078617    0.205898   -0.019986
        -0.052576   -0.019986    0.228109

siesta: Pressure (total):       -269.31032127  kBar
Cycling the Broyden process...

                     ====================================
                        Begin Broyden opt. move =     11
                     ====================================

outcoor: Atomic coordinates (fractional):                   
   -0.00000000    0.00000000   -0.00000000   1       1  Mg
    0.50000000    0.50000000    0.50000000   1       2  Mg
    0.25010672    0.25042671    0.24944768   2       3  C
   -0.25010672   -0.25042672   -0.24944767   2       4  C
    0.57833988   -0.07804008    0.24957533   3       5  O
    0.25011146    0.57771499   -0.07776947   3       6  O
   -0.07847514    0.25022506    0.57828035   3       7  O
   -0.57833988    0.07804009   -0.24957532   3       8  O
   -0.25011146   -0.57771499    0.07776947   3       9  O
    0.07847514   -0.25022507   -0.57828036   3      10  O
 Kpoints in:          224 . Kpoints trimmed:          224

siesta: k-grid: Number of k-points =   224
siesta: k-grid: Cutoff (effective) =    16.551 Ang
siesta: k-grid: Supercell and displacements
siesta: k-grid:   -8   8   0      0.500
siesta: k-grid:    0   7   0      0.000
siesta: k-grid:   -8   0   8      0.500
Naive supercell factors:     5    5    5

superc: Internal auxiliary supercell:     5 x     5 x     5  =     125
superc: Number of atoms, orbitals, and projectors:   1250   4250  10000

outcell: Unit cell vectors (Ang):
        4.727308   -0.197081   -0.128562
        3.005325    3.648775   -0.129770
        3.005632    1.340484    3.399420

outcell: Cell vector modules (Ang)   :    4.733161    4.728888    4.731467
outcell: Cell angles (23,13,12) (deg):     52.9438     52.9044     52.8893
outcell: Cell volume (Ang**3)        :     62.4408
New_DM. Step:    12
Initializing Density Matrix...
New grid distribution:   1
           1       1:   15    1:    8    1:    8
           2       1:   15    1:    8    9:   15
           3       1:   15    9:   15    1:    8
           4       1:   15    9:   15    9:   15

InitMesh: MESH =    30 x    30 x    30 =       27000
InitMesh: (bp) =    15 x    15 x    15 =        3375
InitMesh: Mesh cutoff (required, used) =   100.000   151.116 Ry
ExtMesh (bp) on 0 =    79 x    72 x    72 =      409536
New grid distribution:   2
           1       1:   15    1:    7    1:    7
           2       1:   15    1:    8    8:   15
           3       1:   15    8:   15    1:    7
           4       1:   15    9:   15    8:   15
New grid distribution:   3
           1       1:   15    1:    8    1:    8
           2       1:   15    1:    8    9:   15
           3       1:   15    9:   15    1:    8
           4       1:   15    9:   15    9:   15
Setting up quadratic distribution...
ExtMesh (bp) on 0 =    79 x    71 x    71 =      398239
PhiOnMesh: Number of (b)points on node 0 =                  735
PhiOnMesh: nlist on node 0 =                23346

siesta: Eharris(eV) =   -2964.708635


siesta: Eharris(eV) =   -2964.708635

:!: SCF did not converge in maximum number of steps.

Using DM_out to compute the final energy and forces

siesta: Atomic forces (eV/Ang):
     1   -0.000000   -0.000000   -0.000000
     2   -0.000000    0.000000    0.000000
     3   -0.026832   -0.046048    0.163268
     4    0.026832    0.046049   -0.163270
     5   -1.440917    3.273338    0.020055
     6   -0.011208   -1.892089    2.888990
     7    1.483116   -1.342714   -3.049558
     8    1.440918   -3.273339   -0.020055
     9    0.011207    1.892090   -2.888990
    10   -1.483116    1.342713    3.049560
----------------------------------------
   Tot   -0.000000    0.000000    0.000001
----------------------------------------
   Max    3.273339
   Res    1.592683    sqrt( Sum f_i^2 / 3N )
----------------------------------------
   Max    3.273339    constrained

Stress-tensor-Voigt (kbar):      118.23      347.58      383.56     -132.22      -33.75      -87.25
(Free)E + p*V (eV/cell)    -2953.4340
Target enthalpy (eV/cell)    -2903.4280

siesta: Stress tensor (static) (eV/Ang**3):
         0.073792   -0.082527   -0.054459
        -0.082527    0.216939   -0.021063
        -0.054459   -0.021063    0.239399

siesta: Pressure (static):       -283.12349518  kBar

siesta: Stress tensor (total) (eV/Ang**3):
         0.073792   -0.082527   -0.054459
        -0.082527    0.216939   -0.021063
        -0.054459   -0.021063    0.239399

siesta: Pressure (total):       -283.12349518  kBar
Cycling the Broyden process...

                     ====================================
                        Begin Broyden opt. move =     12
                     ====================================

outcoor: Atomic coordinates (fractional):                   
   -0.00000000    0.00000000   -0.00000000   1       1  Mg
    0.50000000    0.50000000    0.50000000   1       2  Mg
    0.25005465    0.25054249    0.24936739   2       3  C
   -0.25005464   -0.25054250   -0.24936738   2       4  C
    0.58634924   -0.08557532    0.24962453   3       5  O
    0.25003702    0.58547480   -0.08565198   3       6  O
   -0.08633299    0.25017626    0.58590596   3       7  O
   -0.58634924    0.08557532   -0.24962450   3       8  O
   -0.25003702   -0.58547479    0.08565198   3       9  O
    0.08633300   -0.25017628   -0.58590596   3      10  O
 Kpoints in:          224 . Kpoints trimmed:          224

siesta: k-grid: Number of k-points =   224
siesta: k-grid: Cutoff (effective) =    16.351 Ang
siesta: k-grid: Supercell and displacements
siesta: k-grid:   -8   8   0      0.500
siesta: k-grid:    0   7   0      0.500
siesta: k-grid:    0   8  -8      0.000
Naive supercell factors:     5    5    5

superc: Internal auxiliary supercell:     5 x     5 x     5  =     125
superc: Number of atoms, orbitals, and projectors:   1250   4250  10000

outcell: Unit cell vectors (Ang):
        4.669809   -0.234091   -0.153730
        2.939403    3.627969   -0.153179
        2.939067    1.311282    3.391585

outcell: Cell vector modules (Ang)   :    4.678199    4.671800    4.675514
outcell: Cell angles (23,13,12) (deg):     53.8772     53.8706     53.8238
outcell: Cell volume (Ang**3)        :     61.8837
New_DM. Step:    13
Initializing Density Matrix...
New grid distribution:   1
           1       1:   12    1:    6    1:    6
           2       1:   12    1:    6    7:   12
           3       1:   12    7:   12    1:    6
           4       1:   12    7:   12    7:   12

InitMesh: MESH =    24 x    24 x    24 =       13824
InitMesh: (bp) =    12 x    12 x    12 =        1728
InitMesh: Mesh cutoff (required, used) =   100.000   100.248 Ry
ExtMesh (bp) on 0 =    60 x    58 x    54 =      187920
New grid distribution:   2
           1       1:   12    1:    6    1:    6
           2       1:   12    1:    6    7:   12
           3       1:   12    7:   12    1:    6
           4       1:   12    7:   12    7:   12
New grid distribution:   3
           1       1:   12    1:    6    1:    6
           2       1:   12    1:    6    7:   12
           3       1:   12    7:   12    1:    6
           4       1:   12    7:   12    7:   12
Setting up quadratic distribution...
ExtMesh (bp) on 0 =    60 x    58 x    54 =      187920
PhiOnMesh: Number of (b)points on node 0 =                  432
PhiOnMesh: nlist on node 0 =                14130

siesta: Eharris(eV) =   -2963.628388


siesta: Eharris(eV) =   -2963.628388

:!: SCF did not converge in maximum number of steps.

Using DM_out to compute the final energy and forces

siesta: Atomic forces (eV/Ang):
     1    0.000001   -0.000000    0.000000
     2    0.000000    0.000000    0.000000
     3   -0.018722   -0.046715    0.139799
     4    0.018723    0.046717   -0.139800
     5   -2.285302    4.798558    0.067208
     6    0.004596   -2.842456    4.355896
     7    2.295510   -1.975302   -4.465951
     8    2.285298   -4.798562   -0.067210
     9   -0.004596    2.842456   -4.355897
    10   -2.295508    1.975303    4.465952
----------------------------------------
   Tot   -0.000001   -0.000001   -0.000002
----------------------------------------
   Max    4.798562
   Res    2.372687    sqrt( Sum f_i^2 / 3N )
----------------------------------------
   Max    4.798562    constrained

Stress-tensor-Voigt (kbar):       77.42      445.89      509.03     -212.51      -57.68     -141.80
(Free)E + p*V (eV/cell)    -2952.9966
Target enthalpy (eV/cell)    -2901.0811

siesta: Stress tensor (static) (eV/Ang**3):
         0.048320   -0.132639   -0.088501
        -0.132639    0.278299   -0.035998
        -0.088501   -0.035998    0.317710

siesta: Pressure (static):       -344.11327189  kBar

siesta: Stress tensor (total) (eV/Ang**3):
         0.048320   -0.132639   -0.088501
        -0.132639    0.278299   -0.035998
        -0.088501   -0.035998    0.317710

siesta: Pressure (total):       -344.11327189  kBar
Cycling the Broyden process...

                     ====================================
                        Begin Broyden opt. move =     13
                     ====================================

outcoor: Atomic coordinates (fractional):                   
   -0.00000000    0.00000000   -0.00000000   1       1  Mg
    0.50000000    0.50000000    0.50000000   1       2  Mg
    0.25009658    0.25045236    0.24943537   2       3  C
   -0.25009658   -0.25045237   -0.24943537   2       4  C
    0.58787134   -0.08763738    0.24954413   3       5  O
    0.25007025    0.58729971   -0.08746339   3       6  O
   -0.08794973    0.25029222    0.58788455   3       7  O
   -0.58787135    0.08763738   -0.24954412   3       8  O
   -0.25007025   -0.58729971    0.08746339   3       9  O
    0.08794973   -0.25029224   -0.58788455   3      10  O
 Kpoints in:          224 . Kpoints trimmed:          224

siesta: k-grid: Number of k-points =   224
siesta: k-grid: Cutoff (effective) =    16.334 Ang
siesta: k-grid: Supercell and displacements
siesta: k-grid:   -8   8   0      0.500
siesta: k-grid:    0   7   0      0.500
siesta: k-grid:    0   8  -8      0.000
Naive supercell factors:     5    5    5

superc: Internal auxiliary supercell:     5 x     5 x     5  =     125
superc: Number of atoms, orbitals, and projectors:   1250   4250  10000

outcell: Unit cell vectors (Ang):
        4.663074   -0.242382   -0.158864
        2.928733    3.629844   -0.158275
        2.928598    1.307182    3.394098

outcell: Cell vector modules (Ang)   :    4.672070    4.666722    4.669616
outcell: Cell angles (23,13,12) (deg):     54.0784     54.0758     54.0435
outcell: Cell volume (Ang**3)        :     62.0164
New_DM. Step:    14
Initializing Density Matrix...
New grid distribution:   1
           1       1:   12    1:    6    1:    6
           2       1:   12    1:    6    7:   12
           3       1:   12    7:   12    1:    6
           4       1:   12    7:   12    7:   12

InitMesh: MESH =    24 x    24 x    24 =       13824
InitMesh: (bp) =    12 x    12 x    12 =        1728
InitMesh: Mesh cutoff (required, used) =   100.000   100.765 Ry
ExtMesh (bp) on 0 =    60 x    54 x    54 =      174960
[...]
Naive supercell factors:     5    5    5

superc: Internal auxiliary supercell:     5 x     5 x     5  =     125
superc: Number of atoms, orbitals, and projectors:   1250   4250  10000

outcell: Unit cell vectors (Ang):
        4.501559   -0.381459   -0.252988
        2.717390    3.638382   -0.253846
        2.715150    1.224890    3.428802

outcell: Cell vector modules (Ang)   :    4.524770    4.548238    4.541924
outcell: Cell angles (23,13,12) (deg):     57.9430     58.0090     57.9894
outcell: Cell volume (Ang**3)        :     63.0322
New_DM. Step:    28
Initializing Density Matrix...
New grid distribution:   1
           1       1:   12    1:    6    1:    6
           2       1:   12    1:    6    7:   12
           3       1:   12    7:   12    1:    6
           4       1:   12    7:   12    7:   12

InitMesh: MESH =    24 x    24 x    24 =       13824
InitMesh: (bp) =    12 x    12 x    12 =        1728
InitMesh: Mesh cutoff (required, used) =   100.000   112.543 Ry
ExtMesh (bp) on 0 =    60 x    54 x    54 =      174960
New grid distribution:   2
           1       1:   12    1:    6    1:    6
           2       1:   12    1:    6    7:   12
           3       1:   12    7:   12    1:    6
           4       1:   12    7:   12    7:   12
New grid distribution:   3
           1       1:   12    1:    6    1:    6
           2       1:   12    1:    6    7:   12
           3       1:   12    7:   12    1:    6
           4       1:   12    7:   12    7:   12
Setting up quadratic distribution...
ExtMesh (bp) on 0 =    60 x    54 x    54 =      174960
PhiOnMesh: Number of (b)points on node 0 =                  432
PhiOnMesh: nlist on node 0 =                13799

siesta: Eharris(eV) =   -2953.498864


siesta: Eharris(eV) =   -2953.498864

:!: SCF did not converge in maximum number of steps.

Using DM_out to compute the final energy and forces

siesta: Atomic forces (eV/Ang):
     1    0.000387    0.000150    0.000138
     2    0.000470    0.000178    0.000133
     3    0.012620   -0.001118   -0.039738
     4   -0.012640    0.001109    0.039731
     5   -3.708128    8.225753   -0.104151
     6    0.013367   -4.969500    7.482019
     7    3.663624   -3.275202   -7.504821
     8    3.707737   -8.225950    0.104522
     9   -0.013442    4.969029   -7.482329
    10   -3.664131    3.275481    7.504460
----------------------------------------
   Tot   -0.000136   -0.000068   -0.000037
----------------------------------------
   Max    8.225950
   Res    4.021395    sqrt( Sum f_i^2 / 3N )
----------------------------------------
   Max    8.225950    constrained

Stress-tensor-Voigt (kbar):      243.44      839.69      918.28     -324.32      -90.32     -210.50
(Free)E + p*V (eV/cell)    -2947.4847
Target enthalpy (eV/cell)    -2881.8976

siesta: Stress tensor (static) (eV/Ang**3):
         0.151944   -0.202420   -0.131380
        -0.202420    0.524088   -0.056373
        -0.131379   -0.056373    0.573138

siesta: Pressure (static):       -667.13777995  kBar

siesta: Stress tensor (total) (eV/Ang**3):
         0.151944   -0.202420   -0.131380
        -0.202420    0.524088   -0.056373
        -0.131379   -0.056373    0.573138

siesta: Pressure (total):       -667.13777995  kBar
Cycling the Broyden process...

                     ====================================
                        Begin Broyden opt. move =     28
                     ====================================

outcoor: Atomic coordinates (fractional):                   
   -0.00000033   -0.00000036   -0.00000034   1       1  Mg
    0.49999953    0.49999948    0.49999953   1       2  Mg
    0.24981362    0.25000415    0.25146284   2       3  C
   -0.24981357   -0.25000398   -0.25146284   2       4  C
    0.62684654   -0.12730606    0.25110710   3       5  O
    0.24983953    0.62803199   -0.12788582   3       6  O
   -0.12587905    0.24975640    0.62607714   3       7  O
   -0.62684588    0.12730634   -0.25110715   3       8  O
   -0.24983952   -0.62803146    0.12788622   3       9  O
    0.12587949   -0.24975621   -0.62607633   3      10  O
 Kpoints in:          196 . Kpoints trimmed:          172

siesta: k-grid: Number of k-points =   172
siesta: k-grid: Cutoff (effective) =    15.476 Ang
siesta: k-grid: Supercell and displacements
siesta: k-grid:    7  -7   0      0.000
siesta: k-grid:    7   0   0      0.000
siesta: k-grid:    7   0  -7      0.000
Naive supercell factors:     5    5    5

superc: Internal auxiliary supercell:     5 x     5 x     5  =     125
superc: Number of atoms, orbitals, and projectors:   1250   4250  10000

outcell: Unit cell vectors (Ang):
        4.553700   -0.374905   -0.249751
        2.757042    3.665478   -0.247408
        2.754082    1.242275    3.453148

outcell: Cell vector modules (Ang)   :    4.575927    4.593279    4.588295
outcell: Cell angles (23,13,12) (deg):     57.6013     57.7194     57.6644
outcell: Cell volume (Ang**3)        :     64.5283
New_DM. Step:    29
Initializing Density Matrix...
New grid distribution:   1
           1       1:   12    1:    6    1:    6
           2       1:   12    1:    6    7:   12
           3       1:   12    7:   12    1:    6
           4       1:   12    7:   12    7:   12

InitMesh: MESH =    24 x    24 x    24 =       13824
InitMesh: (bp) =    12 x    12 x    12 =        1728
InitMesh: Mesh cutoff (required, used) =   100.000   109.719 Ry
ExtMesh (bp) on 0 =    60 x    54 x    54 =      174960
New grid distribution:   2
           1       1:   12    1:    6    1:    6
           2       1:   12    1:    6    7:   12
           3       1:   12    7:   12    1:    6
           4       1:   12    7:   12    7:   12
New grid distribution:   3
           1       1:   12    1:    6    1:    6
           2       1:   12    1:    6    7:   12
           3       1:   12    7:   12    1:    6
           4       1:   12    7:   12    7:   12
Setting up quadratic distribution...
ExtMesh (bp) on 0 =    60 x    54 x    54 =      174960
PhiOnMesh: Number of (b)points on node 0 =                  432
PhiOnMesh: nlist on node 0 =                13536

siesta: Eharris(eV) =   -2955.184170


siesta: Eharris(eV) =   -2955.184170

:!: SCF did not converge in maximum number of steps.

Using DM_out to compute the final energy and forces

siesta: Atomic forces (eV/Ang):
     1   -0.125253   -0.655791    0.080297
     2    0.047558    0.888041    0.136754
     3    0.380437    0.639329   -4.073984
     4    2.304083   -6.143919   -1.491969
     5   -3.364864    7.087698    3.262322
     6  -22.065920   24.902358  -24.077412
     7   16.057887   52.160146  -39.123524
     8  -18.217494   -8.173492   17.031302
     9    0.170399    9.408029  -17.498987
    10   -2.064770    5.939412   52.724172
----------------------------------------
   Tot  -26.877936   86.051811  -13.031029
----------------------------------------
   Max   52.724172
   Res   18.470443    sqrt( Sum f_i^2 / 3N )
----------------------------------------
   Max   52.724172    constrained

Stress-tensor-Voigt (kbar):      743.56     2199.25     1804.74     -283.71     -571.25     -295.89
(Free)E + p*V (eV/cell)    -2987.5253
Target enthalpy (eV/cell)    -2883.5145

siesta: Stress tensor (static) (eV/Ang**3):
         0.464090   -0.210085   -0.178807
        -0.177075    1.372647   -0.322336
        -0.184676   -0.356540    1.126421

siesta: Pressure (static):      -1582.51727010  kBar

siesta: Stress tensor (total) (eV/Ang**3):
         0.464090   -0.210085   -0.178807
        -0.177075    1.372647   -0.322336
        -0.184676   -0.356540    1.126421

siesta: Pressure (total):      -1582.51727010  kBar
Cycling the Broyden process...

                     ====================================
                        Begin Broyden opt. move =     29
                     ====================================

outcoor: Atomic coordinates (fractional):                   
    0.00000013    0.00000185    0.00000056   1       1  Mg
    0.49999997    0.49999733    0.49999858   1       2  Mg
    0.24978412    0.24984119    0.25175657   2       3  C
   -0.24979559   -0.24983263   -0.25174289   2       4  C
    0.63000975   -0.13097102    0.25096260   3       5  O
    0.24995819    0.63147672   -0.13121913   3       6  O
   -0.12922253    0.24965396    0.62958553   3       7  O
   -0.62993369    0.13102126   -0.25096949   3       8  O
   -0.24988315   -0.63153195    0.13133763   3       9  O
    0.12919426   -0.24983601   -0.62970081   3      10  O
 Kpoints in:          196 . Kpoints trimmed:          172

siesta: k-grid: Number of k-points =   172
siesta: k-grid: Cutoff (effective) =    15.461 Ang
siesta: k-grid: Supercell and displacements
siesta: k-grid:    7   0  -7      0.000
siesta: k-grid:    7   0   0      0.000
siesta: k-grid:    7  -7   0      0.000
Naive supercell factors:     5    5    5

superc: Internal auxiliary supercell:     5 x     5 x     5  =     125
superc: Number of atoms, orbitals, and projectors:   1250   4250  10000

outcell: Unit cell vectors (Ang):
        4.517112   -0.386308   -0.257069
        2.724147    3.651034   -0.256357
        2.721287    1.228205    3.441816

outcell: Cell vector modules (Ang)   :    4.540883    4.562537    4.556313
outcell: Cell angles (23,13,12) (deg):     58.0035     58.1004     58.0590
outcell: Cell volume (Ang**3)        :     63.7707
New_DM. Step:    30
Initializing Density Matrix...
New grid distribution:   1
           1       1:   12    1:    6    1:    6
           2       1:   12    1:    6    7:   12
           3       1:   12    7:   12    1:    6
           4       1:   12    7:   12    7:   12

InitMesh: MESH =    24 x    24 x    24 =       13824
InitMesh: (bp) =    12 x    12 x    12 =        1728
InitMesh: Mesh cutoff (required, used) =   100.000   111.924 Ry
ExtMesh (bp) on 0 =    60 x    54 x    54 =      174960
New grid distribution:   2
           1       1:   12    1:    6    1:    6
           2       1:   12    1:    6    7:   12
           3       1:   12    7:   12    1:    6
           4       1:   12    7:   12    7:   12
New grid distribution:   3
           1       1:   12    1:    6    1:    6
           2       1:   12    1:    6    7:   12
           3       1:   12    7:   12    1:    6
           4       1:   12    7:   12    7:   12
Setting up quadratic distribution...
ExtMesh (bp) on 0 =    60 x    54 x    54 =      174960
PhiOnMesh: Number of (b)points on node 0 =                  432
PhiOnMesh: nlist on node 0 =                13653

siesta: Eharris(eV) =   -3044.173095


siesta: Eharris(eV) =   -3044.173095

:!: SCF did not converge in maximum number of steps.

Using DM_out to compute the final energy and forces

siesta: Atomic forces (eV/Ang):
     1   10.267578   -9.036306   14.616417
     2  -15.487289   13.319352   -2.621478
     3    0.674405   -3.092960    2.262124
     4   -0.158422   -5.676945   -0.330252
     5   -1.874874    2.947153    3.397131
     6  -27.954278   27.017741  -39.811752
     7    7.277088   -6.756354  -11.735905
     8  -24.038480   -3.400993   20.673895
     9    0.470541    1.960932   -5.708771
    10    5.401803   -0.681520   42.883796
----------------------------------------
   Tot  -45.421929   16.600100   23.625206
----------------------------------------
   Max   42.883796
   Res   15.439074    sqrt( Sum f_i^2 / 3N )
----------------------------------------
   Max   42.883796    constrained

Stress-tensor-Voigt (kbar):     4985.84     6309.93     4858.41      801.24       91.63     -343.88
(Free)E + p*V (eV/cell)    -3063.2806
Target enthalpy (eV/cell)    -2809.1552

siesta: Stress tensor (static) (eV/Ang**3):
         3.111880    0.460563   -0.217814
         0.500089    3.938304    0.052459
        -0.214628    0.057192    3.032350

siesta: Pressure (static):      -5384.72509670  kBar

siesta: Stress tensor (total) (eV/Ang**3):
         3.111880    0.460563   -0.217814
         0.500089    3.938304    0.052459
        -0.214628    0.057192    3.032350

siesta: Pressure (total):      -5384.72509670  kBar
Cycling the Broyden process...

                     ====================================
                        Begin Broyden opt. move =     30
                     ====================================

outcoor: Atomic coordinates (fractional):                   
   -0.00006996    0.00001296   -0.00010210   1       1  Mg
    0.50011359    0.49999010    0.50005366   1       2  Mg
    0.24961867    0.24990040    0.25210237   2       3  C
   -0.24962321   -0.24985535   -0.25210235   2       4  C
    0.63739762   -0.13793165    0.25164445   3       5  O
    0.24991778    0.63898909   -0.13860015   3       6  O
   -0.13611971    0.24952594    0.63629853   3       7  O
   -0.63723269    0.13803556   -0.25166042   3       8  O
   -0.24975184   -0.63903759    0.13886281   3       9  O
    0.13604819   -0.24947086   -0.63646602   3      10  O
 Kpoints in:          196 . Kpoints trimmed:          172

siesta: k-grid: Number of k-points =   172
siesta: k-grid: Cutoff (effective) =    15.763 Ang
siesta: k-grid: Supercell and displacements
siesta: k-grid:    7  -7   0      0.000
siesta: k-grid:    7   0   0      0.000
siesta: k-grid:    0  -7   7      0.000
Naive supercell factors:     5    5    5

superc: Internal auxiliary supercell:     5 x     5 x     5  =     125
superc: Number of atoms, orbitals, and projectors:   1250   4250  10000

outcell: Unit cell vectors (Ang):
        4.552791   -0.417072   -0.280004
        2.725011    3.698936   -0.276079
        2.720243    1.231002    3.492674

outcell: Cell vector modules (Ang)   :    4.580421    4.602612    4.594982
outcell: Cell angles (23,13,12) (deg):     58.6538     58.8305     58.7364
outcell: Cell volume (Ang**3)        :     66.5265
New_DM. Step:    31
Initializing Density Matrix...
New grid distribution:   1
           1       1:   12    1:    6    1:    6
           2       1:   12    1:    6    7:   12
           3       1:   12    7:   12    1:    6
           4       1:   12    7:   12    7:   12

InitMesh: MESH =    24 x    24 x    24 =       13824
InitMesh: (bp) =    12 x    12 x    12 =        1728
InitMesh: Mesh cutoff (required, used) =   100.000   111.112 Ry
ExtMesh (bp) on 0 =    60 x    54 x    54 =      174960
New grid distribution:   2
           1       1:   12    1:    6    1:    6
           2       1:   12    1:    6    7:   12
           3       1:   12    7:   12    1:    6
           4       1:   12    7:   12    7:   12
New grid distribution:   3
           1       1:   12    1:    6    1:    6
           2       1:   12    1:    6    7:   12
           3       1:   12    7:   12    1:    6
           4       1:   12    7:   12    7:   12
Setting up quadratic distribution...
ExtMesh (bp) on 0 =    60 x    54 x    54 =      174960
PhiOnMesh: Number of (b)points on node 0 =                  432
PhiOnMesh: nlist on node 0 =                13110

siesta: Eharris(eV) =   -3046.658641


siesta: Eharris(eV) =   -3046.658641

:!: SCF did not converge in maximum number of steps.

Using DM_out to compute the final energy and forces

siesta: Atomic forces (eV/Ang):
     1   10.106012   -9.034253   14.242950
     2  -14.900249   13.201060   -3.018791
     3   -0.039930   -1.742506    2.302073
     4    0.360897   -5.916293   -0.448789
     5   -1.955334    2.896591    3.040796
     6  -27.626971   21.265094  -29.498950
     7    7.025001   -6.246711  -11.968838
     8  -24.531440    3.122282   18.684506
     9    0.394497    1.961841   -5.326769
    10    4.027966    0.024887   37.802420
----------------------------------------
   Tot  -47.139551   19.531992   25.810608
----------------------------------------
   Max   37.802420
   Res   13.678067    sqrt( Sum f_i^2 / 3N )
----------------------------------------
   Max   37.802420    constrained

Stress-tensor-Voigt (kbar):     5156.00     6478.48     5171.54      738.24       84.47     -368.47
(Free)E + p*V (eV/cell)    -3077.8860
Target enthalpy (eV/cell)    -2803.7569

siesta: Stress tensor (static) (eV/Ang**3):
         3.218084    0.423621   -0.234024
         0.460766    4.043506    0.051991
        -0.229977    0.052723    3.227788

siesta: Pressure (static):      -5602.00572631  kBar

siesta: Stress tensor (total) (eV/Ang**3):
         3.218084    0.423621   -0.234024
         0.460766    4.043506    0.051991
        -0.229977    0.052723    3.227788

siesta: Pressure (total):      -5602.00572631  kBar
Cycling the Broyden process...

outcoor: Final (unrelaxed) atomic coordinates (fractional): 
   -0.00006996    0.00001296   -0.00010210   1       1  Mg
    0.50011359    0.49999010    0.50005366   1       2  Mg
    0.24961867    0.24990040    0.25210237   2       3  C
   -0.24962321   -0.24985535   -0.25210235   2       4  C
    0.63739762   -0.13793165    0.25164445   3       5  O
    0.24991778    0.63898909   -0.13860015   3       6  O
   -0.13611971    0.24952594    0.63629853   3       7  O
   -0.63723269    0.13803556   -0.25166042   3       8  O
   -0.24975184   -0.63903759    0.13886281   3       9  O
    0.13604819   -0.24947086   -0.63646602   3      10  O

outcell: Unit cell vectors (Ang):
        4.552791   -0.417072   -0.280004
        2.725011    3.698936   -0.276079
        2.720243    1.231002    3.492674

outcell: Cell vector modules (Ang)   :    4.580421    4.602612    4.594982
outcell: Cell angles (23,13,12) (deg):     58.6538     58.8305     58.7364
outcell: Cell volume (Ang**3)        :     66.5265

siesta: Program's energy decomposition (eV):
siesta: Ebs     =      -800.174169
siesta: Eions   =      5228.674091
siesta: Ena     =      1099.552577
siesta: Ekin    =      2379.721687
siesta: Enl     =      -358.480624
siesta: DEna    =       -95.007393
siesta: DUscf   =       210.514520
siesta: DUext   =         0.000000
siesta: Exc     =      -852.903074
siesta: eta*DQ  =         0.000000
siesta: Emadel  =         0.000000
siesta: Emeta   =         0.000000
siesta: Emolmec =         0.000000
siesta: Ekinion =         0.000000
siesta: Eharris =     -3046.658641
siesta: Etot    =     -2845.276397
siesta: FreeEng =     -2845.278986

siesta: Final energy (eV):
siesta:  Band Struct. =    -800.174169
siesta:       Kinetic =    2379.721687
siesta:       Hartree =     834.577251
siesta:    Ext. field =       0.000000
siesta:   Exch.-corr. =    -852.903074
siesta:  Ion-electron =   -3278.682193
siesta:       Ion-ion =   -1927.990069
siesta:       Ekinion =       0.000000
siesta:         Total =   -2845.276397

siesta: Atomic forces (eV/Ang):
siesta:      1   10.106012   -9.034253   14.242950
siesta:      2  -14.900249   13.201060   -3.018791
siesta:      3   -0.039930   -1.742506    2.302073
siesta:      4    0.360897   -5.916293   -0.448789
siesta:      5   -1.955334    2.896591    3.040796
siesta:      6  -27.626971   21.265094  -29.498950
siesta:      7    7.025001   -6.246711  -11.968838
siesta:      8  -24.531440    3.122282   18.684506
siesta:      9    0.394497    1.961841   -5.326769
siesta:     10    4.027966    0.024887   37.802420
siesta: ----------------------------------------
siesta:    Tot  -47.139551   19.531992   25.810608

siesta: Stress tensor (static) (eV/Ang**3):
siesta:     3.218084    0.423621   -0.234024
siesta:     0.460766    4.043506    0.051991
siesta:    -0.229977    0.052723    3.227788

siesta: Constrained stress tensor (static) (eV/Ang**3):
siesta:     3.218084    0.442193   -0.232000
siesta:     0.442193    4.043506    0.052357
siesta:    -0.232000    0.052357    3.227788

siesta: Cell volume =         66.526456 Ang**3

siesta: Pressure (static):
siesta:                Solid            Molecule  Units
siesta:          -0.03808090         -0.03295430  Ry/Bohr**3
siesta:          -3.49645916         -3.02575186  eV/Ang**3
siesta:       -5602.00572631      -4847.84132688  kBar
(Free)E+ p_basis*V_orbitals  =       -2844.084689
(Free)Eharris+ p_basis*V_orbitals  =       -3045.466933
>> End of run:  29-SEP-2015  15:50:53
