Siesta Version: siesta@uam.es--2006/siesta-devel--reference--2.1--patch-34
Architecture  : intel9 with Siesta libs
Compiler flags: ifort -w -O2 -mp
SERIAL version

* Running in serial mode
>> Start of run:  25-JAN-2007  17:38:37

                           ***********************       
                           *  WELCOME TO SIESTA  *       
                           ***********************       

reinit: Reading from standard input
************************** Dump of input data file ****************************
#
# MgCO3 in primitive cell. SZ. Variable cell. Harris. Broyden Optim
#
SystemName	MgCo3 R-3c Harris -- SZ, 100 R -- variable cell at 100 Gpa
SystemLabel	var_cell
NumberOfSpecies		3
NumberOfAtoms	       10
%block ChemicalSpeciesLabel
      1      12     Mg
      2       6     C
      3       8     O
%endblock ChemicalSpeciesLabel
PAO.BasisSize  SZ
Diag.Divide-and-Conquer F
# Rhombohedral primitive cell
# (HEX 3-fold cell had A=4.635 and C=15.023, so alpha=48.179 degrees
#  and a=5.67783 Ang)
LatticeConstant     5.67783 Ang
%block LatticeParameters
1.0 1.0 1.0 48.179 48.179 48.179
%endblock LatticeParameters
AtomicCoordinatesFormat    Fractional
%block AtomicCoordinatesAndAtomicSpecies
  0.0         0.0         0.0      1
  0.5         0.5         0.5      1
  0.25        0.25        0.25     2
 -0.25       -0.25       -0.25     2
  0.5274     -0.0274      0.25     3
  0.25        0.5274     -0.0274   3
 -0.0274      0.25        0.5274   3
 -0.5274      0.0274     -0.25     3
 -0.25       -0.5274      0.0274   3
  0.0274     -0.25       -0.5274   3
%endblock AtomicCoordinatesAndAtomicSpecies
kgrid_cutoff 15.0 Ang
Solution.Method       diagon
MeshCutoff             100 Ry
DM.NumberBroyden       4
DM.UseSaveDM           T
DM.MixingWeight        0.1         # New DM amount for next SCF cycle
DM.Tolerance           1.d-3       # Tolerance in maximum difference
                                   # between input and output DM
MaxSCFIterations       20
WriteCoorStep      .true.
WriteForces        .true.
HarrisFunctional T
MD.TypeOfRun         Broyden
MD.Variable-Cell      T
MD.Target-pressure   100.0 GPa
MD.Num-CG-steps	     30
MD.Max-Stress-Tol    2.0 GPa
MD.Broyden.Initial.Inverse.Jacobian 1.0
MD.Broyden.History.Steps 6
************************** End of input data file *****************************

reinit: -----------------------------------------------------------------------
reinit: System Name: MgCo3 R-3c Harris -- SZ, 100 R -- variable cell at 100 Gpa 
reinit: -----------------------------------------------------------------------
reinit: System Label: var_cell                                                    
reinit: -----------------------------------------------------------------------

initatom: Reading input for the pseudopotentials and atomic orbitals ----------
 Species number:            1  Label: Mg Atomic number:          12
 Species number:            2  Label: C Atomic number:           6
 Species number:            3  Label: O Atomic number:           8
Ground state valence configuration:   3s02
Reading pseudopotential information in formatted form from Mg.psf

Valence configuration for pseudopotential generation:
3s( 2.00) rc: 2.59
3p( 0.00) rc: 2.59
3d( 0.00) rc: 2.59
4f( 0.00) rc: 2.59
Dumping pseudopotential information in formatted form in Mg.psdump
Ground state valence configuration:   2s02  2p02
Reading pseudopotential information in formatted form from C.psf

Valence configuration for pseudopotential generation:
2s( 2.00) rc: 1.49
2p( 2.00) rc: 1.52
3d( 0.00) rc: 1.58
Dumping pseudopotential information in formatted form in C.psdump
Ground state valence configuration:   2s02  2p04
Reading pseudopotential information in formatted form from O.psf

Valence configuration for pseudopotential generation:
2s( 2.00) rc: 1.14
2p( 4.00) rc: 1.14
3d( 0.00) rc: 1.14
4f( 0.00) rc: 1.14
Dumping pseudopotential information in formatted form in O.psdump
For Mg, standard SIESTA heuristics set lmxkb to 1
 (one more than the basis l, including polarization orbitals).
Use PS.lmax or PS.KBprojectors blocks to override.
For C, standard SIESTA heuristics set lmxkb to 2
 (one more than the basis l, including polarization orbitals).
Use PS.lmax or PS.KBprojectors blocks to override.
For O, standard SIESTA heuristics set lmxkb to 2
 (one more than the basis l, including polarization orbitals).
Use PS.lmax or PS.KBprojectors blocks to override.

<basis_specs>
===============================================================================
Mg                   Z=  12    Mass=  24.310        Charge= 0.17977+309
Lmxo=0 Lmxkb=1     BasisType=split      Semic=F
L=0  Nsemic=0  Cnfigmx=3
          n=1  nzeta=1  polorb=0
            splnorm:   0.15000    
               vcte:    0.0000    
               rinn:    0.0000    
                rcs:    0.0000    
            lambdas:    1.0000    
-------------------------------------------------------------------------------
L=0  Nkbl=1  erefs: 0.17977+309
L=1  Nkbl=1  erefs: 0.17977+309
===============================================================================
</basis_specs>

atom: Called for Mg                    (Z =  12)

read_vps: Pseudopotential generation method:
read_vps: ATM3      Troullier-Martins                       
Total valence charge:    2.00000

xc_check: Exchange-correlation functional:
xc_check: Ceperley-Alder
V l=0 = -2*Zval/r beyond r=  3.5878
V l=1 = -2*Zval/r beyond r=  3.5878
All V_l potentials equal beyond r=  2.5600
This should be close to max(r_c) in ps generation
All pots = -2*Zval/r beyond r=  3.5878
Using large-core scheme for Vlocal

atom: Estimated core radius    3.58779

atom: Including non-local core corrections could be a good idea
atom: Maximum radius for 4*pi*r*r*local-pseudopot. charge    3.91588
atom: Maximum radius for r*vlocal+2*Zval:    3.63292
GHOST: No ghost state for L =  0
GHOST: No ghost state for L =  1

KBgen: Kleinman-Bylander projectors: 
   l= 0   rc=  2.657845   el= -0.351328   Ekb=  2.184400   kbcos=  0.257081
   l= 1   rc=  2.657845   el= -0.101748   Ekb=  0.525536   kbcos=  0.270508

KBgen: Total number of  Kleinman-Bylander projectors:    4
atom: -------------------------------------------------------------------------

atom: SANKEY-TYPE ORBITALS:

SPLIT: Orbitals with angular momentum L= 0

SPLIT: Basis orbitals for state 3s

SPLIT: PAO cut-off radius determined from an
SPLIT: energy shift=  0.020000 Ry

   izeta = 1
                 lambda =    1.000000
                     rc =    6.619780
                 energy =   -0.332103
                kinetic =    0.289627
    potential(screened) =   -0.621729
       potential(ionic) =   -1.387191
atom: Total number of Sankey-type orbitals:  1

atm_pop: Valence configuration (for local Pseudopot. screening):
 3s( 2.00)                                                            
Vna: chval, zval:    2.00000   2.00000

Vna:  Cut-off radius for the neutral-atom potential:   6.619780

atom: _________________________________________________________________________

<basis_specs>
===============================================================================
C                    Z=   6    Mass=  12.010        Charge= 0.17977+309
Lmxo=1 Lmxkb=2     BasisType=split      Semic=F
L=0  Nsemic=0  Cnfigmx=2
          n=1  nzeta=1  polorb=0
            splnorm:   0.15000    
               vcte:    0.0000    
               rinn:    0.0000    
                rcs:    0.0000    
            lambdas:    1.0000    
L=1  Nsemic=0  Cnfigmx=2
          n=1  nzeta=1  polorb=0
            splnorm:   0.15000    
               vcte:    0.0000    
               rinn:    0.0000    
                rcs:    0.0000    
            lambdas:    1.0000    
-------------------------------------------------------------------------------
L=0  Nkbl=1  erefs: 0.17977+309
L=1  Nkbl=1  erefs: 0.17977+309
L=2  Nkbl=1  erefs: 0.17977+309
===============================================================================
</basis_specs>

atom: Called for C                     (Z =   6)

read_vps: Pseudopotential generation method:
read_vps: ATM3      Troullier-Martins                       
Total valence charge:    4.00000

xc_check: Exchange-correlation functional:
xc_check: Ceperley-Alder
V l=0 = -2*Zval/r beyond r=  1.4666
V l=1 = -2*Zval/r beyond r=  1.5038
V l=2 = -2*Zval/r beyond r=  1.5612
All V_l potentials equal beyond r=  1.5612
This should be close to max(r_c) in ps generation
All pots = -2*Zval/r beyond r=  1.5612

VLOCAL1: 99.0% of the norm of Vloc inside     17.809 Ry
VLOCAL1: 99.9% of the norm of Vloc inside     40.586 Ry
atom: Maximum radius for 4*pi*r*r*local-pseudopot. charge    1.88329
atom: Maximum radius for r*vlocal+2*Zval:    1.62091
GHOST: No ghost state for L =  0
GHOST: No ghost state for L =  1
GHOST: No ghost state for L =  2

KBgen: Kleinman-Bylander projectors: 
   l= 0   rc=  1.747182   el= -1.001947   Ekb=  5.181700   kbcos=  0.300603
   l= 1   rc=  1.747182   el= -0.398598   Ekb= -4.328763   kbcos= -0.367074
   l= 2   rc=  1.955272   el=  0.002326   Ekb= -1.016175   kbcos= -0.009979

KBgen: Total number of  Kleinman-Bylander projectors:    9
atom: -------------------------------------------------------------------------

atom: SANKEY-TYPE ORBITALS:

SPLIT: Orbitals with angular momentum L= 0

SPLIT: Basis orbitals for state 2s

SPLIT: PAO cut-off radius determined from an
SPLIT: energy shift=  0.020000 Ry

   izeta = 1
                 lambda =    1.000000
                     rc =    4.191849
                 energy =   -0.983897
                kinetic =    0.886956
    potential(screened) =   -1.870853
       potential(ionic) =   -5.479661

SPLIT: Orbitals with angular momentum L= 1

SPLIT: Basis orbitals for state 2p

SPLIT: PAO cut-off radius determined from an
SPLIT: energy shift=  0.020000 Ry

   izeta = 1
                 lambda =    1.000000
                     rc =    4.870301
                 energy =   -0.379093
                kinetic =    2.545357
    potential(screened) =   -2.924450
       potential(ionic) =   -6.433151
atom: Total number of Sankey-type orbitals:  4

atm_pop: Valence configuration (for local Pseudopot. screening):
 2s( 2.00)                                                            
 2p( 2.00)                                                            
Vna: chval, zval:    4.00000   4.00000

Vna:  Cut-off radius for the neutral-atom potential:   4.870301

atom: _________________________________________________________________________

<basis_specs>
===============================================================================
O                    Z=   8    Mass=  16.000        Charge= 0.17977+309
Lmxo=1 Lmxkb=2     BasisType=split      Semic=F
L=0  Nsemic=0  Cnfigmx=2
          n=1  nzeta=1  polorb=0
            splnorm:   0.15000    
               vcte:    0.0000    
               rinn:    0.0000    
                rcs:    0.0000    
            lambdas:    1.0000    
L=1  Nsemic=0  Cnfigmx=2
          n=1  nzeta=1  polorb=0
            splnorm:   0.15000    
               vcte:    0.0000    
               rinn:    0.0000    
                rcs:    0.0000    
            lambdas:    1.0000    
-------------------------------------------------------------------------------
L=0  Nkbl=1  erefs: 0.17977+309
L=1  Nkbl=1  erefs: 0.17977+309
L=2  Nkbl=1  erefs: 0.17977+309
===============================================================================
</basis_specs>

atom: Called for O                     (Z =   8)

read_vps: Pseudopotential generation method:
read_vps: ATM3      Troullier-Martins                       
Total valence charge:    6.00000

xc_check: Exchange-correlation functional:
xc_check: Ceperley-Alder
V l=0 = -2*Zval/r beyond r=  1.1278
V l=1 = -2*Zval/r beyond r=  1.1278
V l=2 = -2*Zval/r beyond r=  1.1278
All V_l potentials equal beyond r=  1.1278
This should be close to max(r_c) in ps generation
All pots = -2*Zval/r beyond r=  1.1278

VLOCAL1: 99.0% of the norm of Vloc inside     34.126 Ry
VLOCAL1: 99.9% of the norm of Vloc inside     77.774 Ry
atom: Maximum radius for 4*pi*r*r*local-pseudopot. charge    1.37759
atom: Maximum radius for r*vlocal+2*Zval:    1.18566
GHOST: No ghost state for L =  0
GHOST: No ghost state for L =  1
GHOST: No ghost state for L =  2

KBgen: Kleinman-Bylander projectors: 
   l= 0   rc=  1.294105   el= -1.742414   Ekb=  9.135903   kbcos=  0.326910
   l= 1   rc=  1.294105   el= -0.676589   Ekb= -8.124878   kbcos= -0.395047
   l= 2   rc=  1.448233   el=  0.002386   Ekb= -2.039267   kbcos= -0.003484

KBgen: Total number of  Kleinman-Bylander projectors:    9
atom: -------------------------------------------------------------------------

atom: SANKEY-TYPE ORBITALS:

SPLIT: Orbitals with angular momentum L= 0

SPLIT: Basis orbitals for state 2s

SPLIT: PAO cut-off radius determined from an
SPLIT: energy shift=  0.020000 Ry

   izeta = 1
                 lambda =    1.000000
                     rc =    3.305093
                 energy =   -1.723766
                kinetic =    1.614911
    potential(screened) =   -3.338677
       potential(ionic) =  -11.304675

SPLIT: Orbitals with angular momentum L= 1

SPLIT: Basis orbitals for state 2p

SPLIT: PAO cut-off radius determined from an
SPLIT: energy shift=  0.020000 Ry

   izeta = 1
                 lambda =    1.000000
                     rc =    3.937239
                 energy =   -0.658841
                kinetic =    5.005986
    potential(screened) =   -5.664827
       potential(ionic) =  -13.452360
atom: Total number of Sankey-type orbitals:  4

atm_pop: Valence configuration (for local Pseudopot. screening):
 2s( 2.00)                                                            
 2p( 4.00)                                                            
Vna: chval, zval:    6.00000   6.00000

Vna:  Cut-off radius for the neutral-atom potential:   3.937239

atom: _________________________________________________________________________

prinput: Basis input ----------------------------------------------------------

PAO.BasisType split     

%block ChemicalSpeciesLabel
    1   12 Mg                      # Species index, atomic number, species label
    2    6 C                       # Species index, atomic number, species label
    3    8 O                       # Species index, atomic number, species label
%endblock ChemicalSpeciesLabel

%block PAO.Basis                 # Define Basis set
Mg                    1                    # Species label, number of l-shells
 n=3   0   1                         # n, l, Nzeta 
   6.620   
   1.000   
C                     2                    # Species label, number of l-shells
 n=2   0   1                         # n, l, Nzeta 
   4.192   
   1.000   
 n=2   1   1                         # n, l, Nzeta 
   4.870   
   1.000   
O                     2                    # Species label, number of l-shells
 n=2   0   1                         # n, l, Nzeta 
   3.305   
   1.000   
 n=2   1   1                         # n, l, Nzeta 
   3.937   
   1.000   
%endblock PAO.Basis

prinput: ----------------------------------------------------------------------


siesta: ******************** Simulation parameters ****************************
siesta:
siesta: The following are some of the parameters of the simulation.
siesta: A complete list of the parameters used, including default values,
siesta: can be found in file out.fdf
siesta:
coor:   Atomic-coordinates input format  =     Fractional
redata: Number of spin components        =     1
redata: Long output                      =     F
redata: Number of Atomic Species         =     3
redata: Charge density info will appear in .RHO file
redata: Write Mulliken Pop.              =     NO
redata: Mesh Cutoff                      =   100.0000  Ry
redata: Net charge of the system         =     0.0000 |e|
redata: Max. number of SCF Iter          =    20
redata: Broyden mixing with     4 saved histories.
redata: Mix DM in first SCF step ?       =     F
redata: Write Pulay info on disk?        =     F
redata: New DM Mixing Weight             =     0.1000
redata: New DM Occupancy tolerance       = 0.000000000001
redata: No kicks to SCF
redata: DM Mixing Weight for Kicks       =     0.5000
redata: DM Tolerance for SCF             =     0.001000
redata: Require Energy convergence for SCF =     F
redata: DM Energy tolerance for SCF      =     0.000100 eV
redata: Using Saved Data (generic)   =     F
redata: Use continuation files for DM    =     T
redata: Neglect nonoverlap interactions  =     F
redata: Method of Calculation            =     Diagonalization
redata: Divide and Conquer               =     F
redata: Electronic Temperature           =     0.0019  Ry
redata: Fix the spin of the system       =     F
redata: Dynamics option                  =     Broyden coord. optimization
redata: Variable cell                    =     T
redata: Maximum number of CG moves       =    30
redata: Force tolerance                  =     0.0016  Ry/Bohr
redata: Stress tolerance                 =     2.0000  GPa
redata: ***********************************************************************

siesta: Atomic coordinates (Bohr) and species
siesta:      0.00000   0.00000   0.00000  1        1
siesta:     12.51930   5.59740   3.66414  1        2
siesta:      6.25965   2.79870   1.83207  2        3
siesta:     -6.25965  -2.79870  -1.83207  2        4
siesta:      7.25136   0.58061   1.83207  3        5
siesta:      6.25965   4.12944  -0.20079  3        6
siesta:      5.26794   3.68605   3.86493  3        7
siesta:     -7.25136  -0.58061  -1.83207  3        8
siesta:     -6.25965  -4.12944   0.20079  3        9
siesta:     -5.26794  -3.68605  -3.86493  3       10

initatomlists: Number of atoms, orbitals, and projectors:     10    34    80
Total number of electrons:    48.000000
Total ionic charge:    48.000000

siesta: System type = bulk      

siesta: k-grid: Number of k-points =   154
siesta: k-grid: Cutoff (effective) =    16.222 Ang
siesta: k-grid: Supercell and displacements
siesta: k-grid:   -7   0   7      0.500
siesta: k-grid:    0  -7   7      0.000
siesta: k-grid:    0   0   6      0.000
Naive supercell factors:     4    4    4
Auxiliary supercell needs to be larger than naive one...

superc: Internal auxiliary supercell:     5 x     5 x     4  =     100
superc: Number of atoms, orbitals, and projectors:   1000  3400  8000

* Maximum dynamic memory allocated =     1 MB

siesta:                 ==============================
                            Begin CG move =      0
                        ==============================

outcoor: Atomic coordinates (fractional):                   
    0.00000000    0.00000000    0.00000000   1       1  Mg
    0.50000000    0.50000000    0.50000000   1       2  Mg
    0.25000000    0.25000000    0.25000000   2       3  C
   -0.25000000   -0.25000000   -0.25000000   2       4  C
    0.52740000   -0.02740000    0.25000000   3       5  O
    0.25000000    0.52740000   -0.02740000   3       6  O
   -0.02740000    0.25000000    0.52740000   3       7  O
   -0.52740000    0.02740000   -0.25000000   3       8  O
   -0.25000000   -0.52740000    0.02740000   3       9  O
    0.02740000   -0.25000000   -0.52740000   3      10  O

superc: Internal auxiliary supercell:     5 x     5 x     4  =     100
superc: Number of atoms, orbitals, and projectors:   1000  3400  8000

outcell: Unit cell vectors (Ang):
        5.677830    0.000000    0.000000
        3.786009    4.231299    0.000000
        3.786009    1.692731    3.877957

outcell: Cell vector modules (Ang)   :    5.677830    5.677830    5.677830
outcell: Cell angles (23,13,12) (deg):     48.1790     48.1790     48.1790
outcell: Cell volume (Ang**3)        :     93.1663

InitMesh: MESH =    32 x    32 x    32 =       32768
InitMesh: Mesh cutoff (required, used) =   100.000   112.857 Ry

* Maximum dynamic memory allocated =    12 MB

stepf: Fermi-Dirac step function
 Broyden: No of relevant DM elements:         9610
 maxit for broyden:            4
 cycle on maxit:  T
 variable weight:  T
 initial alpha:   0.100000000000000     

siesta: Program's energy decomposition (eV):
siesta: Eions   =      5228.674091
siesta: Ena     =      1092.429444
siesta: Ekin    =      2100.835149
siesta: Enl     =      -258.044678
siesta: DEna    =        -0.000015
siesta: DUscf   =         0.000000
siesta: DUext   =         0.000000
siesta: Exc     =      -683.847183
siesta: eta*DQ  =         0.000000
siesta: Emadel  =         0.000000
siesta: Emeta   =         0.000000
siesta: Emolmec =         0.000000
siesta: Ekinion =         0.000000
siesta: Eharris =     -2966.326649
siesta: Etot    =     -2977.301374
siesta: FreeEng =     -2977.301374

siesta: Eharris(eV) =   -2966.326649


siesta: Eharris(eV) =   -2966.326649

timer: Routine,Calls,Time,% = IterSCF        1       4.183  75.12
elaps: Routine,Calls,Wall,% = IterSCF        1       4.183  75.12

siesta: E_KS - E_eggbox =     -2949.8288

siesta: Atomic forces (eV/Ang):
     1    0.000000    0.000000    0.000000
     2   -0.000013   -0.000006   -0.000013
     3   -0.000131   -0.000058   -0.000130
     4   -0.000181    0.000028   -0.000042
     5    2.760279   -6.173727   -0.000003
     6    0.000004    3.703924   -5.658188
     7   -2.760271    2.469807    5.658182
     8   -2.760280    6.173723    0.000003
     9   -0.000001   -3.703926    5.658183
    10    2.760285   -2.469811   -5.658184
----------------------------------------
   Tot   -0.000309   -0.000045   -0.000192
----------------------------------------
   Max    6.173727
   Res    3.024371    sqrt( Sum f_i^2 / 3N )
----------------------------------------
   Max    6.173727    constrained

Stress-tensor-Voigt (kbar):      567.99      382.08      355.54      103.89       30.41       68.01
Target enthalpy (eV/cell)    -2891.6795

siesta: Stress tensor (static) (eV/Ang**3):
         0.354510    0.064841    0.042446
         0.064841    0.238476    0.018978
         0.042446    0.018978    0.221909

siesta: Pressure (static):       -435.20667782  kBar

siesta: Stress tensor (total) (eV/Ang**3):
         0.354510    0.064841    0.042446
         0.064841    0.238476    0.018978
         0.042446    0.018978    0.221909

siesta: Pressure (total):       -435.20667782  kBar
 
Broyden_optim: max_history for broyden:   6
Broyden_optim: cycle on maxit: T
Broyden_optim: initial inverse jacobian:   1.0000
 
Broyden_optim: No of elements:     36

Broyden_optim: No target stress found, assuming hydrostatic MD.TargetPressure.

Broyden_optim: Target stress (kBar)
Broyden_optim:     -1000.000       0.000       0.000
Broyden_optim:         0.000   -1000.000       0.000
Broyden_optim:         0.000       0.000   -1000.000

* Maximum dynamic memory allocated =    12 MB

siesta:                 ==============================
                            Begin CG move =      1
                        ==============================

outcoor: Atomic coordinates (fractional):                   
    0.00000000    0.00000000    0.00000000   1       1  Mg
    0.49999995    0.49999995    0.49999993   1       2  Mg
    0.24999953    0.24999953    0.24999930   2       3  C
   -0.25000066   -0.25000036   -0.25000051   2       4  C
    0.53740572   -0.03740575    0.24999998   3       5  O
    0.25000001    0.53740574   -0.03740575   3       6  O
   -0.03740569    0.25000005    0.53740579   3       7  O
   -0.53740573    0.03740574   -0.24999999   3       8  O
   -0.25000000   -0.53740574    0.03740575   3       9  O
    0.03740574   -0.25000003   -0.53740576   3      10  O

siesta: k-grid: Number of k-points =   168
siesta: k-grid: Cutoff (effective) =    15.185 Ang
siesta: k-grid: Supercell and displacements
siesta: k-grid:   -7   0   7      0.500
siesta: k-grid:    7  -7   0      0.000
siesta: k-grid:    0   0   6      0.000
Naive supercell factors:     4    4    4
Auxiliary supercell needs to be larger than naive one...

superc: Internal auxiliary supercell:     5 x     5 x     4  =     100
superc: Number of atoms, orbitals, and projectors:   1000  3400  8000

outcell: Unit cell vectors (Ang):
        5.251635   -0.028238   -0.018485
        3.480776    3.932513   -0.018485
        3.480776    1.556261    3.611517

outcell: Cell vector modules (Ang)   :    5.251743    5.251743    5.251743
outcell: Cell angles (23,13,12) (deg):     48.7948     48.7948     48.7948
outcell: Cell volume (Ang**3)        :     75.2462

InitMesh: MESH =    30 x    30 x    30 =       27000
InitMesh: Mesh cutoff (required, used) =   100.000   116.744 Ry

siesta: Eharris(eV) =   -2965.796805


siesta: Eharris(eV) =   -2965.796805


siesta: Atomic forces (eV/Ang):
     1   -0.000012   -0.000014    0.000010
     2    0.000017    0.000008    0.000005
     3    0.000008    0.000004    0.000067
     4    0.000050   -0.000063    0.000006
     5    3.774806   -8.442858   -0.000010
     6   -0.000018    5.065286   -7.737847
     7   -3.774785    3.377563    7.737789
     8   -3.774839    8.442895    0.000002
     9   -0.000001   -5.065271    7.737782
    10    3.774794   -3.377556   -7.737785
----------------------------------------
   Tot    0.000021   -0.000005    0.000017
----------------------------------------
   Max    8.442895
   Res    4.135961    sqrt( Sum f_i^2 / 3N )
----------------------------------------
   Max    8.442895    constrained

Stress-tensor-Voigt (kbar):      453.52       49.24       -8.48      225.91       66.12      147.88
Target enthalpy (eV/cell)    -2901.8854

siesta: Stress tensor (static) (eV/Ang**3):
         0.283059    0.141001    0.092301
         0.141001    0.030734    0.041268
         0.092301    0.041268   -0.005292

siesta: Pressure (static):       -164.75939471  kBar

siesta: Stress tensor (total) (eV/Ang**3):
         0.283059    0.141001    0.092301
         0.141001    0.030734    0.041268
         0.092301    0.041268   -0.005292

siesta: Pressure (total):       -164.75939471  kBar

* Maximum dynamic memory allocated =    12 MB

siesta:                 ==============================
                            Begin CG move =      2
                        ==============================

outcoor: Atomic coordinates (fractional):                   
   -0.00000009   -0.00000014   -0.00000004   1       1  Mg
    0.50000009    0.50000009    0.50000006   1       2  Mg
    0.24999959    0.24999959    0.24999971   2       3  C
   -0.25000026   -0.25000047   -0.25000036   2       4  C
    0.56751361   -0.06751377    0.24999987   3       5  O
    0.24999987    0.56751358   -0.06751397   3       6  O
   -0.06751341    0.25000020    0.56751373   3       7  O
   -0.56751388    0.06751381   -0.25000001   3       8  O
   -0.25000001   -0.56751358    0.06751354   3       9  O
    0.06751354   -0.25000009   -0.56751362   3      10  O

siesta: k-grid: Number of k-points =   224
siesta: k-grid: Cutoff (effective) =    15.757 Ang
siesta: k-grid: Supercell and displacements
siesta: k-grid:    8   0  -8      0.500
siesta: k-grid:    0  -8   8      0.500
siesta: k-grid:    7   0   0      0.000
Naive supercell factors:     5    5    5

superc: Internal auxiliary supercell:     5 x     5 x     5  =     125
superc: Number of atoms, orbitals, and projectors:   1250  4250 10000

outcell: Unit cell vectors (Ang):
        4.501575   -0.144815   -0.094797
        2.893755    3.451280   -0.094798
        2.893755    1.293803    3.200998

outcell: Cell vector modules (Ang)   :    4.504901    4.504901    4.504901
outcell: Cell angles (23,13,12) (deg):     51.8518     51.8518     51.8518
outcell: Cell volume (Ang**3)        :     52.2564

InitMesh: MESH =    24 x    24 x    24 =       13824
InitMesh: Mesh cutoff (required, used) =   100.000   105.274 Ry

siesta: Eharris(eV) =   -2956.021849


siesta: Eharris(eV) =   -2956.021849


siesta: Atomic forces (eV/Ang):
     1    0.000051    0.000001    0.000048
     2   -0.000088   -0.000102   -0.000055
     3    0.000288    0.000111   -0.000033
     4    0.000181    0.000263    0.000078
     5    1.024344   -2.291032    0.000012
     6    0.000021    1.374519   -2.099616
     7   -1.024438    0.916554    2.099703
     8   -1.024273    2.290975   -0.000021
     9    0.000011   -1.374529    2.099759
    10    1.024366   -0.916520   -2.099760
----------------------------------------
   Tot    0.000463    0.000239    0.000116
----------------------------------------
   Max    2.291032
   Res    1.122326    sqrt( Sum f_i^2 / 3N )
----------------------------------------
   Max    2.291032    constrained

Stress-tensor-Voigt (kbar):     -908.64    -1196.61    -1237.74      160.92       47.10      105.34
Target enthalpy (eV/cell)    -2901.7149

siesta: Stress tensor (static) (eV/Ang**3):
        -0.567120    0.100438    0.065750
         0.100438   -0.746858    0.029395
         0.065750    0.029395   -0.772527

siesta: Pressure (static):       1114.32862517  kBar

siesta: Stress tensor (total) (eV/Ang**3):
        -0.567120    0.100438    0.065750
         0.100438   -0.746858    0.029395
         0.065750    0.029395   -0.772527

siesta: Pressure (total):       1114.32862517  kBar

* Maximum dynamic memory allocated =    12 MB

siesta:                 ==============================
                            Begin CG move =      3
                        ==============================

outcoor: Atomic coordinates (fractional):                   
    0.00000009   -0.00000001    0.00000020   1       1  Mg
    0.49999978    0.49999961    0.49999962   1       2  Mg
    0.25000056    0.25000052    0.25000033   2       3  C
   -0.24999971   -0.24999936   -0.24999952   2       4  C
    0.56782835   -0.06782839    0.24999996   3       5  O
    0.24999995    0.56782834   -0.06782830   3       6  O
   -0.06782850    0.25000000    0.56782814   3       7  O
   -0.56782834    0.06782842   -0.25000001   3       8  O
   -0.24999997   -0.56782830    0.06782833   3       9  O
    0.06782837   -0.24999997   -0.56782830   3      10  O

siesta: k-grid: Number of k-points =   280
siesta: k-grid: Cutoff (effective) =    16.014 Ang
siesta: k-grid: Supercell and displacements
siesta: k-grid:    8  -8   0      0.500
siesta: k-grid:    8   0  -8      0.500
siesta: k-grid:    7   0   0      0.000
Naive supercell factors:     5    5    5

superc: Internal auxiliary supercell:     5 x     5 x     5  =     125
superc: Number of atoms, orbitals, and projectors:   1250  4250 10000

outcell: Unit cell vectors (Ang):
        4.571326   -0.160805   -0.105265
        2.928350    3.513923   -0.105265
        2.928350    1.309270    3.262599

outcell: Cell vector modules (Ang)   :    4.575365    4.575365    4.575366
outcell: Cell angles (23,13,12) (deg):     52.1934     52.1934     52.1934
outcell: Cell volume (Ang**3)        :     55.3036

InitMesh: MESH =    24 x    24 x    24 =       13824
InitMesh: Mesh cutoff (required, used) =   100.000   102.487 Ry

siesta: Eharris(eV) =   -2959.934747


siesta: Eharris(eV) =   -2959.934747


siesta: Atomic forces (eV/Ang):
     1   -0.000074    0.000003   -0.000071
     2    0.000204    0.000143    0.000077
     3   -0.000301   -0.000122   -0.000019
     4   -0.000240   -0.000226   -0.000087
     5    0.428555   -0.958474    0.000034
     6    0.000009    0.574991   -0.878498
     7   -0.428467    0.383454    0.878438
     8   -0.428568    0.958411    0.000029
     9    0.000002   -0.575042    0.878327
    10    0.428461   -0.383388   -0.878380
----------------------------------------
   Tot   -0.000420   -0.000250   -0.000149
----------------------------------------
   Max    0.958474
   Res    0.469519    sqrt( Sum f_i^2 / 3N )
----------------------------------------
   Max    0.958474    constrained

Stress-tensor-Voigt (kbar):     -493.82     -616.44     -633.95       68.52       20.06       44.86
Target enthalpy (eV/cell)    -2903.9904

siesta: Stress tensor (static) (eV/Ang**3):
        -0.308216    0.042768    0.027996
         0.042768   -0.384749    0.012518
         0.027996    0.012518   -0.395674

siesta: Pressure (static):        581.40374010  kBar

siesta: Stress tensor (total) (eV/Ang**3):
        -0.308216    0.042768    0.027996
         0.042768   -0.384749    0.012518
         0.027996    0.012518   -0.395674

siesta: Pressure (total):        581.40374010  kBar

* Maximum dynamic memory allocated =    12 MB

siesta:                 ==============================
                            Begin CG move =      4
                        ==============================

outcoor: Atomic coordinates (fractional):                   
    0.00000016    0.00000005    0.00000027   1       1  Mg
    0.49999962    0.49999942    0.49999944   1       2  Mg
    0.25000072    0.25000067    0.25000037   2       3  C
   -0.24999967   -0.24999915   -0.24999939   2       4  C
    0.55963940   -0.05963943    0.24999996   3       5  O
    0.24999998    0.55963943   -0.05963926   3       6  O
   -0.05963964    0.24999993    0.55963917   3       7  O
   -0.55963932    0.05963950   -0.24999999   3       8  O
   -0.24999997   -0.55963938    0.05963948   3       9  O
    0.05963951   -0.24999995   -0.55963938   3      10  O

siesta: k-grid: Number of k-points =   224
siesta: k-grid: Cutoff (effective) =    16.550 Ang
siesta: k-grid: Supercell and displacements
siesta: k-grid:    8  -8   0      0.500
siesta: k-grid:    0   8  -8      0.500
siesta: k-grid:    7   0   0      0.000
Naive supercell factors:     5    5    5

superc: Internal auxiliary supercell:     5 x     5 x     5  =     125
superc: Number of atoms, orbitals, and projectors:   1250  4250 10000

outcell: Unit cell vectors (Ang):
        4.784140   -0.127064   -0.083178
        3.095399    3.650020   -0.083178
        3.095399    1.383958    3.378495

outcell: Cell vector modules (Ang)   :    4.786550    4.786550    4.786551
outcell: Cell angles (23,13,12) (deg):     51.2135     51.2135     51.2135
outcell: Cell volume (Ang**3)        :     61.4917

InitMesh: MESH =    30 x    30 x    30 =       27000
InitMesh: Mesh cutoff (required, used) =   100.000   144.574 Ry

siesta: Eharris(eV) =   -2964.355974


siesta: Eharris(eV) =   -2964.355974


siesta: Atomic forces (eV/Ang):
     1   -0.000082   -0.000001   -0.000065
     2    0.000234    0.000155    0.000087
     3   -0.000075   -0.000019    0.000077
     4    0.000007   -0.000142   -0.000022
     5    1.257844   -2.813356    0.000047
     6    0.000024    1.687831   -2.578495
     7   -1.257797    1.125446    2.578407
     8   -1.257886    2.813312    0.000050
     9   -0.000002   -1.687847    2.578274
    10    1.257771   -1.125400   -2.578325
----------------------------------------
   Tot    0.000039   -0.000020    0.000036
----------------------------------------
   Max    2.813356
   Res    1.378175    sqrt( Sum f_i^2 / 3N )
----------------------------------------
   Max    2.813356    constrained

Stress-tensor-Voigt (kbar):       21.50     -170.71     -198.14      107.41       31.44       70.31
Target enthalpy (eV/cell)    -2906.3582

siesta: Stress tensor (static) (eV/Ang**3):
         0.013420    0.067038    0.043884
         0.067038   -0.106546    0.019621
         0.043884    0.019621   -0.123671

siesta: Pressure (static):        115.78353066  kBar

siesta: Stress tensor (total) (eV/Ang**3):
         0.013420    0.067038    0.043884
         0.067038   -0.106546    0.019621
         0.043884    0.019621   -0.123671

siesta: Pressure (total):        115.78353066  kBar

* Maximum dynamic memory allocated =    13 MB

siesta:                 ==============================
                            Begin CG move =      5
                        ==============================

outcoor: Atomic coordinates (fractional):                   
   -0.00000021   -0.00000017   -0.00000028   1       1  Mg
    0.50000035    0.50000045    0.50000039   1       2  Mg
    0.24999669    0.24999670    0.24999671   2       3  C
   -0.25000324   -0.25000344   -0.25000332   2       4  C
    0.56230422   -0.06230375    0.25000012   3       5  O
    0.24999978    0.56230360   -0.06230432   3       6  O
   -0.06230344    0.25000080    0.56230439   3       7  O
   -0.56230418    0.06230362   -0.25000029   3       8  O
   -0.24999993   -0.56230402    0.06230375   3       9  O
    0.06230366   -0.25000027   -0.56230414   3      10  O

siesta: k-grid: Number of k-points =   224
siesta: k-grid: Cutoff (effective) =    16.406 Ang
siesta: k-grid: Supercell and displacements
siesta: k-grid:   -8   8   0      0.500
siesta: k-grid:    8   0  -8      0.500
siesta: k-grid:    0   7   0      0.000
Naive supercell factors:     5    5    5

superc: Internal auxiliary supercell:     5 x     5 x     5  =     125
superc: Number of atoms, orbitals, and projectors:   1250  4250 10000

outcell: Unit cell vectors (Ang):
        4.702029   -0.144107   -0.094335
        3.027946    3.600192   -0.094335
        3.027946    1.353800    3.337291

outcell: Cell vector modules (Ang)   :    4.705183    4.705182    4.705183
outcell: Cell angles (23,13,12) (deg):     51.6787     51.6787     51.6787
outcell: Cell volume (Ang**3)        :     59.2339

InitMesh: MESH =    30 x    30 x    30 =       27000
InitMesh: Mesh cutoff (required, used) =   100.000   150.466 Ry

siesta: Eharris(eV) =   -2963.049050


siesta: Eharris(eV) =   -2963.049050


siesta: Atomic forces (eV/Ang):
     1   -0.000022   -0.000053    0.000020
     2   -0.000221   -0.000145   -0.000094
     3    0.000247    0.000106    0.000056
     4    0.000229    0.000146    0.000062
     5    0.996694   -2.229477   -0.000016
     6   -0.000111    1.337558   -2.043256
     7   -0.996859    0.891902    2.043233
     8   -0.996828    2.229451   -0.000052
     9   -0.000078   -1.337582    2.043350
    10    0.996796   -0.891954   -2.043335
----------------------------------------
   Tot   -0.000151   -0.000049   -0.000033
----------------------------------------
   Max    2.229477
   Res    1.092167    sqrt( Sum f_i^2 / 3N )
----------------------------------------
   Max    2.229477    constrained

Stress-tensor-Voigt (kbar):     -130.22     -307.19     -332.47       98.90       28.94       64.74
Target enthalpy (eV/cell)    -2905.8869

siesta: Stress tensor (static) (eV/Ang**3):
        -0.081274    0.061726    0.040407
         0.061726   -0.191734    0.018066
         0.040407    0.018066   -0.207509

siesta: Pressure (static):        256.62677871  kBar

siesta: Stress tensor (total) (eV/Ang**3):
        -0.081274    0.061726    0.040407
         0.061726   -0.191734    0.018066
         0.040407    0.018066   -0.207509

siesta: Pressure (total):        256.62677871  kBar

* Maximum dynamic memory allocated =    13 MB

siesta:                 ==============================
                            Begin CG move =      6
                        ==============================

outcoor: Atomic coordinates (fractional):                   
   -0.00000056   -0.00000054   -0.00000083   1       1  Mg
    0.49999966    0.49999995    0.49999979   1       2  Mg
    0.24999135    0.24999142    0.24999159   2       3  C
   -0.25000827   -0.25000903   -0.25000861   2       4  C
    0.56346155   -0.06346092    0.24999993   3       5  O
    0.24999889    0.56345998   -0.06346243   3       6  O
   -0.06345998    0.25000204    0.56346236   3       7  O
   -0.56346194    0.06346030   -0.25000106   3       8  O
   -0.25000018   -0.56346179    0.06346093   3       9  O
    0.06346065   -0.25000100   -0.56346211   3      10  O

siesta: k-grid: Number of k-points =   280
siesta: k-grid: Cutoff (effective) =    16.324 Ang
siesta: k-grid: Supercell and displacements
siesta: k-grid:   -8   8   0      0.500
siesta: k-grid:    0   8  -8      0.500
siesta: k-grid:    0   7   0      0.000
Naive supercell factors:     5    5    5

superc: Internal auxiliary supercell:     5 x     5 x     5  =     125
superc: Number of atoms, orbitals, and projectors:   1250  4250 10000

outcell: Unit cell vectors (Ang):
        4.660197   -0.160265   -0.104912
        2.988011    3.579789   -0.104912
        2.988011    1.335944    3.322826

outcell: Cell vector modules (Ang)   :    4.664132    4.664130    4.664132
outcell: Cell angles (23,13,12) (deg):     52.1041     52.1041     52.1041
outcell: Cell volume (Ang**3)        :     58.4311

InitMesh: MESH =    30 x    30 x    30 =       27000
InitMesh: Mesh cutoff (required, used) =   100.000   153.929 Ry

siesta: Eharris(eV) =   -2962.575623


siesta: Eharris(eV) =   -2962.575623


siesta: Atomic forces (eV/Ang):
     1   -0.000062   -0.000243    0.000120
     2   -0.000195   -0.000337   -0.000196
     3    0.000626    0.000306    0.000124
     4    0.000614    0.000356    0.000162
     5    0.784470   -1.755543   -0.000045
     6   -0.000330    1.053157   -1.608785
     7   -0.785291    0.702343    1.608540
     8   -0.784953    1.755278   -0.000155
     9   -0.000232   -1.053220    1.608872
    10    0.784741   -0.702357   -1.608885
----------------------------------------
   Tot   -0.000612   -0.000261   -0.000247
----------------------------------------
   Max    1.755543
   Res    0.859933    sqrt( Sum f_i^2 / 3N )
----------------------------------------
   Max    1.755543    constrained

Stress-tensor-Voigt (kbar):     -189.70     -334.82     -355.56       81.09       23.73       53.08
Target enthalpy (eV/cell)    -2905.6213

siesta: Stress tensor (static) (eV/Ang**3):
        -0.118400    0.050615    0.033132
         0.050615   -0.208974    0.014812
         0.033132    0.014812   -0.221922

siesta: Pressure (static):        293.35936055  kBar

siesta: Stress tensor (total) (eV/Ang**3):
        -0.118400    0.050615    0.033132
         0.050615   -0.208974    0.014812
         0.033132    0.014812   -0.221922

siesta: Pressure (total):        293.35936055  kBar

* Maximum dynamic memory allocated =    13 MB

siesta:                 ==============================
                            Begin CG move =      7
                        ==============================

outcoor: Atomic coordinates (fractional):                   
   -0.00000633   -0.00001235   -0.00000793   1       1  Mg
    0.49999221    0.49998792    0.49998742   1       2  Mg
    0.24994150    0.24994321    0.24994360   2       3  C
   -0.25005404   -0.25006043   -0.25005758   2       4  C
    0.56915457   -0.06917438    0.24998792   3       5  O
    0.24997859    0.56914687   -0.06918212   3       6  O
   -0.06917026    0.25001004    0.56915879   3       7  O
   -0.56917452    0.06915100   -0.25001702   3       8  O
   -0.25000970   -0.56917712    0.06915863   3       9  O
    0.06915672   -0.25001443   -0.56917827   3      10  O

siesta: k-grid: Number of k-points =   256
siesta: k-grid: Cutoff (effective) =    16.108 Ang
siesta: k-grid: Supercell and displacements
siesta: k-grid:   -8   8   0      0.500
siesta: k-grid:    0   8  -8      0.500
siesta: k-grid:    0   8   0      0.500
Naive supercell factors:     5    5    5

superc: Internal auxiliary supercell:     5 x     5 x     5  =     125
superc: Number of atoms, orbitals, and projectors:   1250  4250 10000

outcell: Unit cell vectors (Ang):
        4.237205   -0.311101   -0.203649
        2.593550    3.365113   -0.203644
        2.593552    1.159573    3.165638

outcell: Cell vector modules (Ang)   :    4.253488    4.253464    4.253514
outcell: Cell angles (23,13,12) (deg):     56.5068     56.5069     56.5064
outcell: Cell volume (Ang**3)        :     50.0218

InitMesh: MESH =    24 x    24 x    24 =       13824
InitMesh: Mesh cutoff (required, used) =   100.000   125.480 Ry

siesta: Eharris(eV) =   -2953.397497


siesta: Eharris(eV) =   -2953.397497


siesta: Atomic forces (eV/Ang):
     1   -0.003849   -0.002566   -0.000515
     2   -0.001930   -0.002133   -0.000804
     3    0.002670    0.001601    0.000638
     4    0.003154    0.000933    0.000795
     5   -0.652621    1.455561   -0.001776
     6   -0.001331   -0.872785    1.335192
     7    0.647560   -0.583533   -1.334693
     8    0.650752   -1.457744   -0.001334
     9   -0.002782    0.874141   -1.335046
    10   -0.651914    0.582485    1.334826
----------------------------------------
   Tot   -0.010292   -0.004040   -0.002718
----------------------------------------
   Max    1.457744
   Res    0.713475    sqrt( Sum f_i^2 / 3N )
----------------------------------------
   Max    1.457744    constrained

Stress-tensor-Voigt (kbar):    -1310.14    -1115.30    -1087.61     -108.85      -31.88      -71.24
Target enthalpy (eV/cell)    -2898.7117

siesta: Stress tensor (static) (eV/Ang**3):
        -0.817716   -0.067937   -0.044465
        -0.067937   -0.696105   -0.019899
        -0.044465   -0.019899   -0.678828

siesta: Pressure (static):       1171.01610059  kBar

siesta: Stress tensor (total) (eV/Ang**3):
        -0.817716   -0.067937   -0.044465
        -0.067937   -0.696105   -0.019899
        -0.044465   -0.019899   -0.678828

siesta: Pressure (total):       1171.01610059  kBar
Cycling the Broyden process...

* Maximum dynamic memory allocated =    13 MB

siesta:                 ==============================
                            Begin CG move =      8
                        ==============================

outcoor: Atomic coordinates (fractional):                   
   -0.00000899   -0.00001290   -0.00000943   1       1  Mg
    0.49999330    0.49998961    0.49999012   1       2  Mg
    0.24997617    0.24997751    0.24997716   2       3  C
   -0.25002096   -0.25002458   -0.25002302   2       4  C
    0.56923958   -0.06925288    0.24999053   3       5  O
    0.24998776    0.56923781   -0.06925464   3       6  O
   -0.06925417    0.25000020    0.56923989   3       7  O
   -0.56925117    0.06923783   -0.25001054   3       8  O
   -0.25000902   -0.56925420    0.06924042   3       9  O
    0.06924128   -0.25000765   -0.56925323   3      10  O

siesta: k-grid: Number of k-points =   280
siesta: k-grid: Cutoff (effective) =    15.313 Ang
siesta: k-grid: Supercell and displacements
siesta: k-grid:   -8   8   0      0.500
siesta: k-grid:    0   8  -8      0.500
siesta: k-grid:    0   7   0      0.000
Naive supercell factors:     5    5    5

superc: Internal auxiliary supercell:     5 x     5 x     5  =     125
superc: Number of atoms, orbitals, and projectors:   1250  4250 10000

outcell: Unit cell vectors (Ang):
        4.366138   -0.233232   -0.152677
        2.737553    3.409287   -0.152674
        2.737553    1.223961    3.185705

outcell: Cell vector modules (Ang)   :    4.375028    4.375014    4.375042
outcell: Cell angles (23,13,12) (deg):     54.2588     54.2589     54.2586
outcell: Cell volume (Ang**3)        :     51.2813

InitMesh: MESH =    24 x    24 x    24 =       13824
InitMesh: Mesh cutoff (required, used) =   100.000   115.073 Ry

siesta: Eharris(eV) =   -2955.215124


siesta: Eharris(eV) =   -2955.215124


siesta: Atomic forces (eV/Ang):
     1    0.001578    0.000653    0.000349
     2    0.000456    0.000260    0.000191
     3    0.000606    0.000611    0.000441
     4    0.001002   -0.000046    0.000136
     5   -0.073789    0.162906   -0.000132
     6   -0.000316   -0.097028    0.149450
     7    0.072562   -0.065962   -0.149834
     8    0.072529   -0.162370   -0.000441
     9   -0.000880    0.097702   -0.149554
    10   -0.073747    0.065159    0.149084
----------------------------------------
   Tot    0.000001    0.001883   -0.000311
----------------------------------------
   Max    0.162906
   Res    0.079844    sqrt( Sum f_i^2 / 3N )
----------------------------------------
   Max    0.162906    constrained

Stress-tensor-Voigt (kbar):    -1041.34    -1079.02    -1084.23       20.96        6.16       13.75
Target enthalpy (eV/cell)    -2900.5529

siesta: Stress tensor (static) (eV/Ang**3):
        -0.649949    0.013079    0.008580
         0.013079   -0.673465    0.003844
         0.008580    0.003844   -0.676718

siesta: Pressure (static):       1068.19941185  kBar

siesta: Stress tensor (total) (eV/Ang**3):
        -0.649949    0.013079    0.008580
         0.013079   -0.673465    0.003844
         0.008580    0.003844   -0.676718

siesta: Pressure (total):       1068.19941185  kBar
Cycling the Broyden process...

* Maximum dynamic memory allocated =    13 MB

siesta:                 ==============================
                            Begin CG move =      9
                        ==============================

outcoor: Atomic coordinates (fractional):                   
   -0.00000859   -0.00001392   -0.00000939   1       1  Mg
    0.49999230    0.49998747    0.49998814   1       2  Mg
    0.24996946    0.24997177    0.24997139   2       3  C
   -0.25002588   -0.25003147   -0.25002916   2       4  C
    0.56704853   -0.06706941    0.24998614   3       5  O
    0.24998303    0.56704868   -0.06707041   3       6  O
   -0.06707027    0.24999892    0.56704929   3       7  O
   -0.56706652    0.06704862   -0.25001463   3       8  O
   -0.25001345   -0.56707095    0.06705031   3       9  O
    0.06705103   -0.25001129   -0.56707005   3      10  O

siesta: k-grid: Number of k-points =   280
siesta: k-grid: Cutoff (effective) =    15.356 Ang
siesta: k-grid: Supercell and displacements
siesta: k-grid:   -8   8   0      0.500
siesta: k-grid:    0   8  -8      0.500
siesta: k-grid:    0   7   0      0.000
Naive supercell factors:     5    5    5

superc: Internal auxiliary supercell:     5 x     5 x     5  =     125
superc: Number of atoms, orbitals, and projectors:   1250  4250 10000

outcell: Unit cell vectors (Ang):
        4.377434   -0.246294   -0.161230
        2.735352    3.426423   -0.161226
        2.735350    1.222979    3.204829

outcell: Cell vector modules (Ang)   :    4.387321    4.387313    4.387340
outcell: Cell angles (23,13,12) (deg):     54.5799     54.5799     54.5796
outcell: Cell volume (Ang**3)        :     52.1716

InitMesh: MESH =    24 x    24 x    24 =       13824
InitMesh: Mesh cutoff (required, used) =   100.000   114.912 Ry

siesta: Eharris(eV) =   -2956.510427


siesta: Eharris(eV) =   -2956.510427


siesta: Atomic forces (eV/Ang):
     1   -0.000292    0.000113   -0.000320
     2   -0.000348    0.000154    0.000092
     3    0.001412    0.000880    0.000424
     4    0.001591    0.000513    0.000410
     5    0.109495   -0.242460   -0.000352
     6    0.000407    0.145934   -0.222408
     7   -0.107606    0.096775    0.223101
     8   -0.109970    0.244953    0.000590
     9    0.000330   -0.144988    0.222934
    10    0.109365   -0.096845   -0.222240
----------------------------------------
   Tot    0.004383    0.005030    0.002230
----------------------------------------
   Max    0.244953
   Res    0.119137    sqrt( Sum f_i^2 / 3N )
----------------------------------------
   Max    0.244953    constrained

Stress-tensor-Voigt (kbar):     -902.30     -919.84     -922.20        9.86        2.84        6.42
Target enthalpy (eV/cell)    -2901.6824

siesta: Stress tensor (static) (eV/Ang**3):
        -0.563166    0.006152    0.004009
         0.006152   -0.574115    0.001774
         0.004009    0.001774   -0.575589

siesta: Pressure (static):        914.78316847  kBar

siesta: Stress tensor (total) (eV/Ang**3):
        -0.563166    0.006152    0.004009
         0.006152   -0.574115    0.001774
         0.004009    0.001774   -0.575589

siesta: Pressure (total):        914.78316847  kBar
Cycling the Broyden process...

* Maximum dynamic memory allocated =    13 MB

siesta:                 ==============================
                            Begin CG move =     10
                        ==============================

outcoor: Atomic coordinates (fractional):                   
   -0.00000974   -0.00001477   -0.00001082   1       1  Mg
    0.49999100    0.49998664    0.49998730   1       2  Mg
    0.24997098    0.24997388    0.24997321   2       3  C
   -0.25002369   -0.25002992   -0.25002737   2       4  C
    0.56791390   -0.06793093    0.24998673   3       5  O
    0.24998326    0.56791261   -0.06793330   3       6  O
   -0.06793155    0.24999989    0.56791472   3       7  O
   -0.56793413    0.06791345   -0.25001487   3       8  O
   -0.25001317   -0.56793294    0.06791519   3       9  O
    0.06791611   -0.25000996   -0.56793186   3      10  O

siesta: k-grid: Number of k-points =   280
siesta: k-grid: Cutoff (effective) =    15.244 Ang
siesta: k-grid: Supercell and displacements
siesta: k-grid:   -8   8   0      0.500
siesta: k-grid:    0   8  -8      0.500
siesta: k-grid:    0   7   0      0.000
Naive supercell factors:     5    5    5

superc: Internal auxiliary supercell:     5 x     5 x     5  =     125
superc: Number of atoms, orbitals, and projectors:   1250  4250 10000

outcell: Unit cell vectors (Ang):
        4.344834   -0.254521   -0.166612
        2.707483    3.407603   -0.166605
        2.707484    1.210519    3.189728

outcell: Cell vector modules (Ang)   :    4.355471    4.355454    4.355478
outcell: Cell angles (23,13,12) (deg):     54.8405     54.8406     54.8404
outcell: Cell volume (Ang**3)        :     51.4057

InitMesh: MESH =    24 x    24 x    24 =       13824
InitMesh: Mesh cutoff (required, used) =   100.000   117.002 Ry

siesta: Eharris(eV) =   -2955.476436


siesta: Eharris(eV) =   -2955.476436


siesta: Atomic forces (eV/Ang):
     1    0.000533    0.000493    0.000601
     2    0.000911    0.000197    0.000456
     3    0.002027    0.000756    0.000617
     4    0.001698    0.001750    0.000469
     5   -0.059700    0.132298    0.001766
     6    0.001005   -0.080871    0.120085
     7    0.057236   -0.053047   -0.121788
     8    0.059583   -0.133328    0.001772
     9    0.000847    0.077909   -0.122085
    10   -0.059481    0.055194    0.120123
----------------------------------------
   Tot    0.004660    0.001350    0.002015
----------------------------------------
   Max    0.133328
   Res    0.064881    sqrt( Sum f_i^2 / 3N )
----------------------------------------
   Max    0.133328    constrained

Stress-tensor-Voigt (kbar):    -1009.64    -1019.51    -1021.08        5.63        1.61        3.64
Target enthalpy (eV/cell)    -2900.8132

siesta: Stress tensor (static) (eV/Ang**3):
        -0.630159    0.003511    0.002273
         0.003511   -0.636324    0.001003
         0.002273    0.001003   -0.637299

siesta: Pressure (static):       1016.74255311  kBar

siesta: Stress tensor (total) (eV/Ang**3):
        -0.630159    0.003511    0.002273
         0.003511   -0.636324    0.001003
         0.002273    0.001003   -0.637299

siesta: Pressure (total):       1016.74255311  kBar
Cycling the Broyden process...

* Maximum dynamic memory allocated =    13 MB

siesta:                 ==============================
                            Begin CG move =     11
                        ==============================

outcoor: Atomic coordinates (fractional):                   
   -0.00001029   -0.00001518   -0.00001045   1       1  Mg
    0.49999206    0.49998695    0.49998824   1       2  Mg
    0.24997387    0.24997661    0.24997604   2       3  C
   -0.25002143   -0.25002608   -0.25002456   2       4  C
    0.56710664   -0.06712626    0.24998819   3       5  O
    0.24998485    0.56710498   -0.06712958   3       6  O
   -0.06713052    0.24999722    0.56710510   3       7  O
   -0.56712828    0.06710567   -0.25001289   3       8  O
   -0.25001162   -0.56712878    0.06710816   3       9  O
    0.06710946   -0.25000665   -0.56712705   3      10  O

siesta: k-grid: Number of k-points =   280
siesta: k-grid: Cutoff (effective) =    15.264 Ang
siesta: k-grid: Supercell and displacements
siesta: k-grid:   -8   8   0      0.500
siesta: k-grid:    0   8  -8      0.500
siesta: k-grid:    0   7   0      0.000
Naive supercell factors:     5    5    5

superc: Internal auxiliary supercell:     5 x     5 x     5  =     125
superc: Number of atoms, orbitals, and projectors:   1250  4250 10000

outcell: Unit cell vectors (Ang):
        4.350360   -0.256348   -0.167802
        2.709806    3.412917   -0.167792
        2.709811    1.211553    3.195096

outcell: Cell vector modules (Ang)   :    4.361136    4.361101    4.361144
outcell: Cell angles (23,13,12) (deg):     54.8793     54.8794     54.8792
outcell: Cell volume (Ang**3)        :     51.6603

InitMesh: MESH =    24 x    24 x    24 =       13824
InitMesh: Mesh cutoff (required, used) =   100.000   116.758 Ry

siesta: Eharris(eV) =   -2955.841794


siesta: Eharris(eV) =   -2955.841794


siesta: Atomic forces (eV/Ang):
     1   -0.000036    0.000257   -0.000234
     2   -0.000725    0.000127   -0.000117
     3    0.001055    0.000611    0.000610
     4    0.001085    0.000630    0.000181
     5    0.053151   -0.116901    0.000781
     6    0.006663    0.073705   -0.108422
     7   -0.050846    0.047609    0.107823
     8   -0.047647    0.121938    0.002854
     9    0.000875   -0.070445    0.107442
    10    0.052737   -0.045722   -0.107970
----------------------------------------
   Tot    0.016313    0.011810    0.002947
----------------------------------------
   Max    0.121938
   Res    0.057847    sqrt( Sum f_i^2 / 3N )
----------------------------------------
   Max    0.121938    constrained

Stress-tensor-Voigt (kbar):     -968.62     -980.97     -982.43        6.61        1.97        4.55
Target enthalpy (eV/cell)    -2901.1756

siesta: Stress tensor (static) (eV/Ang**3):
        -0.604559    0.004124    0.002840
         0.004124   -0.612270    0.001232
         0.002840    0.001232   -0.613176

siesta: Pressure (static):        977.34080577  kBar

siesta: Stress tensor (total) (eV/Ang**3):
        -0.604559    0.004124    0.002840
         0.004124   -0.612270    0.001232
         0.002840    0.001232   -0.613176

siesta: Pressure (total):        977.34080577  kBar
Cycling the Broyden process...

* Maximum dynamic memory allocated =    13 MB

siesta:                 ==============================
                            Begin CG move =     12
                        ==============================

outcoor: Atomic coordinates (fractional):                   
   -0.00001056   -0.00001531   -0.00001085   1       1  Mg
    0.49999104    0.49998629    0.49998739   1       2  Mg
    0.24997416    0.24997705    0.24997666   2       3  C
   -0.25002103   -0.25002567   -0.25002427   2       4  C
    0.56715587   -0.06717422    0.24998916   3       5  O
    0.24999181    0.56716112   -0.06717334   3       6  O
   -0.06717742    0.24999908    0.56715532   3       7  O
   -0.56717185    0.06716147   -0.25000603   3       8  O
   -0.25001090   -0.56717698    0.06715721   3       9  O
    0.06715825   -0.25000575   -0.56717561   3      10  O

siesta: k-grid: Number of k-points =   280
siesta: k-grid: Cutoff (effective) =    15.253 Ang
siesta: k-grid: Supercell and displacements
siesta: k-grid:   -8   8   0      0.500
siesta: k-grid:    0   8  -8      0.500
siesta: k-grid:    0   7   0      0.000
Naive supercell factors:     5    5    5

superc: Internal auxiliary supercell:     5 x     5 x     5  =     125
superc: Number of atoms, orbitals, and projectors:   1250  4250 10000

outcell: Unit cell vectors (Ang):
        4.347148   -0.257664   -0.168678
        2.706683    3.411426   -0.168665
        2.706679    1.210165    3.194055

outcell: Cell vector modules (Ang)   :    4.358043    4.358028    4.358050
outcell: Cell angles (23,13,12) (deg):     54.9184     54.9187     54.9183
outcell: Cell volume (Ang**3)        :     51.6053

InitMesh: MESH =    24 x    24 x    24 =       13824
InitMesh: Mesh cutoff (required, used) =   100.000   116.985 Ry

siesta: Eharris(eV) =   -2955.769182


siesta: Eharris(eV) =   -2955.769182


siesta: Atomic forces (eV/Ang):
     1    0.001522    0.001448   -0.000498
     2    0.000874    0.001770    0.000398
     3    0.000656    0.000547    0.000242
     4    0.000631    0.000643    0.000049
     5    0.038511   -0.087485    0.000397
     6   -0.001133    0.050142   -0.081481
     7   -0.038928    0.034570    0.079628
     8   -0.041340    0.085845    0.001142
     9   -0.000253   -0.052900    0.079622
    10    0.038089   -0.034528   -0.080106
----------------------------------------
   Tot   -0.001372    0.000052   -0.000606
----------------------------------------
   Max    0.087485
   Res    0.042673    sqrt( Sum f_i^2 / 3N )
----------------------------------------
   Max    0.087485    constrained

Stress-tensor-Voigt (kbar):     -975.85     -985.88     -987.16        5.53        1.67        3.63
Target enthalpy (eV/cell)    -2901.1112

siesta: Stress tensor (static) (eV/Ang**3):
        -0.609073    0.003449    0.002268
         0.003449   -0.615331    0.001040
         0.002268    0.001040   -0.616131

siesta: Pressure (static):        982.96454881  kBar

siesta: Stress tensor (total) (eV/Ang**3):
        -0.609073    0.003449    0.002268
         0.003449   -0.615331    0.001040
         0.002268    0.001040   -0.616131

siesta: Pressure (total):        982.96454881  kBar
Cycling the Broyden process...

* Maximum dynamic memory allocated =    13 MB

siesta:                 ==============================
                            Begin CG move =     13
                        ==============================

outcoor: Atomic coordinates (fractional):                   
   -0.00000790   -0.00001139   -0.00000919   1       1  Mg
    0.49999210    0.49998973    0.49998958   1       2  Mg
    0.24997472    0.24997809    0.24997759   2       3  C
   -0.25002044   -0.25002452   -0.25002372   2       4  C
    0.56729144   -0.06731181    0.24998912   3       5  O
    0.24999201    0.56729521   -0.06731346   3       6  O
   -0.06731343    0.24999937    0.56729166   3       7  O
   -0.56731134    0.06729500   -0.25000591   3       8  O
   -0.25001123   -0.56731483    0.06729266   3       9  O
    0.06729284   -0.25000619   -0.56731357   3      10  O

siesta: k-grid: Number of k-points =   224
siesta: k-grid: Cutoff (effective) =    15.227 Ang
siesta: k-grid: Supercell and displacements
siesta: k-grid:    8  -8   0      0.500
siesta: k-grid:    0   8  -8      0.500
siesta: k-grid:    7   0   0      0.000
Naive supercell factors:     5    5    5

superc: Internal auxiliary supercell:     5 x     5 x     5  =     125
superc: Number of atoms, orbitals, and projectors:   1250  4250 10000

outcell: Unit cell vectors (Ang):
        4.339505   -0.260686   -0.170662
        2.699335    3.407764   -0.170652
        2.699326    1.206883    3.191473

outcell: Cell vector modules (Ang)   :    4.350676    4.350677    4.350681
outcell: Cell angles (23,13,12) (deg):     55.0087     55.0090     55.0086
outcell: Cell volume (Ang**3)        :     51.4690

InitMesh: MESH =    24 x    24 x    24 =       13824
InitMesh: Mesh cutoff (required, used) =   100.000   117.522 Ry

siesta: Eharris(eV) =   -2955.586062


siesta: Eharris(eV) =   -2955.586062


siesta: Atomic forces (eV/Ang):
     1   -0.000977   -0.000064   -0.000592
     2   -0.000963    0.000088   -0.000322
     3    0.005163    0.002394    0.001129
     4    0.004926    0.002646    0.001598
     5   -0.003496    0.007002   -0.000551
     6   -0.001292   -0.005007    0.006174
     7    0.002865   -0.003704   -0.006630
     8    0.002043   -0.008071   -0.000297
     9    0.016861    0.003551   -0.009024
    10   -0.003669    0.002487    0.006841
----------------------------------------
   Tot    0.021462    0.001321   -0.001675
----------------------------------------
   Max    0.016861
   Res    0.005087    sqrt( Sum f_i^2 / 3N )
----------------------------------------
   Max    0.016861    constrained

Stress-tensor-Voigt (kbar):    -1020.73    -1009.34    -1007.47       -7.10       -2.03       -4.76
Target enthalpy (eV/cell)    -2900.9478

siesta: Stress tensor (static) (eV/Ang**3):
        -0.637085   -0.004430   -0.002971
        -0.004430   -0.629976   -0.001267
        -0.002971   -0.001267   -0.628809

siesta: Pressure (static):       1012.51725539  kBar

siesta: Stress tensor (total) (eV/Ang**3):
        -0.637085   -0.004430   -0.002971
        -0.004430   -0.629976   -0.001267
        -0.002971   -0.001267   -0.628809

siesta: Pressure (total):       1012.51725539  kBar
Cycling the Broyden process...

* Maximum dynamic memory allocated =    13 MB

siesta:                 ==============================
                            Begin CG move =     14
                        ==============================

outcoor: Atomic coordinates (fractional):                   
   -0.00000803   -0.00001151   -0.00000931   1       1  Mg
    0.49999198    0.49998959    0.49998944   1       2  Mg
    0.24997532    0.24997867    0.24997814   2       3  C
   -0.25001988   -0.25002394   -0.25002313   2       4  C
    0.56731790   -0.06733821    0.24998906   3       5  O
    0.24999196    0.56732173   -0.06733977   3       6  O
   -0.06733979    0.24999931    0.56731813   3       7  O
   -0.56733762    0.06732151   -0.25000597   3       8  O
   -0.25000916   -0.56733995    0.06732017   3       9  O
    0.06731929   -0.25000629   -0.56733995   3      10  O

siesta: k-grid: Number of k-points =   224
siesta: k-grid: Cutoff (effective) =    15.230 Ang
siesta: k-grid: Supercell and displacements
siesta: k-grid:    8  -8   0      0.500
siesta: k-grid:    0   8  -8      0.500
siesta: k-grid:    7   0   0      0.000
Naive supercell factors:     5    5    5

superc: Internal auxiliary supercell:     5 x     5 x     5  =     125
superc: Number of atoms, orbitals, and projectors:   1250  4250 10000

outcell: Unit cell vectors (Ang):
        4.340234   -0.260229   -0.170362
        2.700162    3.408009   -0.170352
        2.700153    1.207255    3.191578

outcell: Cell vector modules (Ang)   :    4.351364    4.351370    4.351374
outcell: Cell angles (23,13,12) (deg):     54.9958     54.9960     54.9957
outcell: Cell volume (Ang**3)        :     51.4757

InitMesh: MESH =    24 x    24 x    24 =       13824
InitMesh: Mesh cutoff (required, used) =   100.000   117.464 Ry

siesta: Eharris(eV) =   -2955.594274


siesta: Eharris(eV) =   -2955.594274


siesta: Atomic forces (eV/Ang):
     1   -0.000823    0.000265   -0.000541
     2   -0.000811    0.000283   -0.000052
     3    0.000845    0.000433   -0.000176
     4    0.000558    0.000684    0.000325
     5   -0.004823    0.009996   -0.000495
     6   -0.001101   -0.006826    0.008790
     7    0.004294   -0.004815   -0.009193
     8    0.003379   -0.011067   -0.000295
     9   -0.000810    0.005895   -0.009401
    10   -0.005066    0.003710    0.009463
----------------------------------------
   Tot   -0.004357   -0.001441   -0.001574
----------------------------------------
   Max    0.011067
   Res    0.005050    sqrt( Sum f_i^2 / 3N )
----------------------------------------
   Max    0.011067    constrained

Stress-tensor-Voigt (kbar):    -1014.72    -1005.44    -1004.07       -5.22       -1.52       -3.41
Target enthalpy (eV/cell)    -2900.9519

siesta: Stress tensor (static) (eV/Ang**3):
        -0.633334   -0.003258   -0.002128
        -0.003258   -0.627537   -0.000946
        -0.002128   -0.000946   -0.626684

siesta: Pressure (static):       1008.07640499  kBar

siesta: Stress tensor (total) (eV/Ang**3):
        -0.633334   -0.003258   -0.002128
        -0.003258   -0.627537   -0.000946
        -0.002128   -0.000946   -0.626684

siesta: Pressure (total):       1008.07640499  kBar

* Maximum dynamic memory allocated =    13 MB

outcoor: Relaxed atomic coordinates (fractional):           
   -0.00000803   -0.00001151   -0.00000931   1       1  Mg
    0.49999198    0.49998959    0.49998944   1       2  Mg
    0.24997532    0.24997867    0.24997814   2       3  C
   -0.25001988   -0.25002394   -0.25002313   2       4  C
    0.56731790   -0.06733821    0.24998906   3       5  O
    0.24999196    0.56732173   -0.06733977   3       6  O
   -0.06733979    0.24999931    0.56731813   3       7  O
   -0.56733762    0.06732151   -0.25000597   3       8  O
   -0.25000916   -0.56733995    0.06732017   3       9  O
    0.06731929   -0.25000629   -0.56733995   3      10  O

outcell: Unit cell vectors (Ang):
        4.340234   -0.260229   -0.170362
        2.700162    3.408009   -0.170352
        2.700153    1.207255    3.191578

outcell: Cell vector modules (Ang)   :    4.351364    4.351370    4.351374
outcell: Cell angles (23,13,12) (deg):     54.9958     54.9960     54.9957
outcell: Cell volume (Ang**3)        :     51.4757

siesta: Program's energy decomposition (eV):
siesta: Eions   =      5228.674091
siesta: Ena     =      1067.405361
siesta: Ekin    =      2502.771441
siesta: Enl     =      -410.867356
siesta: DEna    =      -141.891730
siesta: DUscf   =        27.614045
siesta: DUext   =         0.000000
siesta: Exc     =      -749.437839
siesta: eta*DQ  =         0.000000
siesta: Emadel  =         0.000000
siesta: Emeta   =         0.000000
siesta: Emolmec =         0.000000
siesta: Ekinion =         0.000000
siesta: Eharris =     -2955.594274
siesta: Etot    =     -2933.080171
siesta: FreeEng =     -2933.080171

siesta: Final energy (eV):
siesta:       Kinetic =    2502.771441
siesta:       Hartree =     684.233534
siesta:    Ext. field =       0.000000
siesta:   Exch.-corr. =    -749.437839
siesta:  Ion-electron =   -3545.284188
siesta:       Ion-ion =   -1825.363118
siesta:       Ekinion =       0.000000
siesta:         Total =   -2933.080171

siesta: Stress tensor (static) (eV/Ang**3):
siesta:    -0.633334   -0.003258   -0.002128
siesta:    -0.003258   -0.627537   -0.000946
siesta:    -0.002128   -0.000946   -0.626684

siesta: Constrained stress tensor (static) (eV/Ang**3):
siesta:    -0.633334   -0.003258   -0.002128
siesta:    -0.003258   -0.627537   -0.000946
siesta:    -0.002128   -0.000946   -0.626684

siesta: Cell volume =         51.475658 Ang**3

siesta: Pressure (static):
siesta:                Solid            Molecule  Units
siesta:           0.00685263          0.00685863  Ry/Bohr**3
siesta:           0.62918500          0.62973582  eV/Ang**3
siesta:        1008.07640499       1008.95891949  kBar

* Maximum dynamic memory allocated : Node    0 =    13 MB

* Maximum memory occured during ranger                        

timer: CPU execution times:
timer:  Routine       Calls   Time/call    Tot.time        %
timer:  siesta            1     136.557     136.557   100.00
timer:  Setup             1       0.806       0.806     0.59
timer:  bands             1       0.000       0.000     0.00
timer:  writewave         1       0.001       0.001     0.00
timer:  KSV_init          1       0.000       0.000     0.00
timer:  IterMD           15       9.046     135.689    99.36
timer:  hsparse          18       0.559      10.061     7.37
timer:  overfsm          30       0.016       0.472     0.35
timer:  IterSCF          30       3.895     116.840    85.56
timer:  kinefsm          30       0.014       0.431     0.32
timer:  nlefsm           30       0.786      23.571    17.26
timer:  DHSCF            30       1.318      39.536    28.95
timer:  DHSCF1           15       0.324       4.853     3.55
timer:  DHSCF2           15       1.071      16.072    11.77
timer:  REORD           270       0.000       0.022     0.02
timer:  POISON           45       0.007       0.309     0.23
timer:  DHSCF3           30       0.275       8.261     6.05
timer:  rhoofd           30       0.107       3.218     2.36
timer:  cellXC           45       0.015       0.655     0.48
timer:  vmat             30       0.145       4.345     3.18
timer:  diagon           15       3.517      52.760    38.64
timer:  cdiag          7316       0.004      26.916    19.71
timer:  cdiag1         7316       0.000       1.158     0.85
timer:  cdiag2         7316       0.001       4.503     3.30
timer:  cdiag3         7316       0.003      20.176    14.77
timer:  cdiag4         7316       0.000       0.757     0.55
timer:  MolMec           30       0.000       0.003     0.00
timer:  DHSCF4           15       0.689      10.337     7.57
timer:  dfscf            15       0.446       6.689     4.90
timer:  optical           1       0.001       0.001     0.00
  

elaps: ELAPSED times:
elaps:  Routine       Calls   Time/call    Tot.time        %
elaps:  siesta            1     136.555     136.555   100.00
elaps:  Setup             1       0.806       0.806     0.59
elaps:  bands             1       0.000       0.000     0.00
elaps:  writewave         1       0.000       0.000     0.00
elaps:  KSV_init          1       0.000       0.000     0.00
elaps:  IterMD           15       9.046     135.687    99.36
elaps:  hsparse          18       0.559      10.061     7.37
elaps:  overfsm          30       0.016       0.473     0.35
elaps:  IterSCF          30       3.895     116.836    85.56
elaps:  kinefsm          30       0.014       0.432     0.32
elaps:  nlefsm           30       0.786      23.569    17.26
elaps:  DHSCF            30       1.318      39.540    28.96
elaps:  DHSCF1           15       0.324       4.853     3.55
elaps:  DHSCF2           15       1.072      16.073    11.77
elaps:  REORD           270       0.000       0.022     0.02
elaps:  POISON           45       0.007       0.306     0.22
elaps:  DHSCF3           30       0.275       8.262     6.05
elaps:  rhoofd           30       0.107       3.216     2.36
elaps:  cellXC           45       0.015       0.659     0.48
elaps:  vmat             30       0.145       4.349     3.18
elaps:  diagon           15       3.517      52.757    38.63
elaps:  cdiag          7316       0.004      26.868    19.68
elaps:  cdiag1         7316       0.000       1.183     0.87
elaps:  cdiag2         7316       0.001       4.433     3.25
elaps:  cdiag3         7316       0.003      20.179    14.78
elaps:  cdiag4         7316       0.000       0.769     0.56
elaps:  MolMec           30       0.000       0.000     0.00
elaps:  DHSCF4           15       0.689      10.338     7.57
elaps:  dfscf            15       0.446       6.689     4.90
elaps:  optical           1       0.000       0.000     0.00
  
>> End of run:  25-JAN-2007  17:40:53
