Siesta Version: siesta-4.0--527
Architecture  : x86_64-linux-n-62-18-14
Compiler flags: mpifort -m64 -fPIC -O3 -march=native -ftree-vectorize -fexpensive-optimizatioons -funroll-loops -fprefetch-loop-arrays -fno-second-underscore 
PP flags      : -I/zdata/groups/common/nicpa/2016-oct/generic/build-tools/1.0/include -I/zdatta/groups/common/nicpa/2016-oct/generic/gmp/6.1.0/include -I/zdata/groups/common/nicpa/2016-oct/generic/mpfr/3.1.4/include -I/zdata/groups/common/nicpa/2016-oct/generic/mpc/1.0.3/include -I/zdata/groups/common/nicpa/2016-oct/generic/isl/0.16.1/include -I/zdata/groups/common/nicpa/2016-oct/generic/gcc/6.2.0/include -I/zdata/groups/common/nicpa/2016-oct/generic/numactl/2.0.11/include -I/zdata/groups/common/nicpa/2016-oct/XeonE5-2665/zlib/1.2.8/gnu-6.2.0/include -I/zdata/groups/common/nicpa/2016-oct/XeonE5-2665/libxml2/2.9.4/gnu-6.2.0/include -I/zdata/groups/common/nicpa/2016-oct/XeonE5-2665/hwloc/1.11.4/gnu-6.2.0/include -I/zdata/groups/common/nicpa/2016-oct/XeonE5-2665/openmpi/2.0.1/gnu-6.2.0/include -I/zdata/groups/common/nicpa/2016-oct/XeonE5-2665/hdf5/1.8.17/gnu-6.2.0/include -I/zdata/groups/common/nicpa/2016-oct/XeonE5-2665/pnetcdf/1.7.0/gnu-6.2.0/include -I/zdata/groups/common/nicpa/2016-oct/XeonE5-2665/netcdf/4.4.1/gnu-6.2.0/include -I/zdata/groups/common/nicpa/2016-oct/XeonE5-2665/flook/0.7.0/gnu-6.2.0/include -I/zdata/groups/common/nicpa/2016-oct/XeonE5-2665/parmetis/4.0.3/gnu-6.2.0/include -I/zdata/groups/common/nicpa/2016-oct/XeonE5-2665/scalapack/204/gnu-6.2.0/include -I/zdata/groups/common/nicpa/2016-oct/XeonE5-2665/openblas/0.2.19/gnu-6.2.0/include -I/zdata/groups/common/nicpa/2016-oct/XeonE5-2665/mumps/5.0.2/gnu-6.2.0/include -I/zdata/groups/common/nicpa/2016-oct/XeonE5-2665/fftw/3.3.5/gnu-6.2.0/include -DMPI -DFC_HAVE_FLUSH -DFC_HAVE_ABORT -DCDF  -DSIESTA__METIS -DSIESTA__MUMPS -DTS_NOCHECKS -DSIESTA__FLOOK  
PARALLEL version
NetCDF support

* Running on    8 nodes in parallel
>> Start of run:   2-JUL-2017  11:47:49

                           ***********************       
                           *  WELCOME TO SIESTA  *       
                           ***********************       

reinit: Reading from standard input
************************** Dump of input data file ****************************
#
# MgCO3 in primitive cell. SZ. Variable cell. Harris. Broyden Optim
#
SystemName	MgCo3 R-3c Harris -- SZ, 100 R -- variable cell at 100 Gpa
SystemLabel	var_cell
NumberOfSpecies		3
NumberOfAtoms	       10
%block ChemicalSpeciesLabel
      1      12     Mg
      2       6     C
      3       8     O
%endblock ChemicalSpeciesLabel
PAO.BasisSize  SZ
Diag.Divide-and-Conquer F
# Rhombohedral primitive cell
# (HEX 3-fold cell had A=4.635 and C=15.023, so alpha=48.179 degrees
#  and a=5.67783 Ang)
LatticeConstant     5.67783 Ang
%block LatticeParameters
1.0 1.0 1.0 48.179 48.179 48.179
%endblock LatticeParameters
AtomicCoordinatesFormat    Fractional
%block AtomicCoordinatesAndAtomicSpecies
  0.0         0.0         0.0      1
  0.5         0.5         0.5      1
  0.25        0.25        0.25     2
 -0.25       -0.25       -0.25     2
  0.5274     -0.0274      0.25     3
  0.25        0.5274     -0.0274   3
 -0.0274      0.25        0.5274   3
 -0.5274      0.0274     -0.25     3
 -0.25       -0.5274      0.0274   3
  0.0274     -0.25       -0.5274   3
%endblock AtomicCoordinatesAndAtomicSpecies
kgrid_cutoff 15.0 Ang
Solution.Method       diagon
MeshCutoff             100 Ry
DM.NumberBroyden       4
DM.UseSaveDM           T
DM.MixingWeight        0.1         # New DM amount for next SCF cycle
DM.Tolerance           1.d-3       # Tolerance in maximum difference
                                   # between input and output DM
MaxSCFIterations       20
WriteCoorStep      .true.
WriteForces        .true.
HarrisFunctional T
MD.TypeOfRun         Broyden
MD.Variable-Cell      T
MD.Target-pressure   100.0 GPa
MD.Num-CG-steps	     30
MD.Max-Stress-Tol    2.0 GPa
MD.Broyden.Initial.Inverse.Jacobian 1.0
MD.Broyden.History.Steps 6
************************** End of input data file *****************************

reinit: -----------------------------------------------------------------------
reinit: System Name: MgCo3 R-3c Harris -- SZ, 100 R -- variable cell at 100 Gpa
reinit: -----------------------------------------------------------------------
reinit: System Label: var_cell                                                    
reinit: -----------------------------------------------------------------------

initatom: Reading input for the pseudopotentials and atomic orbitals ----------
 Species number:            1  Label: Mg Atomic number:          12
 Species number:            2  Label: C Atomic number:           6
 Species number:            3  Label: O Atomic number:           8
Ground state valence configuration:   3s02
Reading pseudopotential information in formatted form from Mg.psf

Valence configuration for pseudopotential generation:
3s( 2.00) rc: 2.59
3p( 0.00) rc: 2.59
3d( 0.00) rc: 2.59
4f( 0.00) rc: 2.59
Ground state valence configuration:   2s02  2p02
Reading pseudopotential information in formatted form from C.psf

Valence configuration for pseudopotential generation:
2s( 2.00) rc: 1.49
2p( 2.00) rc: 1.52
3d( 0.00) rc: 1.58
Ground state valence configuration:   2s02  2p04
Reading pseudopotential information in formatted form from O.psf

Valence configuration for pseudopotential generation:
2s( 2.00) rc: 1.14
2p( 4.00) rc: 1.14
3d( 0.00) rc: 1.14
4f( 0.00) rc: 1.14
For Mg, standard SIESTA heuristics set lmxkb to 1
 (one more than the basis l, including polarization orbitals).
Use PS.lmax or PS.KBprojectors blocks to override.
For C, standard SIESTA heuristics set lmxkb to 2
 (one more than the basis l, including polarization orbitals).
Use PS.lmax or PS.KBprojectors blocks to override.
For O, standard SIESTA heuristics set lmxkb to 2
 (one more than the basis l, including polarization orbitals).
Use PS.lmax or PS.KBprojectors blocks to override.

<basis_specs>
===============================================================================
Mg                   Z=  12    Mass=  24.310        Charge= 0.17977+309
Lmxo=0 Lmxkb= 1    BasisType=split      Semic=F
L=0  Nsemic=0  Cnfigmx=3
          n=1  nzeta=1  polorb=0
            splnorm:   0.15000    
               vcte:    0.0000    
               rinn:    0.0000    
               qcoe:    0.0000    
               qyuk:    0.0000    
               qwid:   0.10000E-01
                rcs:    0.0000    
            lambdas:    1.0000    
-------------------------------------------------------------------------------
L=0  Nkbl=1  erefs: 0.17977+309
L=1  Nkbl=1  erefs: 0.17977+309
===============================================================================
</basis_specs>

atom: Called for Mg                    (Z =  12)

read_vps: Pseudopotential generation method:
read_vps: ATM3      Troullier-Martins                       
Total valence charge:    2.00000

xc_check: Exchange-correlation functional:
xc_check: Ceperley-Alder
V l=0 = -2*Zval/r beyond r=  3.5878
V l=1 = -2*Zval/r beyond r=  3.5878
All V_l potentials equal beyond r=  2.5600
This should be close to max(r_c) in ps generation
All pots = -2*Zval/r beyond r=  3.5878
Using large-core scheme for Vlocal

atom: Estimated core radius    3.58779

atom: Including non-local core corrections could be a good idea
atom: Maximum radius for 4*pi*r*r*local-pseudopot. charge    3.91588
atom: Maximum radius for r*vlocal+2*Zval:    3.63292
GHOST: No ghost state for L =  0
GHOST: No ghost state for L =  1

KBgen: Kleinman-Bylander projectors: 
   l= 0   rc=  2.657845   el= -0.351328   Ekb=  2.184400   kbcos=  0.257081
   l= 1   rc=  2.657845   el= -0.101748   Ekb=  0.525536   kbcos=  0.270508

KBgen: Total number of  Kleinman-Bylander projectors:    4
atom: -------------------------------------------------------------------------

atom: SANKEY-TYPE ORBITALS:

SPLIT: Orbitals with angular momentum L= 0

SPLIT: Basis orbitals for state 3s

SPLIT: PAO cut-off radius determined from an
SPLIT: energy shift=  0.020000 Ry

   izeta = 1
                 lambda =    1.000000
                     rc =    6.619780
                 energy =   -0.332103
                kinetic =    0.289627
    potential(screened) =   -0.621729
       potential(ionic) =   -1.387191
atom: Total number of Sankey-type orbitals:  1

atm_pop: Valence configuration (for local Pseudopot. screening):
 3s( 2.00)                                                            
Vna: chval, zval:    2.00000   2.00000

Vna:  Cut-off radius for the neutral-atom potential:   6.619780

atom: _________________________________________________________________________

<basis_specs>
===============================================================================
C                    Z=   6    Mass=  12.010        Charge= 0.17977+309
Lmxo=1 Lmxkb= 2    BasisType=split      Semic=F
L=0  Nsemic=0  Cnfigmx=2
          n=1  nzeta=1  polorb=0
            splnorm:   0.15000    
               vcte:    0.0000    
               rinn:    0.0000    
               qcoe:    0.0000    
               qyuk:    0.0000    
               qwid:   0.10000E-01
                rcs:    0.0000    
            lambdas:    1.0000    
L=1  Nsemic=0  Cnfigmx=2
          n=1  nzeta=1  polorb=0
            splnorm:   0.15000    
               vcte:    0.0000    
               rinn:    0.0000    
               qcoe:    0.0000    
               qyuk:    0.0000    
               qwid:   0.10000E-01
                rcs:    0.0000    
            lambdas:    1.0000    
-------------------------------------------------------------------------------
L=0  Nkbl=1  erefs: 0.17977+309
L=1  Nkbl=1  erefs: 0.17977+309
L=2  Nkbl=1  erefs: 0.17977+309
===============================================================================
</basis_specs>

atom: Called for C                     (Z =   6)

read_vps: Pseudopotential generation method:
read_vps: ATM3      Troullier-Martins                       
Total valence charge:    4.00000

xc_check: Exchange-correlation functional:
xc_check: Ceperley-Alder
V l=0 = -2*Zval/r beyond r=  1.4666
V l=1 = -2*Zval/r beyond r=  1.5038
V l=2 = -2*Zval/r beyond r=  1.5612
All V_l potentials equal beyond r=  1.5612
This should be close to max(r_c) in ps generation
All pots = -2*Zval/r beyond r=  1.5612

VLOCAL1: 99.0% of the norm of Vloc inside     17.809 Ry
VLOCAL1: 99.9% of the norm of Vloc inside     40.586 Ry
atom: Maximum radius for 4*pi*r*r*local-pseudopot. charge    1.88329
atom: Maximum radius for r*vlocal+2*Zval:    1.62091
GHOST: No ghost state for L =  0
GHOST: No ghost state for L =  1
GHOST: No ghost state for L =  2

KBgen: Kleinman-Bylander projectors: 
   l= 0   rc=  1.747182   el= -1.001947   Ekb=  5.181700   kbcos=  0.300603
   l= 1   rc=  1.747182   el= -0.398598   Ekb= -4.328763   kbcos= -0.367074
   l= 2   rc=  1.955272   el=  0.002326   Ekb= -1.016175   kbcos= -0.009979

KBgen: Total number of  Kleinman-Bylander projectors:    9
atom: -------------------------------------------------------------------------

atom: SANKEY-TYPE ORBITALS:

SPLIT: Orbitals with angular momentum L= 0

SPLIT: Basis orbitals for state 2s

SPLIT: PAO cut-off radius determined from an
SPLIT: energy shift=  0.020000 Ry

   izeta = 1
                 lambda =    1.000000
                     rc =    4.191849
                 energy =   -0.983897
                kinetic =    0.886956
    potential(screened) =   -1.870853
       potential(ionic) =   -5.479661

SPLIT: Orbitals with angular momentum L= 1

SPLIT: Basis orbitals for state 2p

SPLIT: PAO cut-off radius determined from an
SPLIT: energy shift=  0.020000 Ry

   izeta = 1
                 lambda =    1.000000
                     rc =    4.870301
                 energy =   -0.379093
                kinetic =    2.545357
    potential(screened) =   -2.924450
       potential(ionic) =   -6.433151
atom: Total number of Sankey-type orbitals:  4

atm_pop: Valence configuration (for local Pseudopot. screening):
 2s( 2.00)                                                            
 2p( 2.00)                                                            
Vna: chval, zval:    4.00000   4.00000

Vna:  Cut-off radius for the neutral-atom potential:   4.870301

atom: _________________________________________________________________________

<basis_specs>
===============================================================================
O                    Z=   8    Mass=  16.000        Charge= 0.17977+309
Lmxo=1 Lmxkb= 2    BasisType=split      Semic=F
L=0  Nsemic=0  Cnfigmx=2
          n=1  nzeta=1  polorb=0
            splnorm:   0.15000    
               vcte:    0.0000    
               rinn:    0.0000    
               qcoe:    0.0000    
               qyuk:    0.0000    
               qwid:   0.10000E-01
                rcs:    0.0000    
            lambdas:    1.0000    
L=1  Nsemic=0  Cnfigmx=2
          n=1  nzeta=1  polorb=0
            splnorm:   0.15000    
               vcte:    0.0000    
               rinn:    0.0000    
               qcoe:    0.0000    
               qyuk:    0.0000    
               qwid:   0.10000E-01
                rcs:    0.0000    
            lambdas:    1.0000    
-------------------------------------------------------------------------------
L=0  Nkbl=1  erefs: 0.17977+309
L=1  Nkbl=1  erefs: 0.17977+309
L=2  Nkbl=1  erefs: 0.17977+309
===============================================================================
</basis_specs>

atom: Called for O                     (Z =   8)

read_vps: Pseudopotential generation method:
read_vps: ATM3      Troullier-Martins                       
Total valence charge:    6.00000

xc_check: Exchange-correlation functional:
xc_check: Ceperley-Alder
V l=0 = -2*Zval/r beyond r=  1.1278
V l=1 = -2*Zval/r beyond r=  1.1278
V l=2 = -2*Zval/r beyond r=  1.1278
All V_l potentials equal beyond r=  1.1278
This should be close to max(r_c) in ps generation
All pots = -2*Zval/r beyond r=  1.1278

VLOCAL1: 99.0% of the norm of Vloc inside     34.126 Ry
VLOCAL1: 99.9% of the norm of Vloc inside     77.774 Ry
atom: Maximum radius for 4*pi*r*r*local-pseudopot. charge    1.37759
atom: Maximum radius for r*vlocal+2*Zval:    1.18566
GHOST: No ghost state for L =  0
GHOST: No ghost state for L =  1
GHOST: No ghost state for L =  2

KBgen: Kleinman-Bylander projectors: 
   l= 0   rc=  1.294105   el= -1.742414   Ekb=  9.135903   kbcos=  0.326910
   l= 1   rc=  1.294105   el= -0.676589   Ekb= -8.124878   kbcos= -0.395047
   l= 2   rc=  1.448233   el=  0.002386   Ekb= -2.039267   kbcos= -0.003484

KBgen: Total number of  Kleinman-Bylander projectors:    9
atom: -------------------------------------------------------------------------

atom: SANKEY-TYPE ORBITALS:

SPLIT: Orbitals with angular momentum L= 0

SPLIT: Basis orbitals for state 2s

SPLIT: PAO cut-off radius determined from an
SPLIT: energy shift=  0.020000 Ry

   izeta = 1
                 lambda =    1.000000
                     rc =    3.305093
                 energy =   -1.723766
                kinetic =    1.614911
    potential(screened) =   -3.338677
       potential(ionic) =  -11.304675

SPLIT: Orbitals with angular momentum L= 1

SPLIT: Basis orbitals for state 2p

SPLIT: PAO cut-off radius determined from an
SPLIT: energy shift=  0.020000 Ry

   izeta = 1
                 lambda =    1.000000
                     rc =    3.937239
                 energy =   -0.658841
                kinetic =    5.005986
    potential(screened) =   -5.664827
       potential(ionic) =  -13.452360
atom: Total number of Sankey-type orbitals:  4

atm_pop: Valence configuration (for local Pseudopot. screening):
 2s( 2.00)                                                            
 2p( 4.00)                                                            
Vna: chval, zval:    6.00000   6.00000

Vna:  Cut-off radius for the neutral-atom potential:   3.937239

atom: _________________________________________________________________________

prinput: Basis input ----------------------------------------------------------

PAO.BasisType split     

%block ChemicalSpeciesLabel
    1   12 Mg                      # Species index, atomic number, species label
    2    6 C                       # Species index, atomic number, species label
    3    8 O                       # Species index, atomic number, species label
%endblock ChemicalSpeciesLabel

%block PAO.Basis                 # Define Basis set
Mg                    1                    # Species label, number of l-shells
 n=3   0   1                         # n, l, Nzeta 
   6.620   
   1.000   
C                     2                    # Species label, number of l-shells
 n=2   0   1                         # n, l, Nzeta 
   4.192   
   1.000   
 n=2   1   1                         # n, l, Nzeta 
   4.870   
   1.000   
O                     2                    # Species label, number of l-shells
 n=2   0   1                         # n, l, Nzeta 
   3.305   
   1.000   
 n=2   1   1                         # n, l, Nzeta 
   3.937   
   1.000   
%endblock PAO.Basis

prinput: ----------------------------------------------------------------------

Dumping basis to NetCDF file Mg.ion.nc
Dumping basis to NetCDF file C.ion.nc
Dumping basis to NetCDF file O.ion.nc
coor:   Atomic-coordinates input format  =     Fractional

siesta: Atomic coordinates (Bohr) and species
siesta:      0.00000   0.00000   0.00000  1        1
siesta:     12.51930   5.59740   3.66414  1        2
siesta:      6.25965   2.79870   1.83207  2        3
siesta:     -6.25965  -2.79870  -1.83207  2        4
siesta:      7.25136   0.58061   1.83207  3        5
siesta:      6.25965   4.12944  -0.20079  3        6
siesta:      5.26794   3.68605   3.86493  3        7
siesta:     -7.25136  -0.58061  -1.83207  3        8
siesta:     -6.25965  -4.12944   0.20079  3        9
siesta:     -5.26794  -3.68605  -3.86493  3       10

siesta: System type = bulk      

initatomlists: Number of atoms, orbitals, and projectors:     10    34    80

siesta: ******************** Simulation parameters ****************************
siesta:
siesta: The following are some of the parameters of the simulation.
siesta: A complete list of the parameters used, including default values,
siesta: can be found in file out.fdf
siesta:
redata: Non-Collinear-spin run           =     F
redata: SpinPolarized (Up/Down) run      =     F
redata: Number of spin components        =     1
redata: Long output                      =     F
redata: Number of Atomic Species         =        3
redata: Charge density info will appear in .RHO file
redata: Write Mulliken Pop.              =     NO
redata: Mesh Cutoff                      =   100.0000  Ry
redata: Net charge of the system         =     0.0000 |e|
redata: Min. number of SCF Iter          =        0
redata: Max. number of SCF Iter          =       20
redata: Mix DM or H after convergence    =     F
redata: Recompute H after scf cycle      =     F
redata: Broyden mixing with     4 saved histories.
redata: Mix DM in first SCF step ?       =     F
redata: Write Pulay info on disk?        =     F
redata: Discard 1st Pulay DM after  kick =     F
redata: New DM Mixing Weight             =     0.1000
redata: New DM Occupancy tolerance       = 0.000000000001
redata: No kicks to SCF
redata: DM Mixing Weight for Kicks       =     0.5000
redata: DM Tolerance for SCF             =     0.001000
redata: Require (free) Energy convergence in SCF =     F
redata: DM (free)Energy tolerance for SCF =     0.000010 eV
redata: Require Harris convergence for SCF =     F
redata: DM Harris energy tolerance for SCF =     0.000010 eV
redata: Using Saved Data (generic)   =     F
redata: Use continuation files for DM    =     T
redata: Neglect nonoverlap interactions  =     F
redata: Method of Calculation            =     Diagonalization
redata: Divide and Conquer               =     F
redata: Electronic Temperature           =     0.0019  Ry
redata: Fix the spin of the system       =     F
redata: Dynamics option                  =     Broyden coord. optimization
redata: Variable cell                    =     T
redata: Maximum number of CG moves       =       30
redata: Force tolerance                  =     0.0016  Ry/Bohr
redata: Stress tolerance                 =     2.0000  GPa
redata: ***********************************************************************
Total number of electrons:    48.000000
Total ionic charge:    48.000000

* ProcessorY, Blocksize:    2   4


* Orbital distribution balance (max,min):     6     4

 Kpoints in:          154 . Kpoints trimmed:          154

siesta: k-grid: Number of k-points =   154
siesta: k-grid: Cutoff (effective) =    16.222 Ang
siesta: k-grid: Supercell and displacements
siesta: k-grid:   -7   0   7      0.500
siesta: k-grid:    0  -7   7      0.000
siesta: k-grid:    0   0   6      0.000
Naive supercell factors:     4    4    4
Auxiliary supercell needs to be larger than naive one...

superc: Internal auxiliary supercell:     5 x     5 x     4  =     100
superc: Number of atoms, orbitals, and projectors:   1000   3400   8000

                     ====================================
                        Begin Broyden opt. move =      0
                     ====================================

outcoor: Atomic coordinates (fractional):                   
    0.00000000    0.00000000    0.00000000   1       1  Mg
    0.50000000    0.50000000    0.50000000   1       2  Mg
    0.25000000    0.25000000    0.25000000   2       3  C
   -0.25000000   -0.25000000   -0.25000000   2       4  C
    0.52740000   -0.02740000    0.25000000   3       5  O
    0.25000000    0.52740000   -0.02740000   3       6  O
   -0.02740000    0.25000000    0.52740000   3       7  O
   -0.52740000    0.02740000   -0.25000000   3       8  O
   -0.25000000   -0.52740000    0.02740000   3       9  O
    0.02740000   -0.25000000   -0.52740000   3      10  O

superc: Internal auxiliary supercell:     5 x     5 x     4  =     100
superc: Number of atoms, orbitals, and projectors:   1000   3400   8000

outcell: Unit cell vectors (Ang):
        5.677830    0.000000    0.000000
        3.786009    4.231299    0.000000
        3.786009    1.692731    3.877957

outcell: Cell vector modules (Ang)   :    5.677830    5.677830    5.677830
outcell: Cell angles (23,13,12) (deg):     48.1790     48.1790     48.1790
outcell: Cell volume (Ang**3)        :     93.1663
New_DM. Step:     1
Initializing Density Matrix...
New grid distribution:   1
           1       1:   16    1:    8    1:    4
           2       1:   16    1:    8    5:    8
           3       1:   16    1:    8    9:   12
           4       1:   16    1:    8   13:   16
           5       1:   16    9:   16    1:    4
           6       1:   16    9:   16    5:    8
           7       1:   16    9:   16    9:   12
           8       1:   16    9:   16   13:   16

InitMesh: MESH =    32 x    32 x    32 =       32768
InitMesh: (bp) =    16 x    16 x    16 =        4096
InitMesh: Mesh cutoff (required, used) =   100.000   112.857 Ry
ExtMesh (bp) on 0 =    76 x    68 x    64 =      330752
New grid distribution:   2
           1       8:   16    1:    8    1:    8
           2       9:   16    9:   16    1:    8
           3       1:    8    1:    8    9:   16
           4       1:    7    1:    8    1:    8
           5       9:   16    1:    8    9:   16
           6       1:    8    9:   16    1:    8
           7       1:    9    9:   16    9:   16
           8      10:   16    9:   16    9:   16
New grid distribution:   3
           1       1:    8    9:   16    9:   16
           2       9:   16    1:    8    1:    8
           3       9:   16    1:    8    9:   16
           4       9:   16    9:   16    1:    8
           5       1:    8    1:    8    9:   16
           6       1:    8    1:    8    1:    8
           7       9:   16    9:   16    9:   16
           8       1:    8    9:   16    1:    8
Setting up quadratic distribution...
ExtMesh (bp) on 0 =    69 x    68 x    68 =      319056
PhiOnMesh: Number of (b)points on node 0 =                  576
PhiOnMesh: nlist on node 0 =                12062

stepf: Fermi-Dirac step function

siesta: Program's energy decomposition (eV):
siesta: Ebs     =      -700.301948
siesta: Eions   =      5228.674091
siesta: Ena     =      1092.429444
siesta: Ekin    =      2100.835149
siesta: Enl     =      -258.044678
siesta: DEna    =        -0.000017
siesta: DUscf   =         0.000000
siesta: DUext   =         0.000000
siesta: Exc     =      -683.847186
siesta: eta*DQ  =         0.000000
siesta: Emadel  =         0.000000
siesta: Emeta   =         0.000000
siesta: Emolmec =         0.000000
siesta: Ekinion =         0.000000
siesta: Eharris =     -2966.326653
siesta: Etot    =     -2977.301380
siesta: FreeEng =     -2977.301380

siesta: Eharris(eV) =   -2966.326653


siesta: Eharris(eV) =   -2966.326653

 Broyden: No of relevant DM elements:         9610
 maxit for broyden:            4
 cycle on maxit:  T
 variable weight:  T
 initial alpha:   0.10000000000000001     
timer: Routine,Calls,Time,% =    IterSCF     1       1.282  60.82
SCF_NOT_CONV: SCF did not converge in maximum number of steps.
Geom step, scf iteration, dmax:   0  1    1.752607

Using DM_out to compute the final energy and forces

siesta: E_KS - E_eggbox =     -2949.8288

siesta: Atomic forces (eV/Ang):
     1   -0.000000   -0.000000    0.000000
     2   -0.000000    0.000000    0.000000
     3    0.000000   -0.000001    0.000001
     4   -0.000000    0.000001   -0.000001
     5    2.760285   -6.173729   -0.000000
     6    0.000000    3.703929   -5.658182
     7   -2.760285    2.469801    5.658181
     8   -2.760285    6.173729    0.000000
     9   -0.000000   -3.703929    5.658182
    10    2.760285   -2.469801   -5.658181
----------------------------------------
   Tot   -0.000000   -0.000000   -0.000000
----------------------------------------
   Max    6.173729
   Res    3.024371    sqrt( Sum f_i^2 / 3N )
----------------------------------------
   Max    6.173729    constrained

Stress-tensor-Voigt (kbar):      567.99      382.09      355.54      103.89       30.41       68.01
(Free)E + p*V (eV/cell)    -2975.1357
Target enthalpy (eV/cell)    -2891.6795

siesta: Stress tensor (static) (eV/Ang**3):
         0.354511    0.064841    0.042446
         0.064841    0.238476    0.018978
         0.042446    0.018978    0.221909

siesta: Pressure (static):       -435.20680256  kBar

siesta: Stress tensor (total) (eV/Ang**3):
         0.354511    0.064841    0.042446
         0.064841    0.238476    0.018978
         0.042446    0.018978    0.221909

siesta: Pressure (total):       -435.20680256  kBar

Broyden_optim: max_history for broyden:   6
Broyden_optim: cycle on maxit: T
Broyden_optim: initial inverse jacobian:   1.0000

Broyden_optim: No of elements:     36

Broyden_optim: No target stress found, assuming hydrostatic MD.TargetPressure.

Broyden_optim: Target stress (kBar)
Broyden_optim:     -1000.000       0.000       0.000
Broyden_optim:         0.000   -1000.000       0.000
Broyden_optim:         0.000       0.000   -1000.000

                     ====================================
                        Begin Broyden opt. move =      1
                     ====================================

outcoor: Atomic coordinates (fractional):                   
   -0.00000000   -0.00000000    0.00000000   1       1  Mg
    0.50000000    0.50000000    0.50000000   1       2  Mg
    0.25000000    0.25000000    0.25000000   2       3  C
   -0.25000000   -0.25000000   -0.25000000   2       4  C
    0.53740574   -0.03740574    0.25000000   3       5  O
    0.25000000    0.53740574   -0.03740574   3       6  O
   -0.03740575    0.25000000    0.53740574   3       7  O
   -0.53740574    0.03740574   -0.25000000   3       8  O
   -0.25000000   -0.53740574    0.03740574   3       9  O
    0.03740575   -0.25000000   -0.53740574   3      10  O
 Kpoints in:          168 . Kpoints trimmed:          168

siesta: k-grid: Number of k-points =   168
siesta: k-grid: Cutoff (effective) =    15.185 Ang
siesta: k-grid: Supercell and displacements
siesta: k-grid:    0   7  -7      0.500
siesta: k-grid:   -7   0   7      0.000
siesta: k-grid:    0   6   0      0.000
Naive supercell factors:     4    4    4
Auxiliary supercell needs to be larger than naive one...

superc: Internal auxiliary supercell:     5 x     5 x     4  =     100
superc: Number of atoms, orbitals, and projectors:   1000   3400   8000

outcell: Unit cell vectors (Ang):
        5.251635   -0.028238   -0.018485
        3.480776    3.932513   -0.018485
        3.480776    1.556261    3.611517

outcell: Cell vector modules (Ang)   :    5.251743    5.251743    5.251743
outcell: Cell angles (23,13,12) (deg):     48.7948     48.7948     48.7948
outcell: Cell volume (Ang**3)        :     75.2462
New_DM. Step:     2
Initializing Density Matrix...
New grid distribution:   1
           1       1:   15    1:    8    1:    4
           2       1:   15    1:    8    5:    8
           3       1:   15    1:    8    9:   12
           4       1:   15    1:    8   13:   15
           5       1:   15    9:   15    1:    4
           6       1:   15    9:   15    5:    8
           7       1:   15    9:   15    9:   12
           8       1:   15    9:   15   13:   15

InitMesh: MESH =    30 x    30 x    30 =       27000
InitMesh: (bp) =    15 x    15 x    15 =        3375
InitMesh: Mesh cutoff (required, used) =   100.000   116.744 Ry
ExtMesh (bp) on 0 =    75 x    68 x    64 =      326400
New grid distribution:   2
           1       1:    8    9:   15    8:   15
           2       8:   15    1:    7    1:    7
           3       8:   15    1:    8    8:   15
           4       1:    7    8:   15    1:    7
           5       1:    7    1:    8    8:   15
           6       8:   15    8:   15    1:    7
           7       9:   15    9:   15    8:   15
           8       1:    7    1:    7    1:    7
New grid distribution:   3
           1       1:    8    1:    8    1:    8
           2       9:   15    9:   15    1:    8
           3       1:    8    1:    8    9:   15
           4       9:   15    1:    8    9:   15
           5       1:    8    9:   15    1:    8
           6       9:   15    1:    8    1:    8
           7       1:    8    9:   15    9:   15
           8       9:   15    9:   15    9:   15
Setting up quadratic distribution...
ExtMesh (bp) on 0 =    68 x    67 x    68 =      309808
PhiOnMesh: Number of (b)points on node 0 =                  448
PhiOnMesh: nlist on node 0 =                11596

siesta: Eharris(eV) =   -2965.796811


siesta: Eharris(eV) =   -2965.796811

SCF_NOT_CONV: SCF did not converge in maximum number of steps.
Geom step, scf iteration, dmax:   1  1    1.785392

Using DM_out to compute the final energy and forces

siesta: Atomic forces (eV/Ang):
     1    0.000000   -0.000000    0.000000
     2    0.000000    0.000000   -0.000000
     3   -0.000000    0.000000   -0.000001
     4    0.000000   -0.000000    0.000001
     5    3.774812   -8.442847    0.000000
     6   -0.000000    5.065285   -7.737812
     7   -3.774812    3.377562    7.737813
     8   -3.774812    8.442847   -0.000000
     9    0.000000   -5.065285    7.737812
    10    3.774812   -3.377562   -7.737813
----------------------------------------
   Tot   -0.000000   -0.000000    0.000000
----------------------------------------
   Max    8.442847
   Res    4.135961    sqrt( Sum f_i^2 / 3N )
----------------------------------------
   Max    8.442847    constrained

Stress-tensor-Voigt (kbar):      453.52       49.24       -8.48      225.91       66.12      147.88
(Free)E + p*V (eV/cell)    -2956.5877
Target enthalpy (eV/cell)    -2901.8854

siesta: Stress tensor (static) (eV/Ang**3):
         0.283059    0.141001    0.092301
         0.141001    0.030734    0.041268
         0.092301    0.041268   -0.005293

siesta: Pressure (static):       -164.75942262  kBar

siesta: Stress tensor (total) (eV/Ang**3):
         0.283059    0.141001    0.092301
         0.141001    0.030734    0.041268
         0.092301    0.041268   -0.005293

siesta: Pressure (total):       -164.75942262  kBar

                     ====================================
                        Begin Broyden opt. move =      2
                     ====================================

outcoor: Atomic coordinates (fractional):                   
    0.00000000   -0.00000000    0.00000000   1       1  Mg
    0.50000000    0.50000000    0.50000000   1       2  Mg
    0.25000000    0.25000000    0.25000000   2       3  C
   -0.25000000   -0.25000000   -0.25000000   2       4  C
    0.56751368   -0.06751367    0.25000000   3       5  O
    0.25000000    0.56751367   -0.06751367   3       6  O
   -0.06751368    0.25000000    0.56751367   3       7  O
   -0.56751368    0.06751367   -0.25000000   3       8  O
   -0.25000000   -0.56751367    0.06751367   3       9  O
    0.06751368   -0.25000000   -0.56751367   3      10  O
 Kpoints in:          280 . Kpoints trimmed:          280

siesta: k-grid: Number of k-points =   280
siesta: k-grid: Cutoff (effective) =    15.757 Ang
siesta: k-grid: Supercell and displacements
siesta: k-grid:    0   8  -8      0.500
siesta: k-grid:   -8   8   0      0.500
siesta: k-grid:    0   7   0      0.000
Naive supercell factors:     5    5    5

superc: Internal auxiliary supercell:     5 x     5 x     5  =     125
superc: Number of atoms, orbitals, and projectors:   1250   4250  10000

outcell: Unit cell vectors (Ang):
        4.501575   -0.144815   -0.094798
        2.893755    3.451279   -0.094798
        2.893755    1.293803    3.200998

outcell: Cell vector modules (Ang)   :    4.504901    4.504901    4.504901
outcell: Cell angles (23,13,12) (deg):     51.8518     51.8518     51.8518
outcell: Cell volume (Ang**3)        :     52.2564
New_DM. Step:     3
DM reset as supercell changed.
Initializing Density Matrix...
New grid distribution:   1
           1       1:   12    1:    6    1:    3
           2       1:   12    1:    6    4:    6
           3       1:   12    1:    6    7:    9
           4       1:   12    1:    6   10:   12
           5       1:   12    7:   12    1:    3
           6       1:   12    7:   12    4:    6
           7       1:   12    7:   12    7:    9
           8       1:   12    7:   12   10:   12

InitMesh: MESH =    24 x    24 x    24 =       13824
InitMesh: (bp) =    12 x    12 x    12 =        1728
InitMesh: Mesh cutoff (required, used) =   100.000   105.274 Ry
ExtMesh (bp) on 0 =    64 x    58 x    55 =      204160
New grid distribution:   2
           1       1:    6    7:   12    7:   12
           2       7:   12    1:    6    1:    6
           3       7:   12    1:    6    7:   12
           4       7:   12    7:   12    1:    6
           5       1:    6    1:    6    7:   12
           6       1:    6    1:    6    1:    6
           7       7:   12    7:   12    7:   12
           8       1:    6    7:   12    1:    6
New grid distribution:   3
           1       1:    6    7:   12    7:   12
           2       7:   12    1:    6    1:    6
           3       7:   12    1:    6    7:   12
           4       7:   12    7:   12    1:    6
           5       1:    6    1:    6    7:   12
           6       1:    6    1:    6    1:    6
           7       7:   12    7:   12    7:   12
           8       1:    6    7:   12    1:    6
Setting up quadratic distribution...
ExtMesh (bp) on 0 =    58 x    58 x    58 =      195112
PhiOnMesh: Number of (b)points on node 0 =                  216
PhiOnMesh: nlist on node 0 =                 8347

siesta: Eharris(eV) =   -2956.021852


siesta: Eharris(eV) =   -2956.021852

SCF_NOT_CONV: SCF did not converge in maximum number of steps.
Geom step, scf iteration, dmax:   2  1    1.860557

Using DM_out to compute the final energy and forces

siesta: Atomic forces (eV/Ang):
     1   -0.000000    0.000000   -0.000000
     2    0.000000   -0.000000    0.000000
     3   -0.000001   -0.000000    0.000002
     4    0.000001    0.000000   -0.000002
     5    1.024315   -2.291016    0.000001
     6    0.000000    1.374496   -2.099701
     7   -1.024315    0.916522    2.099700
     8   -1.024315    2.291016   -0.000001
     9   -0.000000   -1.374496    2.099701
    10    1.024315   -0.916522   -2.099700
----------------------------------------
   Tot    0.000000    0.000000    0.000000
----------------------------------------
   Max    2.291016
   Res    1.122317    sqrt( Sum f_i^2 / 3N )
----------------------------------------
   Max    2.291016    constrained

Stress-tensor-Voigt (kbar):     -908.64    -1196.62    -1237.73      160.92       47.10      105.34
(Free)E + p*V (eV/cell)    -2897.9860
Target enthalpy (eV/cell)    -2901.7149

siesta: Stress tensor (static) (eV/Ang**3):
        -0.567121    0.100440    0.065749
         0.100440   -0.746860    0.029397
         0.065749    0.029397   -0.772524

siesta: Pressure (static):       1114.32877410  kBar

siesta: Stress tensor (total) (eV/Ang**3):
        -0.567121    0.100440    0.065749
         0.100440   -0.746860    0.029397
         0.065749    0.029397   -0.772524

siesta: Pressure (total):       1114.32877410  kBar

                     ====================================
                        Begin Broyden opt. move =      3
                     ====================================

outcoor: Atomic coordinates (fractional):                   
   -0.00000000   -0.00000000   -0.00000000   1       1  Mg
    0.50000000    0.50000000    0.50000000   1       2  Mg
    0.25000000    0.25000000    0.25000000   2       3  C
   -0.25000000   -0.25000000   -0.25000000   2       4  C
    0.56782832   -0.06782832    0.25000000   3       5  O
    0.25000000    0.56782832   -0.06782832   3       6  O
   -0.06782832    0.25000001    0.56782833   3       7  O
   -0.56782832    0.06782832   -0.25000000   3       8  O
   -0.25000000   -0.56782832    0.06782832   3       9  O
    0.06782832   -0.25000001   -0.56782833   3      10  O
 Kpoints in:          280 . Kpoints trimmed:          280

siesta: k-grid: Number of k-points =   280
siesta: k-grid: Cutoff (effective) =    16.014 Ang
siesta: k-grid: Supercell and displacements
siesta: k-grid:    0   8  -8      0.500
siesta: k-grid:   -8   8   0      0.500
siesta: k-grid:    0   7   0      0.000
Naive supercell factors:     5    5    5

superc: Internal auxiliary supercell:     5 x     5 x     5  =     125
superc: Number of atoms, orbitals, and projectors:   1250   4250  10000

outcell: Unit cell vectors (Ang):
        4.571326   -0.160805   -0.105265
        2.928349    3.513923   -0.105265
        2.928349    1.309270    3.262598

outcell: Cell vector modules (Ang)   :    4.575365    4.575365    4.575365
outcell: Cell angles (23,13,12) (deg):     52.1934     52.1934     52.1934
outcell: Cell volume (Ang**3)        :     55.3036
New_DM. Step:     4
Initializing Density Matrix...
New grid distribution:   1
           1       1:   12    1:    6    1:    3
           2       1:   12    1:    6    4:    6
           3       1:   12    1:    6    7:    9
           4       1:   12    1:    6   10:   12
           5       1:   12    7:   12    1:    3
           6       1:   12    7:   12    4:    6
           7       1:   12    7:   12    7:    9
           8       1:   12    7:   12   10:   12

InitMesh: MESH =    24 x    24 x    24 =       13824
InitMesh: (bp) =    12 x    12 x    12 =        1728
InitMesh: Mesh cutoff (required, used) =   100.000   102.487 Ry
ExtMesh (bp) on 0 =    64 x    58 x    55 =      204160
New grid distribution:   2
           1       1:    6    7:   12    7:   12
           2       7:   12    1:    6    1:    6
           3       7:   12    1:    6    7:   12
           4       7:   12    7:   12    1:    6
           5       1:    6    1:    6    7:   12
           6       1:    6    1:    6    1:    6
           7       7:   12    7:   12    7:   12
           8       1:    6    7:   12    1:    6
New grid distribution:   3
           1       1:    6    7:   12    7:   12
           2       7:   12    1:    6    1:    6
           3       7:   12    1:    6    7:   12
           4       7:   12    7:   12    1:    6
           5       1:    6    1:    6    7:   12
           6       1:    6    1:    6    1:    6
           7       7:   12    7:   12    7:   12
           8       1:    6    7:   12    1:    6
Setting up quadratic distribution...
ExtMesh (bp) on 0 =    58 x    58 x    58 =      195112
PhiOnMesh: Number of (b)points on node 0 =                  216
PhiOnMesh: nlist on node 0 =                 7881

siesta: Eharris(eV) =   -2959.934737


siesta: Eharris(eV) =   -2959.934737

SCF_NOT_CONV: SCF did not converge in maximum number of steps.
Geom step, scf iteration, dmax:   3  1    1.859980

Using DM_out to compute the final energy and forces

siesta: Atomic forces (eV/Ang):
     1    0.000000    0.000000    0.000000
     2    0.000000   -0.000000   -0.000000
     3   -0.000000    0.000001   -0.000001
     4    0.000000   -0.000001    0.000001
     5    0.428527   -0.958454   -0.000001
     6   -0.000000    0.575024   -0.878417
     7   -0.428528    0.383430    0.878417
     8   -0.428527    0.958454    0.000001
     9    0.000000   -0.575024    0.878416
    10    0.428528   -0.383430   -0.878417
----------------------------------------
   Tot    0.000000   -0.000000   -0.000000
----------------------------------------
   Max    0.958454
   Res    0.469525    sqrt( Sum f_i^2 / 3N )
----------------------------------------
   Max    0.958454    constrained

Stress-tensor-Voigt (kbar):     -493.82     -616.44     -633.95       68.52       20.05       44.86
(Free)E + p*V (eV/cell)    -2918.4392
Target enthalpy (eV/cell)    -2903.9904

siesta: Stress tensor (static) (eV/Ang**3):
        -0.308215    0.042767    0.027996
         0.042767   -0.384749    0.012517
         0.027996    0.012517   -0.395676

siesta: Pressure (static):        581.40429801  kBar

siesta: Stress tensor (total) (eV/Ang**3):
        -0.308215    0.042767    0.027996
         0.042767   -0.384749    0.012517
         0.027996    0.012517   -0.395676

siesta: Pressure (total):        581.40429801  kBar

                     ====================================
                        Begin Broyden opt. move =      4
                     ====================================

outcoor: Atomic coordinates (fractional):                   
   -0.00000000   -0.00000000   -0.00000000   1       1  Mg
    0.50000000    0.50000000    0.50000000   1       2  Mg
    0.25000000    0.25000000    0.25000000   2       3  C
   -0.25000000   -0.25000000   -0.25000000   2       4  C
    0.55965730   -0.05965730    0.25000000   3       5  O
    0.25000000    0.55965730   -0.05965730   3       6  O
   -0.05965730    0.25000001    0.55965730   3       7  O
   -0.55965730    0.05965730   -0.25000000   3       8  O
   -0.25000000   -0.55965730    0.05965730   3       9  O
    0.05965730   -0.25000001   -0.55965730   3      10  O
 Kpoints in:          280 . Kpoints trimmed:          280

siesta: k-grid: Number of k-points =   280
siesta: k-grid: Cutoff (effective) =    16.549 Ang
siesta: k-grid: Supercell and displacements
siesta: k-grid:    0   8  -8      0.500
siesta: k-grid:   -8   8   0      0.500
siesta: k-grid:    0   7   0      0.000
Naive supercell factors:     5    5    5

superc: Internal auxiliary supercell:     5 x     5 x     5  =     125
superc: Number of atoms, orbitals, and projectors:   1250   4250  10000

outcell: Unit cell vectors (Ang):
        4.783656   -0.127143   -0.083229
        3.095018    3.649711   -0.083229
        3.095018    1.383788    3.378232

outcell: Cell vector modules (Ang)   :    4.786069    4.786069    4.786069
outcell: Cell angles (23,13,12) (deg):     51.2157     51.2157     51.2157
outcell: Cell volume (Ang**3)        :     61.4772
New_DM. Step:     5
Initializing Density Matrix...
New grid distribution:   1
           1       1:   15    1:    8    1:    4
           2       1:   15    1:    8    5:    8
           3       1:   15    1:    8    9:   12
           4       1:   15    1:    8   13:   15
           5       1:   15    9:   15    1:    4
           6       1:   15    9:   15    5:    8
           7       1:   15    9:   15    9:   12
           8       1:   15    9:   15   13:   15

InitMesh: MESH =    30 x    30 x    30 =       27000
InitMesh: (bp) =    15 x    15 x    15 =        3375
InitMesh: Mesh cutoff (required, used) =   100.000   144.607 Ry
ExtMesh (bp) on 0 =    79 x    72 x    68 =      386784
New grid distribution:   2
           1       1:    8    9:   15    8:   15
           2       8:   15    1:    7    1:    7
           3       8:   15    1:    8    8:   15
           4       1:    7    8:   15    1:    7
           5       1:    7    1:    8    8:   15
           6       8:   15    8:   15    1:    7
           7       9:   15    9:   15    8:   15
           8       1:    7    1:    7    1:    7
New grid distribution:   3
           1       1:    8    1:    8    1:    8
           2       9:   15    9:   15    1:    8
           3       1:    8    1:    8    9:   15
           4       9:   15    1:    8    9:   15
           5       1:    8    9:   15    1:    8
           6       9:   15    1:    8    1:    8
           7       1:    8    9:   15    9:   15
           8       9:   15    9:   15    9:   15
Setting up quadratic distribution...
ExtMesh (bp) on 0 =    72 x    71 x    72 =      368064
PhiOnMesh: Number of (b)points on node 0 =                  448
PhiOnMesh: nlist on node 0 =                14136

siesta: Eharris(eV) =   -2964.348515


siesta: Eharris(eV) =   -2964.348515

SCF_NOT_CONV: SCF did not converge in maximum number of steps.
Geom step, scf iteration, dmax:   4  1    1.837033

Using DM_out to compute the final energy and forces

siesta: Atomic forces (eV/Ang):
     1    0.000000    0.000000   -0.000000
     2   -0.000000    0.000000    0.000000
     3    0.000000    0.000001   -0.000001
     4    0.000000   -0.000001    0.000000
     5    1.255993   -2.809187   -0.000001
     6   -0.000000    1.685370   -2.574600
     7   -1.255992    1.123816    2.574600
     8   -1.255993    2.809187    0.000001
     9    0.000000   -1.685370    2.574600
    10    1.255992   -1.123816   -2.574601
----------------------------------------
   Tot   -0.000000    0.000000   -0.000000
----------------------------------------
   Max    2.809187
   Res    1.376157    sqrt( Sum f_i^2 / 3N )
----------------------------------------
   Max    2.809187    constrained

Stress-tensor-Voigt (kbar):       21.09     -171.03     -198.46      107.36       31.42       70.28
(Free)E + p*V (eV/cell)    -2940.2710
Target enthalpy (eV/cell)    -2906.3563

siesta: Stress tensor (static) (eV/Ang**3):
         0.013165    0.067006    0.043863
         0.067006   -0.106745    0.019611
         0.043863    0.019611   -0.123865

siesta: Pressure (static):        116.12975266  kBar

siesta: Stress tensor (total) (eV/Ang**3):
         0.013165    0.067006    0.043863
         0.067006   -0.106745    0.019611
         0.043863    0.019611   -0.123865

siesta: Pressure (total):        116.12975266  kBar

                     ====================================
                        Begin Broyden opt. move =      5
                     ====================================

outcoor: Atomic coordinates (fractional):                   
   -0.00000000    0.00000000    0.00000000   1       1  Mg
    0.50000000    0.50000000    0.50000000   1       2  Mg
    0.25000000    0.25000000    0.24999999   2       3  C
   -0.25000000   -0.25000000   -0.24999999   2       4  C
    0.56236958   -0.06236957    0.25000001   3       5  O
    0.25000000    0.56236957   -0.06236958   3       6  O
   -0.06236960    0.24999998    0.56236956   3       7  O
   -0.56236958    0.06236957   -0.25000001   3       8  O
   -0.25000000   -0.56236957    0.06236957   3       9  O
    0.06236959   -0.24999998   -0.56236956   3      10  O
 Kpoints in:          280 . Kpoints trimmed:          280

siesta: k-grid: Number of k-points =   280
siesta: k-grid: Cutoff (effective) =    16.403 Ang
siesta: k-grid: Supercell and displacements
siesta: k-grid:   -8   8   0      0.500
siesta: k-grid:    0   8  -8      0.500
siesta: k-grid:    0   7   0      0.000
Naive supercell factors:     5    5    5

superc: Internal auxiliary supercell:     5 x     5 x     5  =     125
superc: Number of atoms, orbitals, and projectors:   1250   4250  10000

outcell: Unit cell vectors (Ang):
        4.700612   -0.144383   -0.094515
        3.026796    3.599320   -0.094515
        3.026796    1.353286    3.336563

outcell: Cell vector modules (Ang)   :    4.703778    4.703778    4.703778
outcell: Cell angles (23,13,12) (deg):     51.6864     51.6864     51.6864
outcell: Cell volume (Ang**3)        :     59.1945
New_DM. Step:     6
Initializing Density Matrix...
New grid distribution:   1
           1       1:   15    1:    8    1:    4
           2       1:   15    1:    8    5:    8
           3       1:   15    1:    8    9:   12
           4       1:   15    1:    8   13:   15
           5       1:   15    9:   15    1:    4
           6       1:   15    9:   15    5:    8
           7       1:   15    9:   15    9:   12
           8       1:   15    9:   15   13:   15

InitMesh: MESH =    30 x    30 x    30 =       27000
InitMesh: (bp) =    15 x    15 x    15 =        3375
InitMesh: Mesh cutoff (required, used) =   100.000   150.570 Ry
ExtMesh (bp) on 0 =    79 x    72 x    68 =      386784
New grid distribution:   2
           1       9:   15    8:   15    1:    8
           2       1:    7    1:    7    1:    8
           3       1:    8    1:    8    9:   15
           4       9:   15    1:    8    9:   15
           5       1:    8    8:   15    1:    8
           6       8:   15    1:    7    1:    8
           7       1:    8    9:   15    9:   15
           8       9:   15    9:   15    9:   15
New grid distribution:   3
           1       1:    8    1:    8    1:    8
           2       9:   15    9:   15    1:    8
           3       1:    8    1:    8    9:   15
           4       9:   15    1:    8    9:   15
           5       1:    8    9:   15    1:    8
           6       9:   15    1:    8    1:    8
           7       1:    8    9:   15    9:   15
           8       9:   15    9:   15    9:   15
Setting up quadratic distribution...
ExtMesh (bp) on 0 =    71 x    72 x    72 =      368064
PhiOnMesh: Number of (b)points on node 0 =                  448
PhiOnMesh: nlist on node 0 =                14843

siesta: Eharris(eV) =   -2963.024335


siesta: Eharris(eV) =   -2963.024335

SCF_NOT_CONV: SCF did not converge in maximum number of steps.
Geom step, scf iteration, dmax:   5  1    1.845498

Using DM_out to compute the final energy and forces

siesta: Atomic forces (eV/Ang):
     1    0.000000   -0.000000   -0.000000
     2   -0.000000    0.000000   -0.000000
     3   -0.000001    0.000001    0.000003
     4    0.000001   -0.000001   -0.000002
     5    0.990216   -2.214743    0.000001
     6   -0.000000    1.328736   -2.029796
     7   -0.990213    0.886007    2.029795
     8   -0.990215    2.214742   -0.000000
     9    0.000000   -1.328734    2.029797
    10    0.990213   -0.886006   -2.029796
----------------------------------------
   Tot   -0.000000    0.000002    0.000001
----------------------------------------
   Max    2.214743
   Res    1.084952    sqrt( Sum f_i^2 / 3N )
----------------------------------------
   Max    2.214743    constrained

Stress-tensor-Voigt (kbar):     -131.65     -308.13     -333.32       98.61       28.86       64.55
(Free)E + p*V (eV/cell)    -2933.2988
Target enthalpy (eV/cell)    -2905.8738

siesta: Stress tensor (static) (eV/Ang**3):
        -0.082171    0.061549    0.040291
         0.061549   -0.192315    0.018014
         0.040291    0.018014   -0.208041

siesta: Pressure (static):        257.70010807  kBar

siesta: Stress tensor (total) (eV/Ang**3):
        -0.082171    0.061549    0.040291
         0.061549   -0.192315    0.018014
         0.040291    0.018014   -0.208041

siesta: Pressure (total):        257.70010807  kBar

                     ====================================
                        Begin Broyden opt. move =      6
                     ====================================

outcoor: Atomic coordinates (fractional):                   
    0.00000000    0.00000000   -0.00000000   1       1  Mg
    0.50000000    0.50000000    0.50000000   1       2  Mg
    0.24999999    0.25000000    0.24999998   2       3  C
   -0.24999999   -0.25000000   -0.24999998   2       4  C
    0.56321626   -0.06321622    0.25000002   3       5  O
    0.25000000    0.56321624   -0.06321625   3       6  O
   -0.06321629    0.24999995    0.56321620   3       7  O
   -0.56321626    0.06321623   -0.25000002   3       8  O
   -0.25000000   -0.56321624    0.06321625   3       9  O
    0.06321628   -0.24999995   -0.56321620   3      10  O
 Kpoints in:          224 . Kpoints trimmed:          224

siesta: k-grid: Number of k-points =   224
siesta: k-grid: Cutoff (effective) =    16.355 Ang
siesta: k-grid: Supercell and displacements
siesta: k-grid:   -8   8   0      0.500
siesta: k-grid:    0  -8   8      0.500
siesta: k-grid:    0   0   7      0.000
Naive supercell factors:     5    5    5

superc: Internal auxiliary supercell:     5 x     5 x     5  =     125
superc: Number of atoms, orbitals, and projectors:   1250   4250  10000

outcell: Unit cell vectors (Ang):
        4.668993   -0.156984   -0.102764
        2.996321    3.584160   -0.102764
        2.996321    1.339660    3.325969

outcell: Cell vector modules (Ang)   :    4.672762    4.672762    4.672762
outcell: Cell angles (23,13,12) (deg):     52.0169     52.0169     52.0169
outcell: Cell volume (Ang**3)        :     58.6048
New_DM. Step:     7
Initializing Density Matrix...
New grid distribution:   1
           1       1:   15    1:    8    1:    4
           2       1:   15    1:    8    5:    8
           3       1:   15    1:    8    9:   12
           4       1:   15    1:    8   13:   15
           5       1:   15    9:   15    1:    4
           6       1:   15    9:   15    5:    8
           7       1:   15    9:   15    9:   12
           8       1:   15    9:   15   13:   15

InitMesh: MESH =    30 x    30 x    30 =       27000
InitMesh: (bp) =    15 x    15 x    15 =        3375
InitMesh: Mesh cutoff (required, used) =   100.000   153.196 Ry
ExtMesh (bp) on 0 =    79 x    72 x    68 =      386784
New grid distribution:   2
           1       9:   15    8:   15    1:    8
           2       1:    7    1:    7    1:    8
           3       1:    8    1:    8    9:   15
           4       9:   15    1:    8    9:   15
           5       1:    8    8:   15    1:    8
           6       8:   15    1:    7    1:    8
           7       1:    8    9:   15    9:   15
           8       9:   15    9:   15    9:   15
New grid distribution:   3
           1       1:    8    1:    8    1:    8
           2       9:   15    9:   15    1:    8
           3       1:    8    1:    8    9:   15
           4       9:   15    1:    8    9:   15
           5       1:    8    9:   15    1:    8
           6       9:   15    1:    8    1:    8
           7       1:    8    9:   15    9:   15
           8       9:   15    9:   15    9:   15
Setting up quadratic distribution...
ExtMesh (bp) on 0 =    71 x    72 x    72 =      368064
PhiOnMesh: Number of (b)points on node 0 =                  448
PhiOnMesh: nlist on node 0 =                14960

siesta: Eharris(eV) =   -2962.684775


siesta: Eharris(eV) =   -2962.684775

SCF_NOT_CONV: SCF did not converge in maximum number of steps.
Geom step, scf iteration, dmax:   6  1    1.847916

Using DM_out to compute the final energy and forces

siesta: Atomic forces (eV/Ang):
     1    0.000000   -0.000000   -0.000001
     2   -0.000000    0.000001   -0.000000
     3   -0.000001    0.000002    0.000003
     4    0.000000   -0.000001   -0.000004
     5    0.829178   -1.854565    0.000003
     6    0.000002    1.112646   -1.699692
     7   -0.829170    0.741913    1.699696
     8   -0.829178    1.854564   -0.000001
     9   -0.000000   -1.112646    1.699693
    10    0.829170   -0.741913   -1.699696
----------------------------------------
   Tot    0.000001    0.000000    0.000001
----------------------------------------
   Max    1.854565
   Res    0.908508    sqrt( Sum f_i^2 / 3N )
----------------------------------------
   Max    1.854565    constrained

Stress-tensor-Voigt (kbar):     -180.79     -331.09     -352.55       83.99       24.58       54.98
(Free)E + p*V (eV/cell)    -2931.7235
Target enthalpy (eV/cell)    -2905.6853

siesta: Stress tensor (static) (eV/Ang**3):
        -0.112836    0.052423    0.034317
         0.052423   -0.206648    0.015343
         0.034317    0.015343   -0.220043

siesta: Pressure (static):        288.14237387  kBar

siesta: Stress tensor (total) (eV/Ang**3):
        -0.112836    0.052423    0.034317
         0.052423   -0.206648    0.015343
         0.034317    0.015343   -0.220043

siesta: Pressure (total):        288.14237387  kBar

                     ====================================
                        Begin Broyden opt. move =      7
                     ====================================

outcoor: Atomic coordinates (fractional):                   
    0.00000000    0.00000000   -0.00000001   1       1  Mg
    0.49999999    0.50000002    0.49999999   1       2  Mg
    0.24999991    0.25000003    0.24999991   2       3  C
   -0.24999996   -0.25000000   -0.24999991   2       4  C
    0.56979596   -0.06979573    0.25000019   3       5  O
    0.25000010    0.56979586   -0.06979580   3       6  O
   -0.06979595    0.24999958    0.56979572   3       7  O
   -0.56979594    0.06979576   -0.25000014   3       8  O
   -0.25000002   -0.56979586    0.06979579   3       9  O
    0.06979591   -0.24999959   -0.56979571   3      10  O
 Kpoints in:          224 . Kpoints trimmed:          224

siesta: k-grid: Number of k-points =   224
siesta: k-grid: Cutoff (effective) =    15.016 Ang
siesta: k-grid: Supercell and displacements
siesta: k-grid:    0  -8   8      0.500
siesta: k-grid:   -8   8   0      0.500
siesta: k-grid:    0   0   7      0.000
Naive supercell factors:     5    5    5

superc: Internal auxiliary supercell:     5 x     5 x     5  =     125
superc: Number of atoms, orbitals, and projectors:   1250   4250  10000

outcell: Unit cell vectors (Ang):
        4.276512   -0.286023   -0.187236
        2.638449    3.377713   -0.187235
        2.638448    1.179655    3.170554

outcell: Cell vector modules (Ang)   :    4.290154    4.290153    4.290152
outcell: Cell angles (23,13,12) (deg):     55.7739     55.7739     55.7739
outcell: Cell volume (Ang**3)        :     50.3625
New_DM. Step:     8
Initializing Density Matrix...
New grid distribution:   1
           1       1:   12    1:    6    1:    3
           2       1:   12    1:    6    4:    6
           3       1:   12    1:    6    7:    9
           4       1:   12    1:    6   10:   12
           5       1:   12    7:   12    1:    3
           6       1:   12    7:   12    4:    6
           7       1:   12    7:   12    7:    9
           8       1:   12    7:   12   10:   12

InitMesh: MESH =    24 x    24 x    24 =       13824
InitMesh: (bp) =    12 x    12 x    12 =        1728
InitMesh: Mesh cutoff (required, used) =   100.000   122.112 Ry
ExtMesh (bp) on 0 =    64 x    58 x    55 =      204160
New grid distribution:   2
           1       1:    6    7:   12    7:   12
           2       7:   12    1:    6    1:    6
           3       7:   12    1:    6    7:   12
           4       7:   12    7:   12    1:    6
           5       1:    6    1:    6    7:   12
           6       1:    6    1:    6    1:    6
           7       7:   12    7:   12    7:   12
           8       1:    6    7:   12    1:    6
New grid distribution:   3
           1       1:    6    7:   12    7:   12
           2       7:   12    1:    6    1:    6
           3       7:   12    1:    6    7:   12
           4       7:   12    7:   12    1:    6
           5       1:    6    1:    6    7:   12
           6       1:    6    1:    6    1:    6
           7       7:   12    7:   12    7:   12
           8       1:    6    7:   12    1:    6
Setting up quadratic distribution...
ExtMesh (bp) on 0 =    58 x    58 x    58 =      195112
PhiOnMesh: Number of (b)points on node 0 =                  216
PhiOnMesh: nlist on node 0 =                 8605

siesta: Eharris(eV) =   -2953.916710


siesta: Eharris(eV) =   -2953.916710

SCF_NOT_CONV: SCF did not converge in maximum number of steps.
Geom step, scf iteration, dmax:   7  1    1.868882

Using DM_out to compute the final energy and forces

siesta: Atomic forces (eV/Ang):
     1    0.000003    0.000001   -0.000002
     2   -0.000003    0.000003   -0.000003
     3    0.000011   -0.000025    0.000024
     4   -0.000005    0.000017   -0.000023
     5   -0.537438    1.201973    0.000004
     6   -0.000003   -0.721139    1.101612
     7    0.537458   -0.480840   -1.101601
     8    0.537430   -1.201966    0.000002
     9    0.000006    0.721141   -1.101613
    10   -0.537454    0.480836    1.101602
----------------------------------------
   Tot    0.000006    0.000001    0.000001
----------------------------------------
   Max    1.201973
   Res    0.588826    sqrt( Sum f_i^2 / 3N )
----------------------------------------
   Max    1.201973    constrained

Stress-tensor-Voigt (kbar):    -1240.97    -1120.87    -1103.72      -67.11      -19.64      -43.93
(Free)E + p*V (eV/cell)    -2894.3004
Target enthalpy (eV/cell)    -2899.1784

siesta: Stress tensor (static) (eV/Ang**3):
        -0.774543   -0.041887   -0.027420
        -0.041887   -0.699583   -0.012260
        -0.027420   -0.012260   -0.688879

siesta: Pressure (static):       1155.18502457  kBar

siesta: Stress tensor (total) (eV/Ang**3):
        -0.774543   -0.041887   -0.027420
        -0.041887   -0.699583   -0.012260
        -0.027420   -0.012260   -0.688879

siesta: Pressure (total):       1155.18502457  kBar

                     ====================================
                        Begin Broyden opt. move =      8
                     ====================================

outcoor: Atomic coordinates (fractional):                   
    0.00000001    0.00000001   -0.00000001   1       1  Mg
    0.49999999    0.50000002    0.49999999   1       2  Mg
    0.24999997    0.24999999    0.24999998   2       3  C
   -0.24999998   -0.24999997   -0.24999998   2       4  C
    0.56772679   -0.06772676    0.25000008   3       5  O
    0.25000006    0.56772677   -0.06772676   3       6  O
   -0.06772674    0.24999982    0.56772679   3       7  O
   -0.56772680    0.06772678   -0.25000005   3       8  O
   -0.25000000   -0.56772675    0.06772675   3       9  O
    0.06772672   -0.24999983   -0.56772678   3      10  O
 Kpoints in:          224 . Kpoints trimmed:          224

siesta: k-grid: Number of k-points =   224
siesta: k-grid: Cutoff (effective) =    15.389 Ang
siesta: k-grid: Supercell and displacements
siesta: k-grid:    0  -8   8      0.500
siesta: k-grid:   -8   8   0      0.500
siesta: k-grid:    0   0   7      0.000
Naive supercell factors:     5    5    5

superc: Internal auxiliary supercell:     5 x     5 x     5  =     125
superc: Number of atoms, orbitals, and projectors:   1250   4250  10000

outcell: Unit cell vectors (Ang):
        4.387745   -0.235103   -0.153902
        2.750567    3.426653   -0.153902
        2.750567    1.229783    3.202072

outcell: Cell vector modules (Ang)   :    4.396733    4.396732    4.396732
outcell: Cell angles (23,13,12) (deg):     54.2771     54.2771     54.2771
outcell: Cell volume (Ang**3)        :     52.0747
New_DM. Step:     9
Initializing Density Matrix...
New grid distribution:   1
           1       1:   12    1:    6    1:    3
           2       1:   12    1:    6    4:    6
           3       1:   12    1:    6    7:    9
           4       1:   12    1:    6   10:   12
           5       1:   12    7:   12    1:    3
           6       1:   12    7:   12    4:    6
           7       1:   12    7:   12    7:    9
           8       1:   12    7:   12   10:   12

InitMesh: MESH =    24 x    24 x    24 =       13824
InitMesh: (bp) =    12 x    12 x    12 =        1728
InitMesh: Mesh cutoff (required, used) =   100.000   113.967 Ry
ExtMesh (bp) on 0 =    64 x    58 x    55 =      204160
New grid distribution:   2
           1       1:    6    7:   12    7:   12
           2       7:   12    1:    6    1:    6
           3       7:   12    1:    6    7:   12
           4       7:   12    7:   12    1:    6
           5       1:    6    1:    6    7:   12
           6       1:    6    1:    6    1:    6
           7       7:   12    7:   12    7:   12
           8       1:    6    7:   12    1:    6
New grid distribution:   3
           1       1:    6    7:   12    7:   12
           2       7:   12    1:    6    1:    6
           3       7:   12    1:    6    7:   12
           4       7:   12    7:   12    1:    6
           5       1:    6    1:    6    7:   12
           6       1:    6    1:    6    1:    6
           7       7:   12    7:   12    7:   12
           8       1:    6    7:   12    1:    6
Setting up quadratic distribution...
ExtMesh (bp) on 0 =    58 x    58 x    58 =      195112
PhiOnMesh: Number of (b)points on node 0 =                  216
PhiOnMesh: nlist on node 0 =                 8366

siesta: Eharris(eV) =   -2956.346111


siesta: Eharris(eV) =   -2956.346111

SCF_NOT_CONV: SCF did not converge in maximum number of steps.
Geom step, scf iteration, dmax:   8  1    1.863918

Using DM_out to compute the final energy and forces

siesta: Atomic forces (eV/Ang):
     1   -0.000003    0.000001    0.000001
     2    0.000002    0.000001    0.000003
     3    0.000005   -0.000013    0.000012
     4   -0.000005    0.000014   -0.000013
     5    0.095305   -0.213153   -0.000008
     6   -0.000002    0.127882   -0.195359
     7   -0.095310    0.085286    0.195343
     8   -0.095304    0.213155    0.000008
     9    0.000002   -0.127886    0.195356
    10    0.095310   -0.085284   -0.195343
----------------------------------------
   Tot    0.000002    0.000001    0.000000
----------------------------------------
   Max    0.213155
   Res    0.104420    sqrt( Sum f_i^2 / 3N )
----------------------------------------
   Max    0.213155    constrained

Stress-tensor-Voigt (kbar):     -931.92     -958.99     -962.85       15.12        4.43        9.90
(Free)E + p*V (eV/cell)    -2903.1212
Target enthalpy (eV/cell)    -2901.5368

siesta: Stress tensor (static) (eV/Ang**3):
        -0.581655    0.009438    0.006178
         0.009438   -0.598546    0.002763
         0.006178    0.002763   -0.600959

siesta: Pressure (static):        951.25445460  kBar

siesta: Stress tensor (total) (eV/Ang**3):
        -0.581655    0.009438    0.006178
         0.009438   -0.598546    0.002763
         0.006178    0.002763   -0.600959

siesta: Pressure (total):        951.25445460  kBar

                     ====================================
                        Begin Broyden opt. move =      9
                     ====================================

outcoor: Atomic coordinates (fractional):                   
    0.00000000    0.00000001   -0.00000001   1       1  Mg
    0.49999999    0.50000002    0.49999999   1       2  Mg
    0.24999997    0.24999997    0.24999999   2       3  C
   -0.24999999   -0.24999995   -0.24999999   2       4  C
    0.56780371   -0.06780365    0.25000010   3       5  O
    0.25000007    0.56780367   -0.06780366   3       6  O
   -0.06780366    0.24999979    0.56780366   3       7  O
   -0.56780371    0.06780368   -0.25000005   3       8  O
   -0.25000000   -0.56780366    0.06780365   3       9  O
    0.06780364   -0.24999980   -0.56780365   3      10  O
 Kpoints in:          224 . Kpoints trimmed:          224

siesta: k-grid: Number of k-points =   224
siesta: k-grid: Cutoff (effective) =    15.289 Ang
siesta: k-grid: Supercell and displacements
siesta: k-grid:    0  -8   8      0.500
siesta: k-grid:   -8   8   0      0.500
siesta: k-grid:    0   0   7      0.000
Naive supercell factors:     5    5    5

superc: Internal auxiliary supercell:     5 x     5 x     5  =     125
superc: Number of atoms, orbitals, and projectors:   1250   4250  10000

outcell: Unit cell vectors (Ang):
        4.358010   -0.250721   -0.164126
        2.719100    3.414908   -0.164125
        2.719100    1.215714    3.195398

outcell: Cell vector modules (Ang)   :    4.368300    4.368299    4.368299
outcell: Cell angles (23,13,12) (deg):     54.7224     54.7224     54.7224
outcell: Cell volume (Ang**3)        :     51.6959
New_DM. Step:    10
Initializing Density Matrix...
New grid distribution:   1
           1       1:   12    1:    6    1:    3
           2       1:   12    1:    6    4:    6
           3       1:   12    1:    6    7:    9
           4       1:   12    1:    6   10:   12
           5       1:   12    7:   12    1:    3
           6       1:   12    7:   12    4:    6
           7       1:   12    7:   12    7:    9
           8       1:   12    7:   12   10:   12

InitMesh: MESH =    24 x    24 x    24 =       13824
InitMesh: (bp) =    12 x    12 x    12 =        1728
InitMesh: Mesh cutoff (required, used) =   100.000   116.134 Ry
ExtMesh (bp) on 0 =    64 x    58 x    55 =      204160
New grid distribution:   2
           1       1:    6    7:   12    7:   12
           2       7:   12    1:    6    1:    6
           3       7:   12    1:    6    7:   12
           4       7:   12    7:   12    1:    6
           5       1:    6    1:    6    7:   12
           6       1:    6    1:    6    1:    6
           7       7:   12    7:   12    7:   12
           8       1:    6    7:   12    1:    6
New grid distribution:   3
           1       1:    6    7:   12    7:   12
           2       7:   12    1:    6    1:    6
           3       7:   12    1:    6    7:   12
           4       7:   12    7:   12    1:    6
           5       1:    6    1:    6    7:   12
           6       1:    6    1:    6    1:    6
           7       7:   12    7:   12    7:   12
           8       1:    6    7:   12    1:    6
Setting up quadratic distribution...
ExtMesh (bp) on 0 =    58 x    58 x    58 =      195112
PhiOnMesh: Number of (b)points on node 0 =                  216
PhiOnMesh: nlist on node 0 =                 8420

siesta: Eharris(eV) =   -2955.875070


siesta: Eharris(eV) =   -2955.875070

SCF_NOT_CONV: SCF did not converge in maximum number of steps.
Geom step, scf iteration, dmax:   9  1    1.864566

Using DM_out to compute the final energy and forces

siesta: Atomic forces (eV/Ang):
     1    0.000000    0.000000    0.000001
     2   -0.000002   -0.000001   -0.000001
     3    0.000005   -0.000009    0.000006
     4   -0.000003    0.000008   -0.000007
     5   -0.015914    0.035590   -0.000005
     6   -0.000001   -0.021355    0.032627
     7    0.015917   -0.014226   -0.032628
     8    0.015913   -0.035587    0.000006
     9    0.000002    0.021356   -0.032624
    10   -0.015916    0.014225    0.032625
----------------------------------------
   Tot    0.000001    0.000001    0.000000
----------------------------------------
   Max    0.035590
   Res    0.017436    sqrt( Sum f_i^2 / 3N )
----------------------------------------
   Max    0.035590    constrained

Stress-tensor-Voigt (kbar):     -973.67     -987.04     -988.94        7.47        2.19        4.89
(Free)E + p*V (eV/cell)    -2901.6644
Target enthalpy (eV/cell)    -2901.1229

siesta: Stress tensor (static) (eV/Ang**3):
        -0.607711    0.004661    0.003051
         0.004661   -0.616053    0.001364
         0.003051    0.001364   -0.617244

siesta: Pressure (static):        983.21681586  kBar

siesta: Stress tensor (total) (eV/Ang**3):
        -0.607711    0.004661    0.003051
         0.004661   -0.616053    0.001364
         0.003051    0.001364   -0.617244

siesta: Pressure (total):        983.21681586  kBar

                     ====================================
                        Begin Broyden opt. move =     10
                     ====================================

outcoor: Atomic coordinates (fractional):                   
    0.00000000    0.00000001   -0.00000001   1       1  Mg
    0.49999999    0.50000002    0.49999999   1       2  Mg
    0.24999997    0.24999997    0.25000000   2       3  C
   -0.24999999   -0.24999996   -0.24999999   2       4  C
    0.56740159   -0.06740155    0.25000009   3       5  O
    0.25000007    0.56740156   -0.06740156   3       6  O
   -0.06740155    0.24999981    0.56740156   3       7  O
   -0.56740160    0.06740157   -0.25000004   3       8  O
   -0.25000000   -0.56740155    0.06740155   3       9  O
    0.06740153   -0.24999982   -0.56740155   3      10  O
 Kpoints in:          224 . Kpoints trimmed:          224

siesta: k-grid: Number of k-points =   224
siesta: k-grid: Cutoff (effective) =    15.371 Ang
siesta: k-grid: Supercell and displacements
siesta: k-grid:    0  -8   8      0.500
siesta: k-grid:   -8   8   0      0.500
siesta: k-grid:    0   0   7      0.000
Naive supercell factors:     5    5    5

superc: Internal auxiliary supercell:     5 x     5 x     5  =     125
superc: Number of atoms, orbitals, and projectors:   1250   4250  10000

outcell: Unit cell vectors (Ang):
        4.382278   -0.239966   -0.157086
        2.743298    3.425822   -0.157085
        2.743298    1.226533    3.202585

outcell: Cell vector modules (Ang)   :    4.391654    4.391653    4.391653
outcell: Cell angles (23,13,12) (deg):     54.4098     54.4098     54.4098
outcell: Cell volume (Ang**3)        :     52.0838
New_DM. Step:    11
Initializing Density Matrix...
New grid distribution:   1
           1       1:   12    1:    6    1:    3
           2       1:   12    1:    6    4:    6
           3       1:   12    1:    6    7:    9
           4       1:   12    1:    6   10:   12
           5       1:   12    7:   12    1:    3
           6       1:   12    7:   12    4:    6
           7       1:   12    7:   12    7:    9
           8       1:   12    7:   12   10:   12

InitMesh: MESH =    24 x    24 x    24 =       13824
InitMesh: (bp) =    12 x    12 x    12 =        1728
InitMesh: Mesh cutoff (required, used) =   100.000   114.430 Ry
ExtMesh (bp) on 0 =    64 x    58 x    55 =      204160
New grid distribution:   2
           1       1:    6    7:   12    7:   12
           2       7:   12    1:    6    1:    6
           3       7:   12    1:    6    7:   12
           4       7:   12    7:   12    1:    6
           5       1:    6    1:    6    7:   12
           6       1:    6    1:    6    1:    6
           7       7:   12    7:   12    7:   12
           8       1:    6    7:   12    1:    6
New grid distribution:   3
           1       1:    6    7:   12    7:   12
           2       7:   12    1:    6    1:    6
           3       7:   12    1:    6    7:   12
           4       7:   12    7:   12    1:    6
           5       1:    6    1:    6    7:   12
           6       1:    6    1:    6    1:    6
           7       7:   12    7:   12    7:   12
           8       1:    6    7:   12    1:    6
Setting up quadratic distribution...
ExtMesh (bp) on 0 =    58 x    58 x    58 =      195112
PhiOnMesh: Number of (b)points on node 0 =                  216
PhiOnMesh: nlist on node 0 =                 8370

siesta: Eharris(eV) =   -2956.373311


siesta: Eharris(eV) =   -2956.373311

SCF_NOT_CONV: SCF did not converge in maximum number of steps.
Geom step, scf iteration, dmax:  10  1    1.863527

Using DM_out to compute the final energy and forces

siesta: Atomic forces (eV/Ang):
     1    0.000000    0.000000    0.000001
     2   -0.000002   -0.000002   -0.000001
     3    0.000004   -0.000008    0.000005
     4   -0.000003    0.000007   -0.000006
     5    0.115841   -0.259093   -0.000005
     6    0.000000    0.155440   -0.237450
     7   -0.115840    0.103660    0.237448
     8   -0.115841    0.259095    0.000006
     9    0.000001   -0.155439    0.237453
    10    0.115841   -0.103662   -0.237448
----------------------------------------
   Tot    0.000001   -0.000000    0.000003
----------------------------------------
   Max    0.259095
   Res    0.126922    sqrt( Sum f_i^2 / 3N )
----------------------------------------
   Max    0.259095    constrained

Stress-tensor-Voigt (kbar):     -922.04     -946.99     -950.55       13.94        4.08        9.13
(Free)E + p*V (eV/cell)    -2903.5319
Target enthalpy (eV/cell)    -2901.5769

siesta: Stress tensor (static) (eV/Ang**3):
        -0.575488    0.008701    0.005696
         0.008701   -0.591058    0.002546
         0.005696    0.002546   -0.593282

siesta: Pressure (static):        939.86162630  kBar

siesta: Stress tensor (total) (eV/Ang**3):
        -0.575488    0.008701    0.005696
         0.008701   -0.591058    0.002546
         0.005696    0.002546   -0.593282

siesta: Pressure (total):        939.86162630  kBar

                     ====================================
                        Begin Broyden opt. move =     11
                     ====================================

outcoor: Atomic coordinates (fractional):                   
    0.00000000    0.00000001   -0.00000001   1       1  Mg
    0.49999999    0.50000002    0.49999999   1       2  Mg
    0.24999998    0.24999997    0.25000000   2       3  C
   -0.25000000   -0.24999995   -0.25000000   2       4  C
    0.56807828   -0.06807822    0.25000009   3       5  O
    0.25000007    0.56807823   -0.06807823   3       6  O
   -0.06807823    0.24999981    0.56807823   3       7  O
   -0.56807828    0.06807825   -0.25000004   3       8  O
   -0.25000000   -0.56807823    0.06807822   3       9  O
    0.06807821   -0.24999982   -0.56807822   3      10  O
 Kpoints in:          224 . Kpoints trimmed:          224

siesta: k-grid: Number of k-points =   224
siesta: k-grid: Cutoff (effective) =    15.293 Ang
siesta: k-grid: Supercell and displacements
siesta: k-grid:    0  -8   8      0.500
siesta: k-grid:   -8   8   0      0.500
siesta: k-grid:    0   0   7      0.000
Naive supercell factors:     5    5    5

superc: Internal auxiliary supercell:     5 x     5 x     5  =     125
superc: Number of atoms, orbitals, and projectors:   1250   4250  10000

outcell: Unit cell vectors (Ang):
        4.359537   -0.246251   -0.161200
        2.723450    3.413065   -0.161199
        2.723450    1.217659    3.192539

outcell: Cell vector modules (Ang)   :    4.369460    4.369460    4.369459
outcell: Cell angles (23,13,12) (deg):     54.6046     54.6046     54.6046
outcell: Cell volume (Ang**3)        :     51.5717
New_DM. Step:    12
Initializing Density Matrix...
New grid distribution:   1
           1       1:   12    1:    6    1:    3
           2       1:   12    1:    6    4:    6
           3       1:   12    1:    6    7:    9
           4       1:   12    1:    6   10:   12
           5       1:   12    7:   12    1:    3
           6       1:   12    7:   12    4:    6
           7       1:   12    7:   12    7:    9
           8       1:   12    7:   12   10:   12

InitMesh: MESH =    24 x    24 x    24 =       13824
InitMesh: (bp) =    12 x    12 x    12 =        1728
InitMesh: Mesh cutoff (required, used) =   100.000   115.892 Ry
ExtMesh (bp) on 0 =    64 x    58 x    55 =      204160
New grid distribution:   2
           1       1:    6    7:   12    7:   12
[...]
           4       7:   12    7:   12    1:    6
           5       1:    6    1:    6    7:   12
           6       1:    6    1:    6    1:    6
           7       7:   12    7:   12    7:   12
           8       1:    6    7:   12    1:    6
Setting up quadratic distribution...
ExtMesh (bp) on 0 =    58 x    58 x    58 =      195112
PhiOnMesh: Number of (b)points on node 0 =                  216
PhiOnMesh: nlist on node 0 =                 8450

siesta: Eharris(eV) =   -2955.685955


siesta: Eharris(eV) =   -2955.685955

SCF_NOT_CONV: SCF did not converge in maximum number of steps.
Geom step, scf iteration, dmax:  11  1    1.864913

Using DM_out to compute the final energy and forces

siesta: Atomic forces (eV/Ang):
     1    0.000000    0.000000    0.000001
     2    0.000003    0.000001    0.000000
     3    0.000003   -0.000005    0.000005
     4   -0.000002    0.000006   -0.000006
     5   -0.026463    0.059182   -0.000004
     6   -0.000001   -0.035511    0.054248
     7    0.026464   -0.023666   -0.054252
     8    0.026461   -0.059182    0.000008
     9    0.000001    0.035511   -0.054248
    10   -0.026466    0.023668    0.054250
----------------------------------------
   Tot    0.000000    0.000004    0.000003
----------------------------------------
   Max    0.059182
   Res    0.028995    sqrt( Sum f_i^2 / 3N )
----------------------------------------
   Max    0.059182    constrained

Stress-tensor-Voigt (kbar):     -988.49    -1007.08    -1009.73       10.39        3.04        6.80
(Free)E + p*V (eV/cell)    -2900.9236
Target enthalpy (eV/cell)    -2900.9804

siesta: Stress tensor (static) (eV/Ang**3):
        -0.616959    0.006482    0.004243
         0.006482   -0.628560    0.001897
         0.004243    0.001897   -0.630217

siesta: Pressure (static):       1001.76438175  kBar

siesta: Stress tensor (total) (eV/Ang**3):
        -0.616959    0.006482    0.004243
         0.006482   -0.628560    0.001897
         0.004243    0.001897   -0.630217

siesta: Pressure (total):       1001.76438175  kBar

                     ====================================
                        Begin Broyden opt. move =     12
                     ====================================

outcoor: Atomic coordinates (fractional):                   
    0.00000000    0.00000001   -0.00000001   1       1  Mg
    0.49999999    0.50000002    0.49999999   1       2  Mg
    0.24999998    0.24999997    0.25000000   2       3  C
   -0.25000000   -0.24999996   -0.25000000   2       4  C
    0.56807158   -0.06807154    0.25000008   3       5  O
    0.25000007    0.56807154   -0.06807155   3       6  O
   -0.06807154    0.24999982    0.56807154   3       7  O
   -0.56807159    0.06807156   -0.25000003   3       8  O
   -0.25000000   -0.56807154    0.06807153   3       9  O
    0.06807153   -0.24999983   -0.56807153   3      10  O
 Kpoints in:          224 . Kpoints trimmed:          224

siesta: k-grid: Number of k-points =   224
siesta: k-grid: Cutoff (effective) =    15.347 Ang
siesta: k-grid: Supercell and displacements
siesta: k-grid:    0  -8   8      0.500
siesta: k-grid:   -8   8   0      0.500
siesta: k-grid:    0   0   7      0.000
Naive supercell factors:     5    5    5

superc: Internal auxiliary supercell:     5 x     5 x     5  =     125
superc: Number of atoms, orbitals, and projectors:   1250   4250  10000

outcell: Unit cell vectors (Ang):
        4.375665   -0.237573   -0.155519
        2.740672    3.419298   -0.155518
        2.740672    1.225359    3.195979

outcell: Cell vector modules (Ang)   :    4.384869    4.384868    4.384868
outcell: Cell angles (23,13,12) (deg):     54.3575     54.3575     54.3575
outcell: Cell volume (Ang**3)        :     51.7684
New_DM. Step:    13
Initializing Density Matrix...
New grid distribution:   1
           1       1:   12    1:    6    1:    3
           2       1:   12    1:    6    4:    6
           3       1:   12    1:    6    7:    9
           4       1:   12    1:    6   10:   12
           5       1:   12    7:   12    1:    3
           6       1:   12    7:   12    4:    6
           7       1:   12    7:   12    7:    9
           8       1:   12    7:   12   10:   12

InitMesh: MESH =    24 x    24 x    24 =       13824
InitMesh: (bp) =    12 x    12 x    12 =        1728
InitMesh: Mesh cutoff (required, used) =   100.000   114.705 Ry
ExtMesh (bp) on 0 =    64 x    58 x    55 =      204160
New grid distribution:   2
           1       1:    6    7:   12    7:   12
           2       7:   12    1:    6    1:    6
           3       7:   12    1:    6    7:   12
           4       7:   12    7:   12    1:    6
           5       1:    6    1:    6    7:   12
           6       1:    6    1:    6    1:    6
           7       7:   12    7:   12    7:   12
           8       1:    6    7:   12    1:    6
New grid distribution:   3
           1       1:    6    7:   12    7:   12
           2       7:   12    1:    6    1:    6
           3       7:   12    1:    6    7:   12
           4       7:   12    7:   12    1:    6
           5       1:    6    1:    6    7:   12
           6       1:    6    1:    6    1:    6
           7       7:   12    7:   12    7:   12
           8       1:    6    7:   12    1:    6
Setting up quadratic distribution...
ExtMesh (bp) on 0 =    58 x    58 x    58 =      195112
PhiOnMesh: Number of (b)points on node 0 =                  216
PhiOnMesh: nlist on node 0 =                 8418

siesta: Eharris(eV) =   -2955.932381


siesta: Eharris(eV) =   -2955.932381

SCF_NOT_CONV: SCF did not converge in maximum number of steps.
Geom step, scf iteration, dmax:  12  1    1.864642

Using DM_out to compute the final energy and forces

siesta: Atomic forces (eV/Ang):
     1    0.000001   -0.000000    0.000002
     2   -0.000001   -0.000003   -0.000001
     3    0.000004   -0.000007    0.000004
     4   -0.000003    0.000006   -0.000004
     5    0.064850   -0.145042   -0.000003
     6    0.000001    0.087017   -0.132924
     7   -0.064846    0.058033    0.132923
     8   -0.064850    0.145045    0.000004
     9    0.000001   -0.087017    0.132926
    10    0.064846   -0.058033   -0.132925
----------------------------------------
   Tot    0.000003    0.000000    0.000000
----------------------------------------
   Max    0.145045
   Res    0.071052    sqrt( Sum f_i^2 / 3N )
----------------------------------------
   Max    0.145045    constrained

Stress-tensor-Voigt (kbar):     -964.23    -1013.27    -1020.28       27.40        8.02       17.94
(Free)E + p*V (eV/cell)    -2901.2203
Target enthalpy (eV/cell)    -2901.1964

siesta: Stress tensor (static) (eV/Ang**3):
        -0.601821    0.017103    0.011196
         0.017103   -0.632429    0.005006
         0.011196    0.005006   -0.636799

siesta: Pressure (static):        999.26098557  kBar

siesta: Stress tensor (total) (eV/Ang**3):
        -0.601821    0.017103    0.011196
         0.017103   -0.632429    0.005006
         0.011196    0.005006   -0.636799

siesta: Pressure (total):        999.26098557  kBar

                     ====================================
                        Begin Broyden opt. move =     13
                     ====================================

outcoor: Atomic coordinates (fractional):                   
    0.00000000    0.00000001   -0.00000001   1       1  Mg
    0.49999999    0.50000002    0.49999999   1       2  Mg
    0.24999997    0.24999997    0.25000000   2       3  C
   -0.25000000   -0.24999995   -0.24999999   2       4  C
    0.56817429   -0.06817424    0.25000009   3       5  O
    0.25000007    0.56817425   -0.06817425   3       6  O
   -0.06817425    0.24999981    0.56817424   3       7  O
   -0.56817430    0.06817427   -0.25000004   3       8  O
   -0.25000000   -0.56817424    0.06817423   3       9  O
    0.06817423   -0.24999982   -0.56817423   3      10  O
 Kpoints in:          224 . Kpoints trimmed:          224

siesta: k-grid: Number of k-points =   224
siesta: k-grid: Cutoff (effective) =    15.276 Ang
siesta: k-grid: Supercell and displacements
siesta: k-grid:    0  -8   8      0.500
siesta: k-grid:   -8   8   0      0.500
siesta: k-grid:    0   0   7      0.000
Naive supercell factors:     5    5    5

superc: Internal auxiliary supercell:     5 x     5 x     5  =     125
superc: Number of atoms, orbitals, and projectors:   1250   4250  10000

outcell: Unit cell vectors (Ang):
        4.354609   -0.247985   -0.162335
        2.718871    3.410550   -0.162335
        2.718871    1.215612    3.190687

outcell: Cell vector modules (Ang)   :    4.364684    4.364683    4.364683
outcell: Cell angles (23,13,12) (deg):     54.6567     54.6567     54.6567
outcell: Cell volume (Ang**3)        :     51.4757
New_DM. Step:    14
Initializing Density Matrix...
New grid distribution:   1
           1       1:   12    1:    6    1:    3
           2       1:   12    1:    6    4:    6
           3       1:   12    1:    6    7:    9
           4       1:   12    1:    6   10:   12
           5       1:   12    7:   12    1:    3
           6       1:   12    7:   12    4:    6
           7       1:   12    7:   12    7:    9
           8       1:   12    7:   12   10:   12

InitMesh: MESH =    24 x    24 x    24 =       13824
InitMesh: (bp) =    12 x    12 x    12 =        1728
InitMesh: Mesh cutoff (required, used) =   100.000   116.225 Ry
ExtMesh (bp) on 0 =    64 x    58 x    55 =      204160
New grid distribution:   2
           1       1:    6    7:   12    7:   12
           2       7:   12    1:    6    1:    6
           3       7:   12    1:    6    7:   12
           4       7:   12    7:   12    1:    6
           5       1:    6    1:    6    7:   12
           6       1:    6    1:    6    1:    6
           7       7:   12    7:   12    7:   12
           8       1:    6    7:   12    1:    6
New grid distribution:   3
           1       1:    6    7:   12    7:   12
           2       7:   12    1:    6    1:    6
           3       7:   12    1:    6    7:   12
           4       7:   12    7:   12    1:    6
           5       1:    6    1:    6    7:   12
           6       1:    6    1:    6    1:    6
           7       7:   12    7:   12    7:   12
           8       1:    6    7:   12    1:    6
Setting up quadratic distribution...
ExtMesh (bp) on 0 =    58 x    58 x    58 =      195112
PhiOnMesh: Number of (b)points on node 0 =                  216
PhiOnMesh: nlist on node 0 =                 8469

siesta: Eharris(eV) =   -2955.554886


siesta: Eharris(eV) =   -2955.554886

SCF_NOT_CONV: SCF did not converge in maximum number of steps.
Geom step, scf iteration, dmax:  13  1    1.865123

Using DM_out to compute the final energy and forces

siesta: Atomic forces (eV/Ang):
     1    0.000000    0.000000    0.000001
     2   -0.000002   -0.000002   -0.000000
     3    0.000005   -0.000008    0.000006
     4   -0.000003    0.000007   -0.000006
     5   -0.031562    0.070594   -0.000004
     6    0.000001   -0.042354    0.064705
     7    0.031566   -0.028231   -0.064707
     8    0.031563   -0.070590    0.000005
     9    0.000002    0.042355   -0.064703
    10   -0.031566    0.028231    0.064705
----------------------------------------
   Tot    0.000003    0.000001    0.000002
----------------------------------------
   Max    0.070594
   Res    0.034583    sqrt( Sum f_i^2 / 3N )
----------------------------------------
   Max    0.070594    constrained

Stress-tensor-Voigt (kbar):    -1010.09    -1041.75    -1046.28       17.69        5.18       11.58
(Free)E + p*V (eV/cell)    -2899.8156
Target enthalpy (eV/cell)    -2900.8663

siesta: Stress tensor (static) (eV/Ang**3):
        -0.630441    0.011044    0.007229
         0.011044   -0.650205    0.003232
         0.007229    0.003232   -0.653026

siesta: Pressure (static):       1032.70589415  kBar

siesta: Stress tensor (total) (eV/Ang**3):
        -0.630441    0.011044    0.007229
         0.011044   -0.650205    0.003232
         0.007229    0.003232   -0.653026

siesta: Pressure (total):       1032.70589415  kBar

                     ====================================
                        Begin Broyden opt. move =     14
                     ====================================

outcoor: Atomic coordinates (fractional):                   
    0.00000000    0.00000001   -0.00000001   1       1  Mg
    0.49999999    0.50000002    0.49999999   1       2  Mg
    0.24999998    0.24999996    0.25000001   2       3  C
   -0.25000000   -0.24999994   -0.25000000   2       4  C
    0.56788357   -0.06788353    0.25000008   3       5  O
    0.25000007    0.56788353   -0.06788353   3       6  O
   -0.06788352    0.24999982    0.56788352   3       7  O
   -0.56788358    0.06788355   -0.25000002   3       8  O
   -0.24999999   -0.56788352    0.06788352   3       9  O
    0.06788350   -0.24999984   -0.56788351   3      10  O
 Kpoints in:          224 . Kpoints trimmed:          224

siesta: k-grid: Number of k-points =   224
siesta: k-grid: Cutoff (effective) =    15.298 Ang
siesta: k-grid: Supercell and displacements
siesta: k-grid:    0  -8   8      0.500
siesta: k-grid:   -8   8   0      0.500
siesta: k-grid:    0   0   7      0.000
Naive supercell factors:     5    5    5

superc: Internal auxiliary supercell:     5 x     5 x     5  =     125
superc: Number of atoms, orbitals, and projectors:   1250   4250  10000

outcell: Unit cell vectors (Ang):
        4.360909   -0.246229   -0.161186
        2.724381    3.414073   -0.161185
        2.724381    1.218075    3.193457

outcell: Cell vector modules (Ang)   :    4.370828    4.370827    4.370827
outcell: Cell angles (23,13,12) (deg):     54.6020     54.6020     54.6020
outcell: Cell volume (Ang**3)        :     51.6166
New_DM. Step:    15
Initializing Density Matrix...
New grid distribution:   1
           1       1:   12    1:    6    1:    3
           2       1:   12    1:    6    4:    6
           3       1:   12    1:    6    7:    9
           4       1:   12    1:    6   10:   12
           5       1:   12    7:   12    1:    3
           6       1:   12    7:   12    4:    6
           7       1:   12    7:   12    7:    9
           8       1:   12    7:   12   10:   12

InitMesh: MESH =    24 x    24 x    24 =       13824
InitMesh: (bp) =    12 x    12 x    12 =        1728
InitMesh: Mesh cutoff (required, used) =   100.000   115.815 Ry
ExtMesh (bp) on 0 =    64 x    58 x    55 =      204160
New grid distribution:   2
           1       1:    6    7:   12    7:   12
           2       7:   12    1:    6    1:    6
           3       7:   12    1:    6    7:   12
           4       7:   12    7:   12    1:    6
           5       1:    6    1:    6    7:   12
           6       1:    6    1:    6    1:    6
           7       7:   12    7:   12    7:   12
           8       1:    6    7:   12    1:    6
New grid distribution:   3
           1       1:    6    7:   12    7:   12
           2       7:   12    1:    6    1:    6
           3       7:   12    1:    6    7:   12
           4       7:   12    7:   12    1:    6
           5       1:    6    1:    6    7:   12
           6       1:    6    1:    6    1:    6
           7       7:   12    7:   12    7:   12
           8       1:    6    7:   12    1:    6
Setting up quadratic distribution...
ExtMesh (bp) on 0 =    58 x    58 x    58 =      195112
PhiOnMesh: Number of (b)points on node 0 =                  216
PhiOnMesh: nlist on node 0 =                 8445

siesta: Eharris(eV) =   -2955.749309


siesta: Eharris(eV) =   -2955.749309

SCF_NOT_CONV: SCF did not converge in maximum number of steps.
Geom step, scf iteration, dmax:  14  1    1.864584

Using DM_out to compute the final energy and forces

siesta: Atomic forces (eV/Ang):
     1    0.000001    0.000001    0.000001
     2   -0.000002   -0.000002   -0.000000
     3    0.000004   -0.000005    0.000003
     4   -0.000003    0.000005   -0.000003
     5    0.008458   -0.018910   -0.000005
     6    0.000002    0.011342   -0.017324
     7   -0.008453    0.007576    0.017325
     8   -0.008457    0.018914    0.000006
     9   -0.000000   -0.011344    0.017326
    10    0.008453   -0.007575   -0.017325
----------------------------------------
   Tot    0.000001    0.000002    0.000003
----------------------------------------
   Max    0.018914
   Res    0.009263    sqrt( Sum f_i^2 / 3N )
----------------------------------------
   Max    0.018914    constrained

Stress-tensor-Voigt (kbar):     -980.46    -1000.07    -1002.87       10.96        3.21        7.17
(Free)E + p*V (eV/cell)    -2901.2323
Target enthalpy (eV/cell)    -2901.0539

siesta: Stress tensor (static) (eV/Ang**3):
        -0.611946    0.006839    0.004477
         0.006839   -0.624185    0.002001
         0.004477    0.002001   -0.625933

siesta: Pressure (static):        994.46262768  kBar

siesta: Stress tensor (total) (eV/Ang**3):
        -0.611946    0.006839    0.004477
         0.006839   -0.624185    0.002001
         0.004477    0.002001   -0.625933

siesta: Pressure (total):        994.46262768  kBar

outcoor: Relaxed atomic coordinates (fractional):           
    0.00000000    0.00000001   -0.00000001   1       1  Mg
    0.49999999    0.50000002    0.49999999   1       2  Mg
    0.24999998    0.24999996    0.25000001   2       3  C
   -0.25000000   -0.24999994   -0.25000000   2       4  C
    0.56788357   -0.06788353    0.25000008   3       5  O
    0.25000007    0.56788353   -0.06788353   3       6  O
   -0.06788352    0.24999982    0.56788352   3       7  O
   -0.56788358    0.06788355   -0.25000002   3       8  O
   -0.24999999   -0.56788352    0.06788352   3       9  O
    0.06788350   -0.24999984   -0.56788351   3      10  O

outcell: Unit cell vectors (Ang):
        4.360909   -0.246229   -0.161186
        2.724381    3.414073   -0.161185
        2.724381    1.218075    3.193457

outcell: Cell vector modules (Ang)   :    4.370828    4.370827    4.370827
outcell: Cell angles (23,13,12) (deg):     54.6020     54.6020     54.6020
outcell: Cell volume (Ang**3)        :     51.6166

siesta: Program's energy decomposition (eV):
siesta: Ebs     =      -812.738452
siesta: Eions   =      5228.674091
siesta: Ena     =      1067.533086
siesta: Ekin    =      2501.488562
siesta: Enl     =      -410.638476
siesta: DEna    =      -141.340993
siesta: DUscf   =        27.564117
siesta: DUext   =         0.000000
siesta: Exc     =      -749.202261
siesta: eta*DQ  =         0.000000
siesta: Emadel  =         0.000000
siesta: Emeta   =         0.000000
siesta: Emolmec =         0.000000
siesta: Ekinion =         0.000000
siesta: Eharris =     -2955.749309
siesta: Etot    =     -2933.270057
siesta: FreeEng =     -2933.270057

siesta: Final energy (eV):
siesta:  Band Struct. =    -812.738452
siesta:       Kinetic =    2501.488562
siesta:       Hartree =     684.874806
siesta:    Ext. field =       0.000000
siesta:   Exch.-corr. =    -749.202261
siesta:  Ion-electron =   -3546.023495
siesta:       Ion-ion =   -1824.407669
siesta:       Ekinion =       0.000000
siesta:         Total =   -2933.270057

siesta: Stress tensor (static) (eV/Ang**3):
siesta:    -0.611946    0.006839    0.004477
siesta:     0.006839   -0.624185    0.002001
siesta:     0.004477    0.002001   -0.625933

siesta: Constrained stress tensor (static) (eV/Ang**3):
siesta:    -0.611946    0.006839    0.004477
siesta:     0.006839   -0.624185    0.002001
siesta:     0.004477    0.002001   -0.625933

siesta: Cell volume =         51.616568 Ang**3

siesta: Pressure (static):
siesta:                Solid            Molecule  Units
siesta:           0.00676009          0.00674894  Ry/Bohr**3
siesta:           0.62068804          0.61966495  eV/Ang**3
siesta:         994.46262768        992.82343543  kBar
(Free)E+ p_basis*V_orbitals  =       -2932.075760
(Free)Eharris+ p_basis*V_orbitals  =       -2954.555012
>> End of run:   2-JUL-2017  11:48:30
Job completed
