Siesta Version:                                        siesta-3.1
Architecture  : ifort11-macosx64
Compiler flags: ifort  -O2
SERIAL version

* Running in serial mode
>> Start of run:  10-JUN-2011  14:39:36

                           ***********************       
                           *  WELCOME TO SIESTA  *       
                           ***********************       

reinit: Reading from standard input
************************** Dump of input data file ****************************
#
# MgCO3 in primitive cell. SZ. Variable cell. Harris. Broyden Optim
#
SystemName	MgCo3 R-3c Harris -- SZ, 100 R -- variable cell at 100 Gpa
SystemLabel	var_cell
NumberOfSpecies		3
NumberOfAtoms	       10
%block ChemicalSpeciesLabel
      1      12     Mg
      2       6     C
      3       8     O
%endblock ChemicalSpeciesLabel
PAO.BasisSize  SZ
Diag.Divide-and-Conquer F
# Rhombohedral primitive cell
# (HEX 3-fold cell had A=4.635 and C=15.023, so alpha=48.179 degrees
#  and a=5.67783 Ang)
LatticeConstant     5.67783 Ang
%block LatticeParameters
1.0 1.0 1.0 48.179 48.179 48.179
%endblock LatticeParameters
AtomicCoordinatesFormat    Fractional
%block AtomicCoordinatesAndAtomicSpecies
  0.0         0.0         0.0      1
  0.5         0.5         0.5      1
  0.25        0.25        0.25     2
 -0.25       -0.25       -0.25     2
  0.5274     -0.0274      0.25     3
  0.25        0.5274     -0.0274   3
 -0.0274      0.25        0.5274   3
 -0.5274      0.0274     -0.25     3
 -0.25       -0.5274      0.0274   3
  0.0274     -0.25       -0.5274   3
%endblock AtomicCoordinatesAndAtomicSpecies
kgrid_cutoff 15.0 Ang
Solution.Method       diagon
MeshCutoff             100 Ry
DM.NumberBroyden       4
DM.UseSaveDM           T
DM.MixingWeight        0.1         # New DM amount for next SCF cycle
DM.Tolerance           1.d-3       # Tolerance in maximum difference
                                   # between input and output DM
MaxSCFIterations       20
WriteCoorStep      .true.
WriteForces        .true.
HarrisFunctional T
MD.TypeOfRun         Broyden
MD.Variable-Cell      T
MD.Target-pressure   100.0 GPa
MD.Num-CG-steps	     30
MD.Max-Stress-Tol    2.0 GPa
MD.Broyden.Initial.Inverse.Jacobian 1.0
MD.Broyden.History.Steps 6
************************** End of input data file *****************************

reinit: -----------------------------------------------------------------------
reinit: System Name: MgCo3 R-3c Harris -- SZ, 100 R -- variable cell at 100 Gpa
reinit: -----------------------------------------------------------------------
reinit: System Label: var_cell                                                    
reinit: -----------------------------------------------------------------------

initatom: Reading input for the pseudopotentials and atomic orbitals ----------
 Species number:            1  Label: Mg Atomic number:          12
 Species number:            2  Label: C Atomic number:           6
 Species number:            3  Label: O Atomic number:           8
Ground state valence configuration:   3s02
Reading pseudopotential information in formatted form from Mg.psf

Valence configuration for pseudopotential generation:
3s( 2.00) rc: 2.59
3p( 0.00) rc: 2.59
3d( 0.00) rc: 2.59
4f( 0.00) rc: 2.59
Ground state valence configuration:   2s02  2p02
Reading pseudopotential information in formatted form from C.psf

Valence configuration for pseudopotential generation:
2s( 2.00) rc: 1.49
2p( 2.00) rc: 1.52
3d( 0.00) rc: 1.58
Ground state valence configuration:   2s02  2p04
Reading pseudopotential information in formatted form from O.psf

Valence configuration for pseudopotential generation:
2s( 2.00) rc: 1.14
2p( 4.00) rc: 1.14
3d( 0.00) rc: 1.14
4f( 0.00) rc: 1.14
For Mg, standard SIESTA heuristics set lmxkb to 1
 (one more than the basis l, including polarization orbitals).
Use PS.lmax or PS.KBprojectors blocks to override.
For C, standard SIESTA heuristics set lmxkb to 2
 (one more than the basis l, including polarization orbitals).
Use PS.lmax or PS.KBprojectors blocks to override.
For O, standard SIESTA heuristics set lmxkb to 2
 (one more than the basis l, including polarization orbitals).
Use PS.lmax or PS.KBprojectors blocks to override.

<basis_specs>
===============================================================================
Mg                   Z=  12    Mass=  24.310        Charge= 0.17977+309
Lmxo=0 Lmxkb=1     BasisType=split      Semic=F
L=0  Nsemic=0  Cnfigmx=3
          n=1  nzeta=1  polorb=0
            splnorm:   0.15000    
               vcte:    0.0000    
               rinn:    0.0000    
                rcs:    0.0000    
            lambdas:    1.0000    
-------------------------------------------------------------------------------
L=0  Nkbl=1  erefs: 0.17977+309
L=1  Nkbl=1  erefs: 0.17977+309
===============================================================================
</basis_specs>

atom: Called for Mg                    (Z =  12)

read_vps: Pseudopotential generation method:
read_vps: ATM3      Troullier-Martins                       
Total valence charge:    2.00000

xc_check: Exchange-correlation functional:
xc_check: Ceperley-Alder
V l=0 = -2*Zval/r beyond r=  3.5878
V l=1 = -2*Zval/r beyond r=  3.5878
All V_l potentials equal beyond r=  2.5600
This should be close to max(r_c) in ps generation
All pots = -2*Zval/r beyond r=  3.5878
Using large-core scheme for Vlocal

atom: Estimated core radius    3.58779

atom: Including non-local core corrections could be a good idea
atom: Maximum radius for 4*pi*r*r*local-pseudopot. charge    3.91588
atom: Maximum radius for r*vlocal+2*Zval:    3.63292
GHOST: No ghost state for L =  0
GHOST: No ghost state for L =  1

KBgen: Kleinman-Bylander projectors: 
   l= 0   rc=  2.657845   el= -0.351328   Ekb=  2.184400   kbcos=  0.257081
   l= 1   rc=  2.657845   el= -0.101748   Ekb=  0.525536   kbcos=  0.270508

KBgen: Total number of  Kleinman-Bylander projectors:    4
atom: -------------------------------------------------------------------------

atom: SANKEY-TYPE ORBITALS:

SPLIT: Orbitals with angular momentum L= 0

SPLIT: Basis orbitals for state 3s

SPLIT: PAO cut-off radius determined from an
SPLIT: energy shift=  0.020000 Ry

   izeta = 1
                 lambda =    1.000000
                     rc =    6.619780
                 energy =   -0.332103
                kinetic =    0.289627
    potential(screened) =   -0.621729
       potential(ionic) =   -1.387191
atom: Total number of Sankey-type orbitals:  1

atm_pop: Valence configuration (for local Pseudopot. screening):
 3s( 2.00)                                                            
Vna: chval, zval:    2.00000   2.00000

Vna:  Cut-off radius for the neutral-atom potential:   6.619780

atom: _________________________________________________________________________

<basis_specs>
===============================================================================
C                    Z=   6    Mass=  12.010        Charge= 0.17977+309
Lmxo=1 Lmxkb=2     BasisType=split      Semic=F
L=0  Nsemic=0  Cnfigmx=2
          n=1  nzeta=1  polorb=0
            splnorm:   0.15000    
               vcte:    0.0000    
               rinn:    0.0000    
                rcs:    0.0000    
            lambdas:    1.0000    
L=1  Nsemic=0  Cnfigmx=2
          n=1  nzeta=1  polorb=0
            splnorm:   0.15000    
               vcte:    0.0000    
               rinn:    0.0000    
                rcs:    0.0000    
            lambdas:    1.0000    
-------------------------------------------------------------------------------
L=0  Nkbl=1  erefs: 0.17977+309
L=1  Nkbl=1  erefs: 0.17977+309
L=2  Nkbl=1  erefs: 0.17977+309
===============================================================================
</basis_specs>

atom: Called for C                     (Z =   6)

read_vps: Pseudopotential generation method:
read_vps: ATM3      Troullier-Martins                       
Total valence charge:    4.00000

xc_check: Exchange-correlation functional:
xc_check: Ceperley-Alder
V l=0 = -2*Zval/r beyond r=  1.4666
V l=1 = -2*Zval/r beyond r=  1.5038
V l=2 = -2*Zval/r beyond r=  1.5612
All V_l potentials equal beyond r=  1.5612
This should be close to max(r_c) in ps generation
All pots = -2*Zval/r beyond r=  1.5612

VLOCAL1: 99.0% of the norm of Vloc inside     17.809 Ry
VLOCAL1: 99.9% of the norm of Vloc inside     40.586 Ry
atom: Maximum radius for 4*pi*r*r*local-pseudopot. charge    1.88329
atom: Maximum radius for r*vlocal+2*Zval:    1.62091
GHOST: No ghost state for L =  0
GHOST: No ghost state for L =  1
GHOST: No ghost state for L =  2

KBgen: Kleinman-Bylander projectors: 
   l= 0   rc=  1.747182   el= -1.001947   Ekb=  5.181700   kbcos=  0.300603
   l= 1   rc=  1.747182   el= -0.398598   Ekb= -4.328763   kbcos= -0.367074
   l= 2   rc=  1.955272   el=  0.002326   Ekb= -1.016175   kbcos= -0.009979

KBgen: Total number of  Kleinman-Bylander projectors:    9
atom: -------------------------------------------------------------------------

atom: SANKEY-TYPE ORBITALS:

SPLIT: Orbitals with angular momentum L= 0

SPLIT: Basis orbitals for state 2s

SPLIT: PAO cut-off radius determined from an
SPLIT: energy shift=  0.020000 Ry

   izeta = 1
                 lambda =    1.000000
                     rc =    4.191849
                 energy =   -0.983897
                kinetic =    0.886956
    potential(screened) =   -1.870853
       potential(ionic) =   -5.479661

SPLIT: Orbitals with angular momentum L= 1

SPLIT: Basis orbitals for state 2p

SPLIT: PAO cut-off radius determined from an
SPLIT: energy shift=  0.020000 Ry

   izeta = 1
                 lambda =    1.000000
                     rc =    4.870301
                 energy =   -0.379093
                kinetic =    2.545357
    potential(screened) =   -2.924450
       potential(ionic) =   -6.433151
atom: Total number of Sankey-type orbitals:  4

atm_pop: Valence configuration (for local Pseudopot. screening):
 2s( 2.00)                                                            
 2p( 2.00)                                                            
Vna: chval, zval:    4.00000   4.00000

Vna:  Cut-off radius for the neutral-atom potential:   4.870301

atom: _________________________________________________________________________

<basis_specs>
===============================================================================
O                    Z=   8    Mass=  16.000        Charge= 0.17977+309
Lmxo=1 Lmxkb=2     BasisType=split      Semic=F
L=0  Nsemic=0  Cnfigmx=2
          n=1  nzeta=1  polorb=0
            splnorm:   0.15000    
               vcte:    0.0000    
               rinn:    0.0000    
                rcs:    0.0000    
            lambdas:    1.0000    
L=1  Nsemic=0  Cnfigmx=2
          n=1  nzeta=1  polorb=0
            splnorm:   0.15000    
               vcte:    0.0000    
               rinn:    0.0000    
                rcs:    0.0000    
            lambdas:    1.0000    
-------------------------------------------------------------------------------
L=0  Nkbl=1  erefs: 0.17977+309
L=1  Nkbl=1  erefs: 0.17977+309
L=2  Nkbl=1  erefs: 0.17977+309
===============================================================================
</basis_specs>

atom: Called for O                     (Z =   8)

read_vps: Pseudopotential generation method:
read_vps: ATM3      Troullier-Martins                       
Total valence charge:    6.00000

xc_check: Exchange-correlation functional:
xc_check: Ceperley-Alder
V l=0 = -2*Zval/r beyond r=  1.1278
V l=1 = -2*Zval/r beyond r=  1.1278
V l=2 = -2*Zval/r beyond r=  1.1278
All V_l potentials equal beyond r=  1.1278
This should be close to max(r_c) in ps generation
All pots = -2*Zval/r beyond r=  1.1278

VLOCAL1: 99.0% of the norm of Vloc inside     34.126 Ry
VLOCAL1: 99.9% of the norm of Vloc inside     77.774 Ry
atom: Maximum radius for 4*pi*r*r*local-pseudopot. charge    1.37759
atom: Maximum radius for r*vlocal+2*Zval:    1.18566
GHOST: No ghost state for L =  0
GHOST: No ghost state for L =  1
GHOST: No ghost state for L =  2

KBgen: Kleinman-Bylander projectors: 
   l= 0   rc=  1.294105   el= -1.742414   Ekb=  9.135903   kbcos=  0.326910
   l= 1   rc=  1.294105   el= -0.676589   Ekb= -8.124878   kbcos= -0.395047
   l= 2   rc=  1.448233   el=  0.002386   Ekb= -2.039267   kbcos= -0.003484

KBgen: Total number of  Kleinman-Bylander projectors:    9
atom: -------------------------------------------------------------------------

atom: SANKEY-TYPE ORBITALS:

SPLIT: Orbitals with angular momentum L= 0

SPLIT: Basis orbitals for state 2s

SPLIT: PAO cut-off radius determined from an
SPLIT: energy shift=  0.020000 Ry

   izeta = 1
                 lambda =    1.000000
                     rc =    3.305093
                 energy =   -1.723766
                kinetic =    1.614911
    potential(screened) =   -3.338677
       potential(ionic) =  -11.304675

SPLIT: Orbitals with angular momentum L= 1

SPLIT: Basis orbitals for state 2p

SPLIT: PAO cut-off radius determined from an
SPLIT: energy shift=  0.020000 Ry

   izeta = 1
                 lambda =    1.000000
                     rc =    3.937239
                 energy =   -0.658841
                kinetic =    5.005986
    potential(screened) =   -5.664827
       potential(ionic) =  -13.452360
atom: Total number of Sankey-type orbitals:  4

atm_pop: Valence configuration (for local Pseudopot. screening):
 2s( 2.00)                                                            
 2p( 4.00)                                                            
Vna: chval, zval:    6.00000   6.00000

Vna:  Cut-off radius for the neutral-atom potential:   3.937239

atom: _________________________________________________________________________

prinput: Basis input ----------------------------------------------------------

PAO.BasisType split     

%block ChemicalSpeciesLabel
    1   12 Mg                      # Species index, atomic number, species label
    2    6 C                       # Species index, atomic number, species label
    3    8 O                       # Species index, atomic number, species label
%endblock ChemicalSpeciesLabel

%block PAO.Basis                 # Define Basis set
Mg                    1                    # Species label, number of l-shells
 n=3   0   1                         # n, l, Nzeta 
   6.620   
   1.000   
C                     2                    # Species label, number of l-shells
 n=2   0   1                         # n, l, Nzeta 
   4.192   
   1.000   
 n=2   1   1                         # n, l, Nzeta 
   4.870   
   1.000   
O                     2                    # Species label, number of l-shells
 n=2   0   1                         # n, l, Nzeta 
   3.305   
   1.000   
 n=2   1   1                         # n, l, Nzeta 
   3.937   
   1.000   
%endblock PAO.Basis

prinput: ----------------------------------------------------------------------

coor:   Atomic-coordinates input format  =     Fractional

siesta: Atomic coordinates (Bohr) and species
siesta:      0.00000   0.00000   0.00000  1        1
siesta:     12.51930   5.59740   3.66414  1        2
siesta:      6.25965   2.79870   1.83207  2        3
siesta:     -6.25965  -2.79870  -1.83207  2        4
siesta:      7.25136   0.58061   1.83207  3        5
siesta:      6.25965   4.12944  -0.20079  3        6
siesta:      5.26794   3.68605   3.86493  3        7
siesta:     -7.25136  -0.58061  -1.83207  3        8
siesta:     -6.25965  -4.12944   0.20079  3        9
siesta:     -5.26794  -3.68605  -3.86493  3       10

siesta: System type = bulk      

initatomlists: Number of atoms, orbitals, and projectors:     10    34    80

siesta: ******************** Simulation parameters ****************************
siesta:
siesta: The following are some of the parameters of the simulation.
siesta: A complete list of the parameters used, including default values,
siesta: can be found in file out.fdf
siesta:
redata: Non-Collinear-spin run           =     F
redata: SpinPolarized (Up/Down) run      =     F
redata: Number of spin components        =     1
redata: Long output                      =     F
redata: Number of Atomic Species         =        3
redata: Charge density info will appear in .RHO file
redata: Write Mulliken Pop.              =     NO
redata: Mesh Cutoff                      =   100.0000  Ry
redata: Net charge of the system         =     0.0000 |e|
redata: Max. number of SCF Iter          =       20
redata: Broyden mixing with     4 saved histories.
redata: Mix DM in first SCF step ?       =     F
redata: Write Pulay info on disk?        =     F
redata: Discard 1st Pulay DM after  kick =     F
redata: New DM Mixing Weight             =     0.1000
redata: New DM Occupancy tolerance       = 0.000000000001
redata: No kicks to SCF
redata: DM Mixing Weight for Kicks       =     0.5000
redata: DM Tolerance for SCF             =     0.001000
redata: Require Energy convergence for SCF =     F
redata: DM Energy tolerance for SCF      =     0.000100 eV
redata: Require Harris convergence for SCF =     F
redata: DM Harris energy tolerance for SCF =     0.000100 eV
redata: Using Saved Data (generic)   =     F
redata: Use continuation files for DM    =     T
redata: Neglect nonoverlap interactions  =     F
redata: Method of Calculation            =     Diagonalization
redata: Divide and Conquer               =     F
redata: Electronic Temperature           =     0.0019  Ry
redata: Fix the spin of the system       =     F
redata: Dynamics option                  =     Broyden coord. optimization
redata: Variable cell                    =     T
redata: Maximum number of CG moves       =       30
redata: Force tolerance                  =     0.0016  Ry/Bohr
redata: Stress tolerance                 =     2.0000  GPa
redata: ***********************************************************************
Total number of electrons:    48.000000
Total ionic charge:    48.000000
 Kpoints in:          154 . Kpoints trimmed:          154

siesta: k-grid: Number of k-points =   154
siesta: k-grid: Cutoff (effective) =    16.222 Ang
siesta: k-grid: Supercell and displacements
siesta: k-grid:   -7   0   7      0.500
siesta: k-grid:    0  -7   7      0.000
siesta: k-grid:    0   0   6      0.000
Naive supercell factors:     4    4    4
Auxiliary supercell needs to be larger than naive one...

superc: Internal auxiliary supercell:     5 x     5 x     4  =     100
superc: Number of atoms, orbitals, and projectors:   1000   3400   8000

* Maximum dynamic memory allocated =     3 MB

siesta:                 ==============================
                            Begin CG move =      0
                        ==============================

outcoor: Atomic coordinates (fractional):                   
    0.00000000    0.00000000    0.00000000   1       1  Mg
    0.50000000    0.50000000    0.50000000   1       2  Mg
    0.25000000    0.25000000    0.25000000   2       3  C
   -0.25000000   -0.25000000   -0.25000000   2       4  C
    0.52740000   -0.02740000    0.25000000   3       5  O
    0.25000000    0.52740000   -0.02740000   3       6  O
   -0.02740000    0.25000000    0.52740000   3       7  O
   -0.52740000    0.02740000   -0.25000000   3       8  O
   -0.25000000   -0.52740000    0.02740000   3       9  O
    0.02740000   -0.25000000   -0.52740000   3      10  O

superc: Internal auxiliary supercell:     5 x     5 x     4  =     100
superc: Number of atoms, orbitals, and projectors:   1000   3400   8000

outcell: Unit cell vectors (Ang):
        5.677830    0.000000    0.000000
        3.786009    4.231299    0.000000
        3.786009    1.692731    3.877957

outcell: Cell vector modules (Ang)   :    5.677830    5.677830    5.677830
outcell: Cell angles (23,13,12) (deg):     48.1790     48.1790     48.1790
outcell: Cell volume (Ang**3)        :     93.1663
New_DM. Step:     1
Initializing Density Matrix...

InitMesh: MESH =    32 x    32 x    32 =       32768
InitMesh: Mesh cutoff (required, used) =   100.000   112.857 Ry

* Maximum dynamic memory allocated =    12 MB

stepf: Fermi-Dirac step function
 Broyden: No of relevant DM elements:         9610
 maxit for broyden:            4
 cycle on maxit:  T
 variable weight:  T
 initial alpha:   0.100000000000000     

siesta: Program's energy decomposition (eV):
siesta: Ebs     =      -700.301762
siesta: Eions   =      5228.674091
siesta: Ena     =      1092.429444
siesta: Ekin    =      2100.835149
siesta: Enl     =      -258.044678
siesta: DEna    =        -0.000159
siesta: DUscf   =         0.000000
siesta: DUext   =         0.000000
siesta: Exc     =      -683.847183
siesta: eta*DQ  =         0.000000
siesta: Emadel  =         0.000000
siesta: Emeta   =         0.000000
siesta: Emolmec =         0.000000
siesta: Ekinion =         0.000000
siesta: Eharris =     -2966.326781
siesta: Etot    =     -2977.301519
siesta: FreeEng =     -2977.301519

siesta: Eharris(eV) =   -2966.326781


siesta: Eharris(eV) =   -2966.326781

timer: Routine,Calls,Time,% = IterSCF        1       1.808  72.10
elaps: Routine,Calls,Wall,% = IterSCF        1       1.807  72.07

siesta: E_KS - E_eggbox =     -2949.8289

siesta: Atomic forces (eV/Ang):
     1    0.000000    0.000000    0.000000
     2    0.000000    0.000000    0.000000
     3   -0.000003    0.000000    0.000000
     4    0.000004   -0.000001    0.000000
     5    2.760278   -6.173723   -0.000001
     6    0.000005    3.703921   -5.658186
     7   -2.760272    2.469801    5.658184
     8   -2.760280    6.173723    0.000002
     9    0.000000   -3.703923    5.658186
    10    2.760285   -2.469810   -5.658184
----------------------------------------
   Tot    0.000017   -0.000010    0.000000
----------------------------------------
   Max    6.173723
   Res    3.024370    sqrt( Sum f_i^2 / 3N )
----------------------------------------
   Max    6.173723    constrained

Stress-tensor-Voigt (kbar):      567.99      382.08      355.54      103.89       30.41       68.01
(Free)E + p*V (eV/cell)    -2975.1357
Target enthalpy (eV/cell)    -2891.6797

siesta: Stress tensor (static) (eV/Ang**3):
         0.354509    0.064841    0.042446
         0.064841    0.238474    0.018978
         0.042446    0.018978    0.221907

siesta: Pressure (static):       -435.20378996  kBar

siesta: Stress tensor (total) (eV/Ang**3):
         0.354509    0.064841    0.042446
         0.064841    0.238474    0.018978
         0.042446    0.018978    0.221907

siesta: Pressure (total):       -435.20378996  kBar
 
Broyden_optim: max_history for broyden:   6
Broyden_optim: cycle on maxit: T
Broyden_optim: initial inverse jacobian:   1.0000
 
Broyden_optim: No of elements:     36

Broyden_optim: No target stress found, assuming hydrostatic MD.TargetPressure.

Broyden_optim: Target stress (kBar)
Broyden_optim:     -1000.000       0.000       0.000
Broyden_optim:         0.000   -1000.000       0.000
Broyden_optim:         0.000       0.000   -1000.000

* Maximum dynamic memory allocated =    12 MB

siesta:                 ==============================
                            Begin CG move =      1
                        ==============================

outcoor: Atomic coordinates (fractional):                   
    0.00000000    0.00000000    0.00000000   1       1  Mg
    0.50000000    0.50000000    0.50000000   1       2  Mg
    0.24999999    0.24999999    0.24999999   2       3  C
   -0.24999998   -0.24999999   -0.24999999   2       4  C
    0.53740572   -0.03740574    0.24999999   3       5  O
    0.25000002    0.53740574   -0.03740575   3       6  O
   -0.03740569    0.25000003    0.53740578   3       7  O
   -0.53740573    0.03740574   -0.24999999   3       8  O
   -0.25000000   -0.53740573    0.03740576   3       9  O
    0.03740574   -0.25000003   -0.53740576   3      10  O
 Kpoints in:          168 . Kpoints trimmed:          168

siesta: k-grid: Number of k-points =   168
siesta: k-grid: Cutoff (effective) =    15.185 Ang
siesta: k-grid: Supercell and displacements
siesta: k-grid:   -7   0   7      0.500
siesta: k-grid:    7  -7   0      0.000
siesta: k-grid:    0   0   6      0.000
Naive supercell factors:     4    4    4
Auxiliary supercell needs to be larger than naive one...

superc: Internal auxiliary supercell:     5 x     5 x     4  =     100
superc: Number of atoms, orbitals, and projectors:   1000   3400   8000

outcell: Unit cell vectors (Ang):
        5.251635   -0.028238   -0.018485
        3.480777    3.932514   -0.018485
        3.480777    1.556261    3.611518

outcell: Cell vector modules (Ang)   :    5.251744    5.251744    5.251744
outcell: Cell angles (23,13,12) (deg):     48.7948     48.7948     48.7948
outcell: Cell volume (Ang**3)        :     75.2463
New_DM. Step:     2
Initializing Density Matrix...

InitMesh: MESH =    30 x    30 x    30 =       27000
InitMesh: Mesh cutoff (required, used) =   100.000   116.744 Ry

siesta: Eharris(eV) =   -2965.796955


siesta: Eharris(eV) =   -2965.796955


siesta: Atomic forces (eV/Ang):
     1    0.000000    0.000000    0.000001
     2    0.000001   -0.000001    0.000000
     3   -0.000001    0.000004   -0.000003
     4    0.000001   -0.000002    0.000000
     5    3.774812   -8.442859   -0.000009
     6   -0.000005    5.065272   -7.737802
     7   -3.774792    3.377573    7.737822
     8   -3.774809    8.442848    0.000004
     9    0.000016   -5.065278    7.737808
    10    3.774808   -3.377547   -7.737805
----------------------------------------
   Tot    0.000032    0.000011    0.000018
----------------------------------------
   Max    8.442859
   Res    4.135959    sqrt( Sum f_i^2 / 3N )
----------------------------------------
   Max    8.442859    constrained

Stress-tensor-Voigt (kbar):      453.51       49.24       -8.48      225.91       66.12      147.88
(Free)E + p*V (eV/cell)    -2956.5878
Target enthalpy (eV/cell)    -2901.8855

siesta: Stress tensor (static) (eV/Ang**3):
         0.283057    0.141000    0.092301
         0.141000    0.030733    0.041268
         0.092301    0.041268   -0.005294

siesta: Pressure (static):       -164.75624559  kBar

siesta: Stress tensor (total) (eV/Ang**3):
         0.283057    0.141000    0.092301
         0.141000    0.030733    0.041268
         0.092301    0.041268   -0.005294

siesta: Pressure (total):       -164.75624559  kBar

* Maximum dynamic memory allocated =    12 MB

siesta:                 ==============================
                            Begin CG move =      2
                        ==============================

outcoor: Atomic coordinates (fractional):                   
    0.00000000    0.00000000    0.00000001   1       1  Mg
    0.50000001    0.50000000    0.50000001   1       2  Mg
    0.24999998    0.25000001    0.24999998   2       3  C
   -0.24999997   -0.25000000   -0.24999999   2       4  C
    0.56751363   -0.06751372    0.24999992   3       5  O
    0.24999998    0.56751354   -0.06751366   3       6  O
   -0.06751345    0.25000021    0.56751387   3       7  O
   -0.56751362    0.06751366   -0.24999996   3       8  O
   -0.24999987   -0.56751351    0.06751375   3       9  O
    0.06751362   -0.24999996   -0.56751361   3      10  O
 Kpoints in:          280 . Kpoints trimmed:          280

siesta: k-grid: Number of k-points =   280
siesta: k-grid: Cutoff (effective) =    15.757 Ang
siesta: k-grid: Supercell and displacements
siesta: k-grid:    8  -8   0      0.500
siesta: k-grid:    8   0  -8      0.500
siesta: k-grid:    7   0   0      0.000
Naive supercell factors:     5    5    5

superc: Internal auxiliary supercell:     5 x     5 x     5  =     125
superc: Number of atoms, orbitals, and projectors:   1250   4250  10000

outcell: Unit cell vectors (Ang):
        4.501578   -0.144814   -0.094797
        2.893757    3.451281   -0.094798
        2.893757    1.293804    3.201000

outcell: Cell vector modules (Ang)   :    4.504904    4.504904    4.504904
outcell: Cell angles (23,13,12) (deg):     51.8518     51.8518     51.8518
outcell: Cell volume (Ang**3)        :     52.2565
New_DM. Step:     3
DM reset as supercell changed.
Initializing Density Matrix...

InitMesh: MESH =    24 x    24 x    24 =       13824
InitMesh: Mesh cutoff (required, used) =   100.000   105.274 Ry

siesta: Eharris(eV) =   -2956.022123


siesta: Eharris(eV) =   -2956.022123


siesta: Atomic forces (eV/Ang):
     1    0.000017    0.000001    0.000047
     2    0.000034   -0.000026    0.000020
     3    0.000010   -0.000015    0.000020
     4   -0.000006    0.000006    0.000000
     5    1.024350   -2.291063    0.000025
     6    0.000012    1.374500   -2.099727
     7   -1.024411    0.916550    2.099641
     8   -1.024318    2.291030    0.000010
     9   -0.000001   -1.374551    2.099681
    10    1.024313   -0.916505   -2.099710
----------------------------------------
   Tot   -0.000002   -0.000071    0.000007
----------------------------------------
   Max    2.291063
   Res    1.122325    sqrt( Sum f_i^2 / 3N )
----------------------------------------
   Max    2.291063    constrained

Stress-tensor-Voigt (kbar):     -908.64    -1196.61    -1237.74      160.92       47.10      105.34
(Free)E + p*V (eV/cell)    -2897.9862
Target enthalpy (eV/cell)    -2901.7151

siesta: Stress tensor (static) (eV/Ang**3):
        -0.567122    0.100438    0.065748
         0.100438   -0.746859    0.029396
         0.065748    0.029396   -0.772525

siesta: Pressure (static):       1114.32906556  kBar

siesta: Stress tensor (total) (eV/Ang**3):
        -0.567122    0.100438    0.065748
         0.100438   -0.746859    0.029396
         0.065748    0.029396   -0.772525

siesta: Pressure (total):       1114.32906556  kBar

* Maximum dynamic memory allocated =    12 MB

siesta:                 ==============================
                            Begin CG move =      3
                        ==============================

outcoor: Atomic coordinates (fractional):                   
    0.00000006    0.00000004    0.00000016   1       1  Mg
    0.50000013    0.50000001    0.50000011   1       2  Mg
    0.25000002    0.24999999    0.25000004   2       3  C
   -0.25000000   -0.24999999   -0.24999999   2       4  C
    0.56782837   -0.06782839    0.25000001   3       5  O
    0.25000002    0.56782822   -0.06782832   3       6  O
   -0.06782842    0.25000006    0.56782815   3       7  O
   -0.56782826    0.06782832   -0.24999992   3       8  O
   -0.24999988   -0.56782830    0.06782826   3       9  O
    0.06782824   -0.24999994   -0.56782826   3      10  O
 Kpoints in:          280 . Kpoints trimmed:          280

siesta: k-grid: Number of k-points =   280
siesta: k-grid: Cutoff (effective) =    16.014 Ang
siesta: k-grid: Supercell and displacements
siesta: k-grid:    8  -8   0      0.500
siesta: k-grid:    8   0  -8      0.500
siesta: k-grid:    7   0   0      0.000
Naive supercell factors:     5    5    5

superc: Internal auxiliary supercell:     5 x     5 x     5  =     125
superc: Number of atoms, orbitals, and projectors:   1250   4250  10000

outcell: Unit cell vectors (Ang):
        4.571330   -0.160804   -0.105265
        2.928352    3.513925   -0.105265
        2.928352    1.309271    3.262601

outcell: Cell vector modules (Ang)   :    4.575368    4.575369    4.575369
outcell: Cell angles (23,13,12) (deg):     52.1934     52.1934     52.1934
outcell: Cell volume (Ang**3)        :     55.3037
New_DM. Step:     4
Initializing Density Matrix...

InitMesh: MESH =    24 x    24 x    24 =       13824
InitMesh: Mesh cutoff (required, used) =   100.000   102.487 Ry

siesta: Eharris(eV) =   -2959.934994


siesta: Eharris(eV) =   -2959.934994


siesta: Atomic forces (eV/Ang):
     1   -0.000046   -0.000024   -0.000050
     2   -0.000072    0.000003   -0.000028
     3    0.000010   -0.000009   -0.000010
     4    0.000001   -0.000007    0.000015
     5    0.428577   -0.958422   -0.000004
     6    0.000007    0.575047   -0.878394
     7   -0.428457    0.383430    0.878458
     8   -0.428541    0.958445   -0.000002
     9   -0.000003   -0.575019    0.878433
    10    0.428555   -0.383454   -0.878417
----------------------------------------
   Tot    0.000032   -0.000008    0.000001
----------------------------------------
   Max    0.958445
   Res    0.469527    sqrt( Sum f_i^2 / 3N )
----------------------------------------
   Max    0.958445    constrained

Stress-tensor-Voigt (kbar):     -493.82     -616.44     -633.95       68.52       20.05       44.86
(Free)E + p*V (eV/cell)    -2918.4395
Target enthalpy (eV/cell)    -2903.9906

siesta: Stress tensor (static) (eV/Ang**3):
        -0.308217    0.042767    0.027996
         0.042767   -0.384748    0.012517
         0.027996    0.012517   -0.395676

siesta: Pressure (static):        581.40487510  kBar

siesta: Stress tensor (total) (eV/Ang**3):
        -0.308217    0.042767    0.027996
         0.042767   -0.384748    0.012517
         0.027996    0.012517   -0.395676

siesta: Pressure (total):        581.40487510  kBar

* Maximum dynamic memory allocated =    12 MB

siesta:                 ==============================
                            Begin CG move =      4
                        ==============================

outcoor: Atomic coordinates (fractional):                   
    0.00000009    0.00000007    0.00000021   1       1  Mg
    0.50000017    0.50000004    0.50000015   1       2  Mg
    0.25000001    0.24999999    0.25000004   2       3  C
   -0.25000000   -0.24999999   -0.25000000   2       4  C
    0.55965146   -0.05965154    0.25000000   3       5  O
    0.25000003    0.55965136   -0.05965147   3       6  O
   -0.05965162    0.24999999    0.55965119   3       7  O
   -0.55965138    0.05965146   -0.24999993   3       8  O
   -0.24999991   -0.55965145    0.05965136   3       9  O
    0.05965135   -0.24999995   -0.55965141   3      10  O
 Kpoints in:          280 . Kpoints trimmed:          280

siesta: k-grid: Number of k-points =   280
siesta: k-grid: Cutoff (effective) =    16.549 Ang
siesta: k-grid: Supercell and displacements
siesta: k-grid:    8  -8   0      0.500
siesta: k-grid:    8   0  -8      0.500
siesta: k-grid:    7   0   0      0.000
Naive supercell factors:     5    5    5

superc: Internal auxiliary supercell:     5 x     5 x     5  =     125
superc: Number of atoms, orbitals, and projectors:   1250   4250  10000

outcell: Unit cell vectors (Ang):
        4.783812   -0.127118   -0.083213
        3.095141    3.649811   -0.083213
        3.095141    1.383843    3.378318

outcell: Cell vector modules (Ang)   :    4.786224    4.786224    4.786225
outcell: Cell angles (23,13,12) (deg):     51.2150     51.2150     51.2150
outcell: Cell volume (Ang**3)        :     61.4819
New_DM. Step:     5
Initializing Density Matrix...

InitMesh: MESH =    30 x    30 x    30 =       27000
InitMesh: Mesh cutoff (required, used) =   100.000   144.596 Ry

siesta: Eharris(eV) =   -2964.351075


siesta: Eharris(eV) =   -2964.351075


siesta: Atomic forces (eV/Ang):
     1   -0.000057   -0.000024   -0.000051
     2   -0.000078   -0.000001   -0.000027
     3    0.000009   -0.000006   -0.000012
     4    0.000001   -0.000008    0.000016
     5    1.256626   -2.810529   -0.000019
     6    0.000025    1.686211   -2.575842
     7   -1.256547    1.124328    2.575916
     8   -1.256606    2.810558    0.000003
     9   -0.000009   -1.686175    2.575869
    10    1.256632   -1.124392   -2.575866
----------------------------------------
   Tot   -0.000004   -0.000038   -0.000014
----------------------------------------
   Max    2.810558
   Res    1.376831    sqrt( Sum f_i^2 / 3N )
----------------------------------------
   Max    2.810558    constrained

Stress-tensor-Voigt (kbar):       21.23     -170.93     -198.36      107.38       31.43       70.29
(Free)E + p*V (eV/cell)    -2940.2785
Target enthalpy (eV/cell)    -2906.3571

siesta: Stress tensor (static) (eV/Ang**3):
         0.013248    0.067018    0.043872
         0.067018   -0.106683    0.019615
         0.043872    0.019615   -0.123806

siesta: Pressure (static):        116.02089345  kBar

siesta: Stress tensor (total) (eV/Ang**3):
         0.013248    0.067018    0.043872
         0.067018   -0.106683    0.019615
         0.043872    0.019615   -0.123806

siesta: Pressure (total):        116.02089345  kBar

* Maximum dynamic memory allocated =    14 MB

siesta:                 ==============================
                            Begin CG move =      5
                        ==============================

outcoor: Atomic coordinates (fractional):                   
   -0.00000001   -0.00000006   -0.00000011   1       1  Mg
    0.49999987    0.49999994    0.49999987   1       2  Mg
    0.25000004    0.24999999    0.25000000   2       3  C
   -0.24999998   -0.25000000   -0.24999996   2       4  C
    0.56232146   -0.06232067    0.25000037   3       5  O
    0.24999982    0.56232087   -0.06232096   3       6  O
   -0.06232054    0.25000067    0.56232141   3       7  O
   -0.56232113    0.06232080   -0.25000013   3       8  O
   -0.24999982   -0.56232094    0.06232112   3       9  O
    0.06232107   -0.24999990   -0.56232081   3      10  O
 Kpoints in:          224 . Kpoints trimmed:          224

siesta: k-grid: Number of k-points =   224
siesta: k-grid: Cutoff (effective) =    16.406 Ang
siesta: k-grid: Supercell and displacements
siesta: k-grid:   -8   8   0      0.500
siesta: k-grid:    8   0  -8      0.500
siesta: k-grid:    0   7   0      0.000
Naive supercell factors:     5    5    5

superc: Internal auxiliary supercell:     5 x     5 x     5  =     125
superc: Number of atoms, orbitals, and projectors:   1250   4250  10000

outcell: Unit cell vectors (Ang):
        4.701874   -0.144158   -0.094368
        3.027805    3.600110   -0.094368
        3.027805    1.353736    3.337230

outcell: Cell vector modules (Ang)   :    4.705030    4.705029    4.705030
outcell: Cell angles (23,13,12) (deg):     51.6801     51.6801     51.6801
outcell: Cell volume (Ang**3)        :     59.2305
New_DM. Step:     6
Initializing Density Matrix...

InitMesh: MESH =    30 x    30 x    30 =       27000
InitMesh: Mesh cutoff (required, used) =   100.000   150.478 Ry

siesta: Eharris(eV) =   -2963.047935


siesta: Eharris(eV) =   -2963.047935


siesta: Atomic forces (eV/Ang):
     1    0.000047   -0.000005    0.000040
     2    0.000076   -0.000004    0.000008
     3    0.000006   -0.000005    0.000016
     4    0.000005   -0.000009    0.000010
     5    0.994640   -2.224712    0.000066
     6   -0.000006    1.334689   -2.038911
     7   -0.994665    0.890039    2.038880
     8   -0.994644    2.224683    0.000006
     9   -0.000004   -1.334699    2.038886
    10    0.994671   -0.889932   -2.038915
----------------------------------------
   Tot    0.000127    0.000046    0.000087
----------------------------------------
   Max    2.224712
   Res    1.089821    sqrt( Sum f_i^2 / 3N )
----------------------------------------
   Max    2.224712    constrained

Stress-tensor-Voigt (kbar):     -130.18     -306.92     -332.16       98.77       28.91       64.65
(Free)E + p*V (eV/cell)    -2933.3743
Target enthalpy (eV/cell)    -2905.8853

siesta: Stress tensor (static) (eV/Ang**3):
        -0.081251    0.061644    0.040353
         0.061644   -0.191562    0.018042
         0.040353    0.018041   -0.207314

siesta: Pressure (static):        256.41892866  kBar

siesta: Stress tensor (total) (eV/Ang**3):
        -0.081251    0.061644    0.040353
         0.061644   -0.191562    0.018042
         0.040353    0.018041   -0.207314

siesta: Pressure (total):        256.41892866  kBar

* Maximum dynamic memory allocated =    14 MB

siesta:                 ==============================
                            Begin CG move =      6
                        ==============================

outcoor: Atomic coordinates (fractional):                   
    0.00000025    0.00000006   -0.00000005   1       1  Mg
    0.50000000    0.50000016    0.49999992   1       2  Mg
    0.25000007    0.25000000    0.24999999   2       3  C
   -0.24999993   -0.25000001   -0.24999989   2       4  C
    0.56337780   -0.06337610    0.25000101   3       5  O
    0.24999937    0.56337647   -0.06337684   3       6  O
   -0.06337564    0.25000183    0.56337796   3       7  O
   -0.56337719    0.06337633   -0.25000041   3       8  O
   -0.24999967   -0.56337670    0.06337716   3       9  O
    0.06337709   -0.24999962   -0.56337635   3      10  O
 Kpoints in:          280 . Kpoints trimmed:          280

siesta: k-grid: Number of k-points =   280
siesta: k-grid: Cutoff (effective) =    16.336 Ang
siesta: k-grid: Supercell and displacements
siesta: k-grid:   -8   8   0      0.500
siesta: k-grid:    0   8  -8      0.500
siesta: k-grid:    0   7   0      0.000
Naive supercell factors:     5    5    5

superc: Internal auxiliary supercell:     5 x     5 x     5  =     125
superc: Number of atoms, orbitals, and projectors:   1250   4250  10000

outcell: Unit cell vectors (Ang):
        4.663598   -0.159189   -0.104207
        2.991081    3.581606   -0.104207
        2.991081    1.337316    3.324209

outcell: Cell vector modules (Ang)   :    4.667478    4.667475    4.667477
outcell: Cell angles (23,13,12) (deg):     52.0750     52.0750     52.0750
outcell: Cell volume (Ang**3)        :     58.5067
New_DM. Step:     7
Initializing Density Matrix...

InitMesh: MESH =    30 x    30 x    30 =       27000
InitMesh: Mesh cutoff (required, used) =   100.000   153.653 Ry

siesta: Eharris(eV) =   -2962.626682


siesta: Eharris(eV) =   -2962.626682


siesta: Atomic forces (eV/Ang):
     1    0.000110   -0.000071    0.000176
     2    0.000210   -0.000105    0.000009
     3    0.000015    0.000002    0.000044
     4    0.000025    0.000000    0.000022
     5    0.801126   -1.792190    0.000119
     6    0.000004    1.075252   -1.642460
     7   -0.801427    0.717135    1.642302
     8   -0.801097    1.792157   -0.000053
     9    0.000023   -1.075152    1.642414
    10    0.801260   -0.716796   -1.642553
----------------------------------------
   Tot    0.000249    0.000232    0.000020
----------------------------------------
   Max    1.792190
   Res    0.877917    sqrt( Sum f_i^2 / 3N )
----------------------------------------
   Max    1.792190    constrained

Stress-tensor-Voigt (kbar):     -184.86     -332.69     -353.82       82.62       24.18       54.08
(Free)E + p*V (eV/cell)    -2931.5586
Target enthalpy (eV/cell)    -2905.6485

siesta: Stress tensor (static) (eV/Ang**3):
        -0.115378    0.051568    0.033755
         0.051568   -0.207647    0.015089
         0.033755    0.015089   -0.220835

siesta: Pressure (static):        290.45587625  kBar

siesta: Stress tensor (total) (eV/Ang**3):
        -0.115378    0.051568    0.033755
         0.051568   -0.207647    0.015089
         0.033755    0.015089   -0.220835

siesta: Pressure (total):        290.45587625  kBar

* Maximum dynamic memory allocated =    14 MB

siesta:                 ==============================
                            Begin CG move =      7
                        ==============================

outcoor: Atomic coordinates (fractional):                   
    0.00000673    0.00000113    0.00000621   1       1  Mg
    0.50000831    0.50000375    0.50000341   1       2  Mg
    0.25000081    0.25000055    0.25000118   2       3  C
   -0.24999833   -0.24999931   -0.24999789   2       4  C
    0.56900504   -0.06900119    0.25000762   3       5  O
    0.24999347    0.56900181   -0.06900155   3       6  O
   -0.06899851    0.25001826    0.56900606   3       7  O
   -0.56899910    0.06900341   -0.25000130   3       8  O
   -0.24999633   -0.56899926    0.06900582   3       9  O
    0.06900454   -0.24999283   -0.56899954   3      10  O
 Kpoints in:          256 . Kpoints trimmed:          256

siesta: k-grid: Number of k-points =   256
siesta: k-grid: Cutoff (effective) =    16.151 Ang
siesta: k-grid: Supercell and displacements
siesta: k-grid:   -8   8   0      0.500
siesta: k-grid:    0   8  -8      0.500
siesta: k-grid:    0   8   0      0.500
Naive supercell factors:     5    5    5

superc: Internal auxiliary supercell:     5 x     5 x     5  =     125
superc: Number of atoms, orbitals, and projectors:   1250   4250  10000

outcell: Unit cell vectors (Ang):
        4.238538   -0.316390   -0.207102
        2.590498    3.369593   -0.207094
        2.590506    1.158199    3.171126

outcell: Cell vector modules (Ang)   :    4.255373    4.255317    4.255371
outcell: Cell angles (23,13,12) (deg):     56.6434     56.6434     56.6431
outcell: Cell volume (Ang**3)        :     50.2624
New_DM. Step:     8
Initializing Density Matrix...

InitMesh: MESH =    24 x    24 x    24 =       13824
InitMesh: Mesh cutoff (required, used) =   100.000   125.608 Ry

siesta: Eharris(eV) =   -2953.774873


siesta: Eharris(eV) =   -2953.774873


siesta: Atomic forces (eV/Ang):
     1   -0.001549   -0.000451   -0.000382
     2   -0.001915   -0.000929   -0.000094
     3    0.000139    0.000343    0.000439
     4    0.000649   -0.000156   -0.000388
     5   -0.657223    1.473570   -0.001323
     6    0.000597   -0.882944    1.350137
     7    0.659151   -0.589654   -1.349237
     8    0.659247   -1.472388   -0.000081
     9   -0.000321    0.884570   -1.348932
    10   -0.656860    0.589358    1.350222
----------------------------------------
   Tot    0.001915    0.001318    0.000361
----------------------------------------
   Max    1.473570
   Res    0.721456    sqrt( Sum f_i^2 / 3N )
----------------------------------------
   Max    1.473570    constrained

Stress-tensor-Voigt (kbar):    -1282.39    -1077.35    -1048.04     -114.64      -33.53      -75.03
(Free)E + p*V (eV/cell)    -2894.7031
Target enthalpy (eV/cell)    -2898.9672

siesta: Stress tensor (static) (eV/Ang**3):
        -0.800398   -0.071550   -0.046827
        -0.071550   -0.672420   -0.020930
        -0.046827   -0.020930   -0.654130

siesta: Pressure (static):       1135.92760061  kBar

siesta: Stress tensor (total) (eV/Ang**3):
        -0.800398   -0.071550   -0.046827
        -0.071550   -0.672420   -0.020930
        -0.046827   -0.020930   -0.654130

siesta: Pressure (total):       1135.92760061  kBar
Cycling the Broyden process...

* Maximum dynamic memory allocated =    14 MB

siesta:                 ==============================
                            Begin CG move =      8
                        ==============================

outcoor: Atomic coordinates (fractional):                   
    0.00000067   -0.00000151    0.00000060   1       1  Mg
    0.50000077    0.49999869    0.49999914   1       2  Mg
    0.25000054    0.25000078    0.25000135   2       3  C
   -0.24999816   -0.24999925   -0.24999894   2       4  C
    0.56955490   -0.06954835    0.25000368   3       5  O
    0.24999781    0.56955237   -0.06954975   3       6  O
   -0.06954821    0.25000864    0.56955445   3       7  O
   -0.56954887    0.06955294   -0.24999984   3       8  O
   -0.24999898   -0.56954915    0.06955408   3       9  O
    0.06955495   -0.24999492   -0.56954775   3      10  O
 Kpoints in:          280 . Kpoints trimmed:          280

siesta: k-grid: Number of k-points =   280
siesta: k-grid: Cutoff (effective) =    15.281 Ang
siesta: k-grid: Supercell and displacements
siesta: k-grid:   -8   8   0      0.500
siesta: k-grid:    0   8  -8      0.500
siesta: k-grid:    0   7   0      0.000
Naive supercell factors:     5    5    5

superc: Internal auxiliary supercell:     5 x     5 x     5  =     125
superc: Number of atoms, orbitals, and projectors:   1250   4250  10000

outcell: Unit cell vectors (Ang):
        4.356785   -0.236191   -0.154611
        2.729112    3.404283   -0.154608
        2.729114    1.220184    3.181881

outcell: Cell vector modules (Ang)   :    4.365921    4.365902    4.365923
outcell: Cell angles (23,13,12) (deg):     54.3482     54.3482     54.3481
outcell: Cell volume (Ang**3)        :     51.0870
New_DM. Step:     9
Initializing Density Matrix...

InitMesh: MESH =    24 x    24 x    24 =       13824
InitMesh: Mesh cutoff (required, used) =   100.000   115.689 Ry

siesta: Eharris(eV) =   -2954.937870


siesta: Eharris(eV) =   -2954.937870


siesta: Atomic forces (eV/Ang):
     1    0.001769    0.000435    0.000672
     2    0.002114    0.000590    0.000416
     3   -0.000033    0.000125    0.000033
     4    0.000101   -0.000103   -0.000021
     5   -0.132410    0.293822    0.000829
     6    0.000083   -0.177324    0.269150
     7    0.130619   -0.116910   -0.270287
     8    0.131031   -0.294501    0.000879
     9   -0.000064    0.175936   -0.270220
    10   -0.132390    0.118655    0.268745
----------------------------------------
   Tot    0.000820    0.000725    0.000197
----------------------------------------
   Max    0.294501
   Res    0.144135    sqrt( Sum f_i^2 / 3N )
----------------------------------------
   Max    0.294501    constrained

Stress-tensor-Voigt (kbar):    -1061.67    -1094.21    -1098.86       18.19        5.32       11.91
(Free)E + p*V (eV/cell)    -2897.5880
Target enthalpy (eV/cell)    -2900.2955

siesta: Stress tensor (static) (eV/Ang**3):
        -0.662637    0.011350    0.007435
         0.011350   -0.682947    0.003318
         0.007435    0.003318   -0.685845

siesta: Pressure (static):       1084.91433693  kBar

siesta: Stress tensor (total) (eV/Ang**3):
        -0.662637    0.011350    0.007435
         0.011350   -0.682947    0.003318
         0.007435    0.003318   -0.685845

siesta: Pressure (total):       1084.91433693  kBar
Cycling the Broyden process...

* Maximum dynamic memory allocated =    14 MB

siesta:                 ==============================
                            Begin CG move =      9
                        ==============================

outcoor: Atomic coordinates (fractional):                   
    0.00000426    0.00000073    0.00000421   1       1  Mg
    0.50000515    0.50000172    0.50000237   1       2  Mg
    0.25000062    0.25000115    0.25000182   2       3  C
   -0.24999741   -0.24999903   -0.24999854   2       4  C
    0.56700837   -0.06700360    0.25000464   3       5  O
    0.24999734    0.56700601   -0.06700455   3       6  O
   -0.06700356    0.25001143    0.56700793   3       7  O
   -0.56700322    0.06700680   -0.24999931   3       8  O
   -0.24999864   -0.56700361    0.06700807   3       9  O
    0.06700863   -0.24999290   -0.56700283   3      10  O
 Kpoints in:          280 . Kpoints trimmed:          280

siesta: k-grid: Number of k-points =   280
siesta: k-grid: Cutoff (effective) =    15.354 Ang
siesta: k-grid: Supercell and displacements
siesta: k-grid:   -8   8   0      0.500
siesta: k-grid:    0   8  -8      0.500
siesta: k-grid:    0   7   0      0.000
Naive supercell factors:     5    5    5

superc: Internal auxiliary supercell:     5 x     5 x     5  =     125
superc: Number of atoms, orbitals, and projectors:   1250   4250  10000

outcell: Unit cell vectors (Ang):
        4.376837   -0.247444   -0.161976
        2.734096    3.426720   -0.161972
        2.734099    1.222411    3.205400

outcell: Cell vector modules (Ang)   :    4.386817    4.386790    4.386818
outcell: Cell angles (23,13,12) (deg):     54.6100     54.6101     54.6099
outcell: Cell volume (Ang**3)        :     52.1962
New_DM. Step:    10
Initializing Density Matrix...

InitMesh: MESH =    24 x    24 x    24 =       13824
InitMesh: Mesh cutoff (required, used) =   100.000   114.985 Ry

siesta: Eharris(eV) =   -2956.546706


siesta: Eharris(eV) =   -2956.546706


siesta: Atomic forces (eV/Ang):
     1   -0.000567   -0.000325   -0.000173
     2   -0.000597   -0.000331   -0.000192
     3    0.000102    0.000175    0.000151
     4    0.000263   -0.000067   -0.000073
     5    0.101814   -0.234049   -0.001699
     6    0.000267    0.140769   -0.214373
     7   -0.106586    0.091438    0.213304
     8   -0.104467    0.234338    0.000062
     9   -0.000048   -0.140003    0.214866
    10    0.101830   -0.094814   -0.214152
----------------------------------------
   Tot   -0.007989   -0.002867   -0.002280
----------------------------------------
   Max    0.234338
   Res    0.114449    sqrt( Sum f_i^2 / 3N )
----------------------------------------
   Max    0.234338    constrained

Stress-tensor-Voigt (kbar):     -898.89     -914.05     -916.21        8.48        2.49        5.55
(Free)E + p*V (eV/cell)    -2904.6490
Target enthalpy (eV/cell)    -2901.7079

siesta: Stress tensor (static) (eV/Ang**3):
        -0.561038    0.005290    0.003464
         0.005290   -0.570501    0.001553
         0.003464    0.001553   -0.571848

siesta: Pressure (static):        909.71930478  kBar

siesta: Stress tensor (total) (eV/Ang**3):
        -0.561038    0.005290    0.003464
         0.005290   -0.570501    0.001553
         0.003464    0.001553   -0.571848

siesta: Pressure (total):        909.71930478  kBar
Cycling the Broyden process...

* Maximum dynamic memory allocated =    14 MB

siesta:                 ==============================
                            Begin CG move =     10
                        ==============================

outcoor: Atomic coordinates (fractional):                   
    0.00000305   -0.00000077    0.00000291   1       1  Mg
    0.50000387    0.50000020    0.50000090   1       2  Mg
    0.25000085    0.25000166    0.25000242   2       3  C
   -0.24999667   -0.24999872   -0.24999826   2       4  C
    0.56787119   -0.06787713    0.24999746   3       5  O
    0.24999776    0.56787655   -0.06787308   3       6  O
   -0.06787722    0.25000485    0.56787092   3       7  O
   -0.56787219    0.06787713   -0.24999876   3       8  O
   -0.24999876   -0.56787227    0.06787853   3       9  O
    0.06787145   -0.24999929   -0.56787664   3      10  O
 Kpoints in:          280 . Kpoints trimmed:          280

siesta: k-grid: Number of k-points =   280
siesta: k-grid: Cutoff (effective) =    15.244 Ang
siesta: k-grid: Supercell and displacements
siesta: k-grid:   -8   8   0      0.500
siesta: k-grid:    0   8  -8      0.500
siesta: k-grid:    0   7   0      0.000
Naive supercell factors:     5    5    5

superc: Internal auxiliary supercell:     5 x     5 x     5  =     125
superc: Number of atoms, orbitals, and projectors:   1250   4250  10000

outcell: Unit cell vectors (Ang):
        4.344736   -0.255054   -0.166957
        2.707020    3.407869   -0.166953
        2.707023    1.210304    3.190116

outcell: Cell vector modules (Ang)   :    4.355417    4.355388    4.355416
outcell: Cell angles (23,13,12) (deg):     54.8544     54.8544     54.8542
outcell: Cell volume (Ang**3)        :     51.4227
New_DM. Step:    11
Initializing Density Matrix...

InitMesh: MESH =    24 x    24 x    24 =       13824
InitMesh: Mesh cutoff (required, used) =   100.000   117.026 Ry

siesta: Eharris(eV) =   -2955.502743


siesta: Eharris(eV) =   -2955.502743


siesta: Atomic forces (eV/Ang):
     1   -0.001587    0.001232   -0.001359
     2   -0.001974    0.001011    0.000803
     3    0.000044    0.000147   -0.000136
     4   -0.000111   -0.000086    0.000104
     5   -0.055063    0.128227   -0.001050
     6    0.000090   -0.076888    0.116231
     7    0.058546   -0.051712   -0.115194
     8    0.056053   -0.127596    0.000072
     9   -0.000428    0.075941   -0.117202
    10   -0.055564    0.050167    0.117674
----------------------------------------
   Tot    0.000007    0.000442   -0.000057
----------------------------------------
   Max    0.128227
   Res    0.062358    sqrt( Sum f_i^2 / 3N )
----------------------------------------
   Max    0.128227    constrained

Stress-tensor-Voigt (kbar):    -1007.07    -1017.28    -1018.67        5.62        1.68        3.70
(Free)E + p*V (eV/cell)    -2900.3753
Target enthalpy (eV/cell)    -2900.8355

siesta: Stress tensor (static) (eV/Ang**3):
        -0.628559    0.003507    0.002308
         0.003507   -0.634926    0.001047
         0.002308    0.001047   -0.635799

siesta: Pressure (static):       1014.34060056  kBar

siesta: Stress tensor (total) (eV/Ang**3):
        -0.628559    0.003507    0.002308
         0.003507   -0.634926    0.001047
         0.002308    0.001047   -0.635799

siesta: Pressure (total):       1014.34060056  kBar
Cycling the Broyden process...

* Maximum dynamic memory allocated =    14 MB

siesta:                 ==============================
                            Begin CG move =     11
                        ==============================

outcoor: Atomic coordinates (fractional):                   
   -0.00000122   -0.00000151   -0.00000143   1       1  Mg
    0.49999849    0.49999824    0.49999925   1       2  Mg
    0.25000103    0.25000212    0.25000256   2       3  C
   -0.24999666   -0.24999890   -0.24999817   2       4  C
    0.56718423   -0.06718216    0.24999818   3       5  O
    0.24999797    0.56718558   -0.06718283   3       6  O
   -0.06718299    0.25000534    0.56718399   3       7  O
   -0.56718289    0.06718520   -0.24999996   3       8  O
   -0.24999958   -0.56718242    0.06718666   3       9  O
    0.06718350   -0.24999928   -0.56718288   3      10  O
 Kpoints in:          280 . Kpoints trimmed:          280

siesta: k-grid: Number of k-points =   280
siesta: k-grid: Cutoff (effective) =    15.255 Ang
siesta: k-grid: Supercell and displacements
siesta: k-grid:   -8   8   0      0.500
siesta: k-grid:    0   8  -8      0.500
siesta: k-grid:    0   7   0      0.000
Naive supercell factors:     5    5    5

superc: Internal auxiliary supercell:     5 x     5 x     5  =     125
superc: Number of atoms, orbitals, and projectors:   1250   4250  10000

outcell: Unit cell vectors (Ang):
        4.347698   -0.257460   -0.168535
        2.707202    3.411692   -0.168533
        2.707204    1.210387    3.194246

outcell: Cell vector modules (Ang)   :    4.358574    4.358554    4.358577
outcell: Cell angles (23,13,12) (deg):     54.9123     54.9123     54.9121
outcell: Cell volume (Ang**3)        :     51.6154
New_DM. Step:    12
Initializing Density Matrix...

InitMesh: MESH =    24 x    24 x    24 =       13824
InitMesh: Mesh cutoff (required, used) =   100.000   116.947 Ry

siesta: Eharris(eV) =   -2955.782845


siesta: Eharris(eV) =   -2955.782845


siesta: Atomic forces (eV/Ang):
     1    0.001393    0.000904    0.000385
     2    0.001395    0.000897    0.000506
     3   -0.000198    0.000219   -0.000277
     4   -0.000277    0.000050    0.000176
     5    0.036105   -0.081620    0.000467
     6   -0.000019    0.047752   -0.075138
     7   -0.036886    0.032977    0.074377
     8   -0.037145    0.080871    0.000689
     9   -0.000127   -0.049442    0.073999
    10    0.036088   -0.032037   -0.075113
----------------------------------------
   Tot    0.000329    0.000571    0.000071
----------------------------------------
   Max    0.081620
   Res    0.039870    sqrt( Sum f_i^2 / 3N )
----------------------------------------
   Max    0.081620    constrained

Stress-tensor-Voigt (kbar):     -973.75     -984.17     -985.64        5.80        1.70        3.81
(Free)E + p*V (eV/cell)    -2901.7250
Target enthalpy (eV/cell)    -2901.1189

siesta: Stress tensor (static) (eV/Ang**3):
        -0.607761    0.003619    0.002378
         0.003619   -0.614263    0.001059
         0.002378    0.001059   -0.615179

siesta: Pressure (static):        981.18504626  kBar

siesta: Stress tensor (total) (eV/Ang**3):
        -0.607761    0.003619    0.002378
         0.003619   -0.614263    0.001059
         0.002378    0.001059   -0.615179

siesta: Pressure (total):        981.18504626  kBar
Cycling the Broyden process...

* Maximum dynamic memory allocated =    14 MB

siesta:                 ==============================
                            Begin CG move =     12
                        ==============================

outcoor: Atomic coordinates (fractional):                   
    0.00000182    0.00000213    0.00000179   1       1  Mg
    0.50000147    0.50000180    0.50000269   1       2  Mg
    0.25000057    0.25000233    0.25000198   2       3  C
   -0.24999728   -0.24999921   -0.24999819   2       4  C
    0.56723520   -0.06723438    0.24999846   3       5  O
    0.24999801    0.56723513   -0.06723598   3       6  O
   -0.06723555    0.25000569    0.56723479   3       7  O
   -0.56723612    0.06723458   -0.25000027   3       8  O
   -0.24999972   -0.56723512    0.06723664   3       9  O
    0.06723439   -0.24999861   -0.56723522   3      10  O
 Kpoints in:          280 . Kpoints trimmed:          280

siesta: k-grid: Number of k-points =   280
siesta: k-grid: Cutoff (effective) =    15.225 Ang
siesta: k-grid: Supercell and displacements
siesta: k-grid:   -8   8   0      0.500
siesta: k-grid:    0   8  -8      0.500
siesta: k-grid:    0   7   0      0.000
Naive supercell factors:     5    5    5

superc: Internal auxiliary supercell:     5 x     5 x     5  =     125
superc: Number of atoms, orbitals, and projectors:   1250   4250  10000

outcell: Unit cell vectors (Ang):
        4.338643   -0.261428   -0.171134
        2.698207    3.407593   -0.171131
        2.698208    1.206367    3.191527

outcell: Cell vector modules (Ang)   :    4.349880    4.349862    4.349884
outcell: Cell angles (23,13,12) (deg):     55.0292     55.0292     55.0290
outcell: Cell volume (Ang**3)        :     51.4687
New_DM. Step:    13
Initializing Density Matrix...

InitMesh: MESH =    24 x    24 x    24 =       13824
InitMesh: Mesh cutoff (required, used) =   100.000   117.597 Ry

siesta: Eharris(eV) =   -2955.587640


siesta: Eharris(eV) =   -2955.587640


siesta: Atomic forces (eV/Ang):
     1   -0.001173   -0.000530   -0.000206
     2   -0.001126   -0.000551   -0.000398
     3   -0.000056    0.000164   -0.000081
     4   -0.000050    0.000064    0.000069
     5    0.003440   -0.006156   -0.000575
     6    0.000164    0.004345   -0.005391
     7   -0.044651   -0.036026    0.022960
     8   -0.002278    0.006546   -0.000507
     9    0.000039   -0.003013    0.006270
    10    0.003460   -0.002682   -0.005578
----------------------------------------
   Tot   -0.042230   -0.037840    0.016563
----------------------------------------
   Max    0.044651
   Res    0.011644    sqrt( Sum f_i^2 / 3N )
----------------------------------------
   Max    0.044651    constrained

Stress-tensor-Voigt (kbar):    -1025.36    -1012.76    -1009.71       -8.61       -1.31       -3.70
(Free)E + p*V (eV/cell)    -2900.4430
Target enthalpy (eV/cell)    -2900.9551

siesta: Stress tensor (static) (eV/Ang**3):
        -0.639972   -0.005377   -0.002312
        -0.005377   -0.632106   -0.000820
        -0.002312   -0.000820   -0.630204

siesta: Pressure (static):       1015.94185834  kBar

siesta: Stress tensor (total) (eV/Ang**3):
        -0.639972   -0.005377   -0.002312
        -0.005377   -0.632106   -0.000820
        -0.002312   -0.000820   -0.630204

siesta: Pressure (total):       1015.94185834  kBar
Cycling the Broyden process...

* Maximum dynamic memory allocated =    14 MB

siesta:                 ==============================
                            Begin CG move =     13
                        ==============================

outcoor: Atomic coordinates (fractional):                   
    0.00000134    0.00000171    0.00000129   1       1  Mg
    0.50000097    0.50000136    0.50000228   1       2  Mg
    0.25000062    0.25000231    0.25000203   2       3  C
   -0.24999723   -0.24999919   -0.24999819   2       4  C
    0.56721728   -0.06721566    0.24999869   3       5  O
    0.24999801    0.56721698   -0.06721749   3       6  O
   -0.06721860    0.25000338    0.56721581   3       7  O
   -0.56721764    0.06721642   -0.25000029   3       8  O
   -0.24999974   -0.56721669    0.06721840   3       9  O
    0.06721645   -0.24999847   -0.56721653   3      10  O
 Kpoints in:          280 . Kpoints trimmed:          280

siesta: k-grid: Number of k-points =   280
siesta: k-grid: Cutoff (effective) =    15.230 Ang
siesta: k-grid: Supercell and displacements
siesta: k-grid:   -8   8   0      0.500
siesta: k-grid:    0   8  -8      0.500
siesta: k-grid:    0   7   0      0.000
Naive supercell factors:     5    5    5

superc: Internal auxiliary supercell:     5 x     5 x     5  =     125
superc: Number of atoms, orbitals, and projectors:   1250   4250  10000

outcell: Unit cell vectors (Ang):
        4.340296   -0.260879   -0.170779
        2.699719    3.408464   -0.170777
        2.699717    1.207043    3.192176

outcell: Cell vector modules (Ang)   :    4.351482    4.351468    4.351484
outcell: Cell angles (23,13,12) (deg):     55.0125     55.0125     55.0122
outcell: Cell volume (Ang**3)        :     51.5024
New_DM. Step:    14
Initializing Density Matrix...

InitMesh: MESH =    24 x    24 x    24 =       13824
InitMesh: Mesh cutoff (required, used) =   100.000   117.484 Ry

siesta: Eharris(eV) =   -2955.634100


siesta: Eharris(eV) =   -2955.634100


siesta: Atomic forces (eV/Ang):
     1   -0.000837   -0.000337   -0.000303
     2   -0.000933   -0.000224   -0.000367
     3   -0.000308    0.000129    0.000095
     4   -0.000281    0.000003    0.000198
     5    0.005534   -0.011510   -0.000305
     6    0.000176    0.007302   -0.010190
     7   -0.004423    0.003899    0.011039
     8   -0.004820    0.011744   -0.000351
     9   -0.000004   -0.006328    0.010819
    10    0.005451   -0.004785   -0.010464
----------------------------------------
   Tot   -0.000443   -0.000106    0.000171
----------------------------------------
   Max    0.011744
   Res    0.005656    sqrt( Sum f_i^2 / 3N )
----------------------------------------
   Max    0.011744    constrained

Stress-tensor-Voigt (kbar):    -1010.77    -1003.05    -1001.89       -4.32       -1.28       -2.84
(Free)E + p*V (eV/cell)    -2900.8244
Target enthalpy (eV/cell)    -2900.9928

siesta: Stress tensor (static) (eV/Ang**3):
        -0.630864   -0.002696   -0.001771
        -0.002696   -0.626049   -0.000801
        -0.001771   -0.000801   -0.625326

siesta: Pressure (static):       1005.23755469  kBar

siesta: Stress tensor (total) (eV/Ang**3):
        -0.630864   -0.002696   -0.001771
        -0.002696   -0.626049   -0.000801
        -0.001771   -0.000801   -0.625326

siesta: Pressure (total):       1005.23755469  kBar

* Maximum dynamic memory allocated =    14 MB

outcoor: Relaxed atomic coordinates (fractional):           
    0.00000134    0.00000171    0.00000129   1       1  Mg
    0.50000097    0.50000136    0.50000228   1       2  Mg
    0.25000062    0.25000231    0.25000203   2       3  C
   -0.24999723   -0.24999919   -0.24999819   2       4  C
    0.56721728   -0.06721566    0.24999869   3       5  O
    0.24999801    0.56721698   -0.06721749   3       6  O
   -0.06721860    0.25000338    0.56721581   3       7  O
   -0.56721764    0.06721642   -0.25000029   3       8  O
   -0.24999974   -0.56721669    0.06721840   3       9  O
    0.06721645   -0.24999847   -0.56721653   3      10  O

outcell: Unit cell vectors (Ang):
        4.340296   -0.260879   -0.170779
        2.699719    3.408464   -0.170777
        2.699717    1.207043    3.192176

outcell: Cell vector modules (Ang)   :    4.351482    4.351468    4.351484
outcell: Cell angles (23,13,12) (deg):     55.0125     55.0125     55.0122
outcell: Cell volume (Ang**3)        :     51.5024

siesta: Program's energy decomposition (eV):
siesta: Ebs     =      -812.536230
siesta: Eions   =      5228.674091
siesta: Ena     =      1067.427924
siesta: Ekin    =      2502.580382
siesta: Enl     =      -410.866501
siesta: DEna    =      -141.800780
siesta: DUscf   =        27.593281
siesta: DUext   =         0.000000
siesta: Exc     =      -749.397921
siesta: eta*DQ  =         0.000000
siesta: Emadel  =         0.000000
siesta: Emeta   =         0.000000
siesta: Emolmec =         0.000000
siesta: Ekinion =         0.000000
siesta: Eharris =     -2955.634100
siesta: Etot    =     -2933.137706
siesta: FreeEng =     -2933.137706

siesta: Final energy (eV):
siesta:  Band Struct. =    -812.536230
siesta:       Kinetic =    2502.580382
siesta:       Hartree =     684.587531
siesta:    Ext. field =       0.000000
siesta:   Exch.-corr. =    -749.397921
siesta:  Ion-electron =   -3545.780728
siesta:       Ion-ion =   -1825.126969
siesta:       Ekinion =       0.000000
siesta:         Total =   -2933.137706

siesta: Stress tensor (static) (eV/Ang**3):
siesta:    -0.630864   -0.002696   -0.001771
siesta:    -0.002696   -0.626049   -0.000801
siesta:    -0.001771   -0.000801   -0.625326

siesta: Constrained stress tensor (static) (eV/Ang**3):
siesta:    -0.630864   -0.002696   -0.001771
siesta:    -0.002696   -0.626049   -0.000801
siesta:    -0.001771   -0.000801   -0.625326

siesta: Cell volume =         51.502424 Ang**3

siesta: Pressure (static):
siesta:                Solid            Molecule  Units
siesta:           0.00683333          0.00682684  Ry/Bohr**3
siesta:           0.62741315          0.62681682  eV/Ang**3
siesta:        1005.23755469       1004.28212185  kBar
(Free)E+ p_basis*V_orbitals  =       -2931.943409
(Free)Eharris+ p_basis*V_orbitals  =       -2877.240011

* Maximum dynamic memory allocated : Node    0 =    14 MB

* Maximum memory occured during ranger                        

timer: CPU execution times:
timer:  Routine       Calls   Time/call    Tot.time        %
timer:  siesta            1      53.154      53.154   100.00
timer:  Setup             1       0.476       0.476     0.90
timer:  bands             1       0.000       0.000     0.00
timer:  writewave         1       0.001       0.001     0.00
timer:  KSV_init          1       0.000       0.000     0.00
timer:  IterMD           14       3.758      52.607    98.97
timer:  hsparse          14       0.109       1.525     2.87
timer:  overlap          14       0.010       0.136     0.26
timer:  IterSCF          14       2.500      35.001    65.85
timer:  kinefsm          28       0.008       0.217     0.41
timer:  nlefsm           28       0.415      11.608    21.84
timer:  DHSCF            28       0.639      17.878    33.63
timer:  DHSCF1           14       0.059       0.826     1.55
timer:  DHSCF2           14       0.560       7.838    14.75
timer:  REORD           252       0.000       0.014     0.03
timer:  POISON           42       0.002       0.095     0.18
timer:  DHSCF3           28       0.157       4.398     8.27
timer:  rhoofd           28       0.067       1.878     3.53
timer:  cellXC           42       0.009       0.383     0.72
timer:  vmat             28       0.078       2.180     4.10
timer:  MolMec           28       0.000       0.000     0.00
timer:  diagon           14       1.301      18.220    34.28
timer:  c-eigval       3602       0.001       5.209     9.80
timer:  c-buildHS      3602       0.001       2.083     3.92
timer:  cdiag          7204       0.001       6.944    13.06
timer:  cdiag1         7204       0.000       0.222     0.42
timer:  cdiag2         7204       0.000       0.831     1.56
timer:  cdiag3         7204       0.001       5.545    10.43
timer:  cdiag4         7204       0.000       0.213     0.40
timer:  c-eigvec       3602       0.002       5.889    11.08
timer:  c-buildD       3602       0.002       7.031    13.23
timer:  DHSCF4           14       0.344       4.810     9.05
timer:  dfscf            14       0.197       2.754     5.18
timer:  overfsm          14       0.007       0.092     0.17
timer:  optical           1       0.000       0.000     0.00
  

elaps: ELAPSED times:
elaps:  Routine       Calls   Time/call    Tot.time        %
elaps:  siesta            1      53.141      53.141   100.00
elaps:  Setup             1       0.477       0.477     0.90
elaps:  bands             1       0.000       0.000     0.00
elaps:  writewave         1       0.001       0.001     0.00
elaps:  KSV_init          1       0.000       0.000     0.00
elaps:  IterMD           14       3.757      52.592    98.97
elaps:  hsparse          14       0.109       1.524     2.87
elaps:  overlap          14       0.010       0.136     0.26
elaps:  IterSCF          14       2.499      34.992    65.85
elaps:  kinefsm          28       0.008       0.217     0.41
elaps:  nlefsm           28       0.414      11.604    21.84
elaps:  DHSCF            28       0.638      17.873    33.63
elaps:  DHSCF1           14       0.059       0.826     1.55
elaps:  DHSCF2           14       0.560       7.836    14.74
elaps:  REORD           252       0.000       0.013     0.02
elaps:  POISON           42       0.002       0.095     0.18
elaps:  DHSCF3           28       0.157       4.398     8.28
elaps:  rhoofd           28       0.067       1.878     3.53
elaps:  cellXC           42       0.009       0.383     0.72
elaps:  vmat             28       0.078       2.180     4.10
elaps:  MolMec           28       0.000       0.000     0.00
elaps:  diagon           14       1.301      18.215    34.28
elaps:  c-eigval       3602       0.001       5.207     9.80
elaps:  c-buildHS      3602       0.001       2.085     3.92
elaps:  cdiag          7204       0.001       6.941    13.06
elaps:  cdiag1         7204       0.000       0.222     0.42
elaps:  cdiag2         7204       0.000       0.834     1.57
elaps:  cdiag3         7204       0.001       5.544    10.43
elaps:  cdiag4         7204       0.000       0.216     0.41
elaps:  c-eigvec       3602       0.002       5.887    11.08
elaps:  c-buildD       3602       0.002       7.030    13.23
elaps:  DHSCF4           14       0.343       4.809     9.05
elaps:  dfscf            14       0.197       2.753     5.18
elaps:  overfsm          14       0.007       0.092     0.17
elaps:  optical           1       0.000       0.000     0.00
  
>> End of run:  10-JUN-2011  14:40:29
