Siesta Version  : siesta-4.0--578
Architecture    : x86_64-linux-n-62-25-35
Compiler version: GNU Fortran (GCC) 7.3.0
Compiler flags  : mpif90 -m64 -fPIC -O3 -march=native -ftree-vectorize -fexpensive-optimizationns -funroll-loops -fprefetch-loop-arrays -fno-second-underscore
PP flags        : -I/zdata/groups/common/nicpa/2018-feb/generic/build-tools/1.0/include -I/zdatta/groups/common/nicpa/2018-feb/generic/gcc/7.3.0/include -I/zdata/groups/common/nicpa/2018-feb/generic/gcc/7.3.0/include -I/zdata/groups/common/nicpa/2018-feb/XeonE5-2660v3/zlib/1.2.11/gnu-7.3.0/include -I/zdata/groups/common/nicpa/2018-feb/generic/numactl/2.0.11/include -I/zdata/groups/common/nicpa/2018-feb/XeonE5-2660v3/libxml2/2.9.7/gnu-7.3.0/include -I/zdata/groups/common/nicpa/2018-feb/XeonE5-2660v3/hwloc/1.11.9/gnu-7.3.0/include -I/zdata/groups/common/nicpa/2018-feb/XeonE5-2660v3/openmpi/3.0.0/gnu-7.3.0/include -I/zdata/groups/common/nicpa/2018-feb/XeonE5-2660v3/szip/2.1.1/gnu-7.3.0/include -I/zdata/groups/common/nicpa/2018-feb/XeonE5-2660v3/hdf5-serial/1.8.18/gnu-7.3.0/include -I/zdata/groups/common/nicpa/2018-feb/XeonE5-2660v3/netcdf-serial/4.6.0/gnu-7.3.0/include -I/zdata/groups/common/nicpa/2018-feb/XeonE5-2660v3/scalapack/204/gnu-7.3.0/include -I/zdata/groups/common/nicpa/2018-feb/XeonE5-2660v3/openblas/0.2.20/gnu-7.3.0/include -I/zdata/groups/common/nicpa/2018-feb/XeonE5-2660v3/elpa/2017.05.003/gnu-7.3.0/include -DSIESTA__ELPA -DMPI -D1 -DFC_HAVE_ABORT -DCDF -DSIESTA__MRRR 
PARALLEL version
NetCDF support

* Running on    8 nodes in parallel
>> Start of run:  10-JUN-2018  22:06:39

                           ***********************       
                           *  WELCOME TO SIESTA  *       
                           ***********************       

reinit: Reading from standard input
************************** Dump of input data file ****************************
#
# MgCO3 in primitive cell. SZ. Variable cell. Broyden Optim
#
SystemName	MgCo3 R-3c -- SZ, 100 R -- variable cell at 100 Gpa
SystemLabel	var_cell
NumberOfSpecies		3
NumberOfAtoms	       10
%block ChemicalSpeciesLabel
      1      12     Mg
      2       6     C
      3       8     O
%endblock ChemicalSpeciesLabel
PAO.BasisSize  SZ
Diag.Divide-and-Conquer F
# Rhombohedral primitive cell
# (HEX 3-fold cell had A=4.635 and C=15.023, so alpha=48.179 degrees
#  and a=5.67783 Ang)
LatticeConstant     5.67783 Ang
%block LatticeParameters
1.0 1.0 1.0 48.179 48.179 48.179
%endblock LatticeParameters
AtomicCoordinatesFormat    Fractional
%block AtomicCoordinatesAndAtomicSpecies
  0.0         0.0         0.0      1
  0.5         0.5         0.5      1
  0.25        0.25        0.25     2
 -0.25       -0.25       -0.25     2
  0.5274     -0.0274      0.25     3
  0.25        0.5274     -0.0274   3
 -0.0274      0.25        0.5274   3
 -0.5274      0.0274     -0.25     3
 -0.25       -0.5274      0.0274   3
  0.0274     -0.25       -0.5274   3
%endblock AtomicCoordinatesAndAtomicSpecies
kgrid_cutoff 15.0 Ang
Solution.Method       diagon
MeshCutoff             100 Ry
DM.NumberBroyden       4
DM.UseSaveDM           T
DM.MixingWeight        0.1         # New DM amount for next SCF cycle
DM.Tolerance           1.d-3       # Tolerance in maximum difference
                                   # between input and output DM
MaxSCFIterations       20
WriteCoorStep      .true.
WriteForces        .true.
MD.TypeOfRun         Broyden
MD.Variable-Cell      T
MD.Target-pressure   100.0 GPa
MD.Num-CG-steps	     30
MD.Max-Stress-Tol    2.0 GPa
MD.Broyden.Initial.Inverse.Jacobian 1.0
MD.Broyden.History.Steps 6
************************** End of input data file *****************************

reinit: -----------------------------------------------------------------------
reinit: System Name: MgCo3 R-3c -- SZ, 100 R -- variable cell at 100 Gpa
reinit: -----------------------------------------------------------------------
reinit: System Label: var_cell                                                    
reinit: -----------------------------------------------------------------------

initatom: Reading input for the pseudopotentials and atomic orbitals ----------
 Species number:            1  Label: Mg Atomic number:          12
 Species number:            2  Label: C Atomic number:           6
 Species number:            3  Label: O Atomic number:           8
Ground state valence configuration:   3s02
Reading pseudopotential information in formatted form from Mg.psf

Valence configuration for pseudopotential generation:
3s( 2.00) rc: 2.59
3p( 0.00) rc: 2.59
3d( 0.00) rc: 2.59
4f( 0.00) rc: 2.59
Ground state valence configuration:   2s02  2p02
Reading pseudopotential information in formatted form from C.psf

Valence configuration for pseudopotential generation:
2s( 2.00) rc: 1.49
2p( 2.00) rc: 1.52
3d( 0.00) rc: 1.58
Ground state valence configuration:   2s02  2p04
Reading pseudopotential information in formatted form from O.psf

Valence configuration for pseudopotential generation:
2s( 2.00) rc: 1.14
2p( 4.00) rc: 1.14
3d( 0.00) rc: 1.14
4f( 0.00) rc: 1.14
For Mg, standard SIESTA heuristics set lmxkb to 1
 (one more than the basis l, including polarization orbitals).
Use PS.lmax or PS.KBprojectors blocks to override.
For C, standard SIESTA heuristics set lmxkb to 2
 (one more than the basis l, including polarization orbitals).
Use PS.lmax or PS.KBprojectors blocks to override.
For O, standard SIESTA heuristics set lmxkb to 2
 (one more than the basis l, including polarization orbitals).
Use PS.lmax or PS.KBprojectors blocks to override.

<basis_specs>
===============================================================================
Mg                   Z=  12    Mass=  24.310        Charge= 0.17977+309
Lmxo=0 Lmxkb= 1    BasisType=split      Semic=F
L=0  Nsemic=0  Cnfigmx=3
          n=1  nzeta=1  polorb=0
            splnorm:   0.15000    
               vcte:    0.0000    
               rinn:    0.0000    
               qcoe:    0.0000    
               qyuk:    0.0000    
               qwid:   0.10000E-01
                rcs:    0.0000    
            lambdas:    1.0000    
-------------------------------------------------------------------------------
L=0  Nkbl=1  erefs: 0.17977+309
L=1  Nkbl=1  erefs: 0.17977+309
===============================================================================
</basis_specs>

atom: Called for Mg                    (Z =  12)

read_vps: Pseudopotential generation method:
read_vps: ATM3      Troullier-Martins                       
Total valence charge:    2.00000

xc_check: Exchange-correlation functional:
xc_check: Ceperley-Alder
V l=0 = -2*Zval/r beyond r=  3.5878
V l=1 = -2*Zval/r beyond r=  3.5878
All V_l potentials equal beyond r=  2.5600
This should be close to max(r_c) in ps generation
All pots = -2*Zval/r beyond r=  3.5878
Using large-core scheme for Vlocal

atom: Estimated core radius    3.58779

atom: Including non-local core corrections could be a good idea
atom: Maximum radius for 4*pi*r*r*local-pseudopot. charge    3.91588
atom: Maximum radius for r*vlocal+2*Zval:    3.63292
GHOST: No ghost state for L =  0
GHOST: No ghost state for L =  1

KBgen: Kleinman-Bylander projectors: 
   l= 0   rc=  2.657845   el= -0.351328   Ekb=  2.184400   kbcos=  0.257081
   l= 1   rc=  2.657845   el= -0.101748   Ekb=  0.525536   kbcos=  0.270508

KBgen: Total number of  Kleinman-Bylander projectors:    4
atom: -------------------------------------------------------------------------

atom: SANKEY-TYPE ORBITALS:

SPLIT: Orbitals with angular momentum L= 0

SPLIT: Basis orbitals for state 3s

SPLIT: PAO cut-off radius determined from an
SPLIT: energy shift=  0.020000 Ry

   izeta = 1
                 lambda =    1.000000
                     rc =    6.619780
                 energy =   -0.332103
                kinetic =    0.289627
    potential(screened) =   -0.621729
       potential(ionic) =   -1.387191
atom: Total number of Sankey-type orbitals:  1

atm_pop: Valence configuration (for local Pseudopot. screening):
 3s( 2.00)                                                            
Vna: chval, zval:    2.00000   2.00000

Vna:  Cut-off radius for the neutral-atom potential:   6.619780

atom: _________________________________________________________________________

<basis_specs>
===============================================================================
C                    Z=   6    Mass=  12.010        Charge= 0.17977+309
Lmxo=1 Lmxkb= 2    BasisType=split      Semic=F
L=0  Nsemic=0  Cnfigmx=2
          n=1  nzeta=1  polorb=0
            splnorm:   0.15000    
               vcte:    0.0000    
               rinn:    0.0000    
               qcoe:    0.0000    
               qyuk:    0.0000    
               qwid:   0.10000E-01
                rcs:    0.0000    
            lambdas:    1.0000    
L=1  Nsemic=0  Cnfigmx=2
          n=1  nzeta=1  polorb=0
            splnorm:   0.15000    
               vcte:    0.0000    
               rinn:    0.0000    
               qcoe:    0.0000    
               qyuk:    0.0000    
               qwid:   0.10000E-01
                rcs:    0.0000    
            lambdas:    1.0000    
-------------------------------------------------------------------------------
L=0  Nkbl=1  erefs: 0.17977+309
L=1  Nkbl=1  erefs: 0.17977+309
L=2  Nkbl=1  erefs: 0.17977+309
===============================================================================
</basis_specs>

atom: Called for C                     (Z =   6)

read_vps: Pseudopotential generation method:
read_vps: ATM3      Troullier-Martins                       
Total valence charge:    4.00000

xc_check: Exchange-correlation functional:
xc_check: Ceperley-Alder
V l=0 = -2*Zval/r beyond r=  1.4666
V l=1 = -2*Zval/r beyond r=  1.5038
V l=2 = -2*Zval/r beyond r=  1.5612
All V_l potentials equal beyond r=  1.5612
This should be close to max(r_c) in ps generation
All pots = -2*Zval/r beyond r=  1.5612

VLOCAL1: 99.0% of the norm of Vloc inside     17.809 Ry
VLOCAL1: 99.9% of the norm of Vloc inside     40.586 Ry
atom: Maximum radius for 4*pi*r*r*local-pseudopot. charge    1.88329
atom: Maximum radius for r*vlocal+2*Zval:    1.62091
GHOST: No ghost state for L =  0
GHOST: No ghost state for L =  1
GHOST: No ghost state for L =  2

KBgen: Kleinman-Bylander projectors: 
   l= 0   rc=  1.747182   el= -1.001947   Ekb=  5.181700   kbcos=  0.300603
   l= 1   rc=  1.747182   el= -0.398598   Ekb= -4.328763   kbcos= -0.367074
   l= 2   rc=  1.955272   el=  0.002326   Ekb= -1.016175   kbcos= -0.009979

KBgen: Total number of  Kleinman-Bylander projectors:    9
atom: -------------------------------------------------------------------------

atom: SANKEY-TYPE ORBITALS:

SPLIT: Orbitals with angular momentum L= 0

SPLIT: Basis orbitals for state 2s

SPLIT: PAO cut-off radius determined from an
SPLIT: energy shift=  0.020000 Ry

   izeta = 1
                 lambda =    1.000000
                     rc =    4.191849
                 energy =   -0.983897
                kinetic =    0.886956
    potential(screened) =   -1.870853
       potential(ionic) =   -5.479661

SPLIT: Orbitals with angular momentum L= 1

SPLIT: Basis orbitals for state 2p

SPLIT: PAO cut-off radius determined from an
SPLIT: energy shift=  0.020000 Ry

   izeta = 1
                 lambda =    1.000000
                     rc =    4.870301
                 energy =   -0.379093
                kinetic =    2.545357
    potential(screened) =   -2.924450
       potential(ionic) =   -6.433151
atom: Total number of Sankey-type orbitals:  4

atm_pop: Valence configuration (for local Pseudopot. screening):
 2s( 2.00)                                                            
 2p( 2.00)                                                            
Vna: chval, zval:    4.00000   4.00000

Vna:  Cut-off radius for the neutral-atom potential:   4.870301

atom: _________________________________________________________________________

<basis_specs>
===============================================================================
O                    Z=   8    Mass=  16.000        Charge= 0.17977+309
Lmxo=1 Lmxkb= 2    BasisType=split      Semic=F
L=0  Nsemic=0  Cnfigmx=2
          n=1  nzeta=1  polorb=0
            splnorm:   0.15000    
               vcte:    0.0000    
               rinn:    0.0000    
               qcoe:    0.0000    
               qyuk:    0.0000    
               qwid:   0.10000E-01
                rcs:    0.0000    
            lambdas:    1.0000    
L=1  Nsemic=0  Cnfigmx=2
          n=1  nzeta=1  polorb=0
            splnorm:   0.15000    
               vcte:    0.0000    
               rinn:    0.0000    
               qcoe:    0.0000    
               qyuk:    0.0000    
               qwid:   0.10000E-01
                rcs:    0.0000    
            lambdas:    1.0000    
-------------------------------------------------------------------------------
L=0  Nkbl=1  erefs: 0.17977+309
L=1  Nkbl=1  erefs: 0.17977+309
L=2  Nkbl=1  erefs: 0.17977+309
===============================================================================
</basis_specs>

atom: Called for O                     (Z =   8)

read_vps: Pseudopotential generation method:
read_vps: ATM3      Troullier-Martins                       
Total valence charge:    6.00000

xc_check: Exchange-correlation functional:
xc_check: Ceperley-Alder
V l=0 = -2*Zval/r beyond r=  1.1278
V l=1 = -2*Zval/r beyond r=  1.1278
V l=2 = -2*Zval/r beyond r=  1.1278
All V_l potentials equal beyond r=  1.1278
This should be close to max(r_c) in ps generation
All pots = -2*Zval/r beyond r=  1.1278

VLOCAL1: 99.0% of the norm of Vloc inside     34.126 Ry
VLOCAL1: 99.9% of the norm of Vloc inside     77.774 Ry
atom: Maximum radius for 4*pi*r*r*local-pseudopot. charge    1.37759
atom: Maximum radius for r*vlocal+2*Zval:    1.18566
GHOST: No ghost state for L =  0
GHOST: No ghost state for L =  1
GHOST: No ghost state for L =  2

KBgen: Kleinman-Bylander projectors: 
   l= 0   rc=  1.294105   el= -1.742414   Ekb=  9.135903   kbcos=  0.326910
   l= 1   rc=  1.294105   el= -0.676589   Ekb= -8.124878   kbcos= -0.395047
   l= 2   rc=  1.448233   el=  0.002386   Ekb= -2.039267   kbcos= -0.003484

KBgen: Total number of  Kleinman-Bylander projectors:    9
atom: -------------------------------------------------------------------------

atom: SANKEY-TYPE ORBITALS:

SPLIT: Orbitals with angular momentum L= 0

SPLIT: Basis orbitals for state 2s

SPLIT: PAO cut-off radius determined from an
SPLIT: energy shift=  0.020000 Ry

   izeta = 1
                 lambda =    1.000000
                     rc =    3.305093
                 energy =   -1.723766
                kinetic =    1.614911
    potential(screened) =   -3.338677
       potential(ionic) =  -11.304675

SPLIT: Orbitals with angular momentum L= 1

SPLIT: Basis orbitals for state 2p

SPLIT: PAO cut-off radius determined from an
SPLIT: energy shift=  0.020000 Ry

   izeta = 1
                 lambda =    1.000000
                     rc =    3.937239
                 energy =   -0.658841
                kinetic =    5.005986
    potential(screened) =   -5.664827
       potential(ionic) =  -13.452360
atom: Total number of Sankey-type orbitals:  4

atm_pop: Valence configuration (for local Pseudopot. screening):
 2s( 2.00)                                                            
 2p( 4.00)                                                            
Vna: chval, zval:    6.00000   6.00000

Vna:  Cut-off radius for the neutral-atom potential:   3.937239

atom: _________________________________________________________________________

prinput: Basis input ----------------------------------------------------------

PAO.BasisType split     

%block ChemicalSpeciesLabel
    1   12 Mg                      # Species index, atomic number, species label
    2    6 C                       # Species index, atomic number, species label
    3    8 O                       # Species index, atomic number, species label
%endblock ChemicalSpeciesLabel

%block PAO.Basis                 # Define Basis set
Mg                    1                    # Species label, number of l-shells
 n=3   0   1                         # n, l, Nzeta 
   6.620   
   1.000   
C                     2                    # Species label, number of l-shells
 n=2   0   1                         # n, l, Nzeta 
   4.192   
   1.000   
 n=2   1   1                         # n, l, Nzeta 
   4.870   
   1.000   
O                     2                    # Species label, number of l-shells
 n=2   0   1                         # n, l, Nzeta 
   3.305   
   1.000   
 n=2   1   1                         # n, l, Nzeta 
   3.937   
   1.000   
%endblock PAO.Basis

prinput: ----------------------------------------------------------------------

Dumping basis to NetCDF file Mg.ion.nc
Dumping basis to NetCDF file C.ion.nc
Dumping basis to NetCDF file O.ion.nc
coor:   Atomic-coordinates input format  =     Fractional

siesta: Atomic coordinates (Bohr) and species
siesta:      0.00000   0.00000   0.00000  1        1
siesta:     12.51930   5.59740   3.66414  1        2
siesta:      6.25965   2.79870   1.83207  2        3
siesta:     -6.25965  -2.79870  -1.83207  2        4
siesta:      7.25136   0.58061   1.83207  3        5
siesta:      6.25965   4.12944  -0.20079  3        6
siesta:      5.26794   3.68605   3.86493  3        7
siesta:     -7.25136  -0.58061  -1.83207  3        8
siesta:     -6.25965  -4.12944   0.20079  3        9
siesta:     -5.26794  -3.68605  -3.86493  3       10

siesta: System type = bulk      

initatomlists: Number of atoms, orbitals, and projectors:     10    34    80

siesta: ******************** Simulation parameters ****************************
siesta:
siesta: The following are some of the parameters of the simulation.
siesta: A complete list of the parameters used, including default values,
siesta: can be found in file out.fdf
siesta:
redata: Non-Collinear-spin run           =     F
redata: SpinPolarized (Up/Down) run      =     F
redata: Number of spin components        =     1
redata: Long output                      =     F
redata: Number of Atomic Species         =        3
redata: Charge density info will appear in .RHO file
redata: Write Mulliken Pop.              =     NO
redata: Matel table size (NRTAB)         =     1024
redata: Mesh Cutoff                      =   100.0000 Ry
redata: Net charge of the system         =     0.0000 |e|
redata: Min. number of SCF Iter          =        0
redata: Max. number of SCF Iter          =       20
redata: Mix DM or H after convergence    =     F
redata: Recompute H after scf cycle      =     F
redata: Broyden mixing with     4 saved histories.
redata: Mix DM in first SCF step ?       =     F
redata: Write Pulay info on disk?        =     F
redata: Discard 1st Pulay DM after  kick =     F
redata: New DM Mixing Weight             =     0.1000
redata: New DM Occupancy tolerance       = 0.000000000001
redata: No kicks to SCF
redata: DM Mixing Weight for Kicks       =     0.5000
redata: DM Tolerance for SCF             =     0.001000
redata: Require (free) Energy convergence in SCF =     F
redata: DM (free)Energy tolerance for SCF =     0.000010 eV
redata: Require Harris convergence for SCF =     F
redata: DM Harris energy tolerance for SCF =     0.000010 eV
redata: Using Saved Data (generic)   =     F
redata: Use continuation files for DM    =     T
redata: Neglect nonoverlap interactions  =     F
redata: Method of Calculation            =     Diagonalization
redata: Divide and Conquer               =     F
redata: Electronic Temperature           =     0.0019  Ry
redata: Fix the spin of the system       =     F
redata: Dynamics option                  =     Broyden coord. optimization
redata: Variable cell                    =     T
redata: Maximum number of CG moves       =       30
redata: Force tolerance                  =     0.0016  Ry/Bohr
redata: Stress tolerance                 =     2.0000  GPa
redata: ***********************************************************************
Total number of electrons:    48.000000
Total ionic charge:    48.000000

* ProcessorY, Blocksize:    2   4


* Orbital distribution balance (max,min):     6     4

 Kpoints in:          154 . Kpoints trimmed:          154

siesta: k-grid: Number of k-points =   154
siesta: k-grid: Cutoff (effective) =    16.222 Ang
siesta: k-grid: Supercell and displacements
siesta: k-grid:   -7   0   7      0.500
siesta: k-grid:    0  -7   7      0.000
siesta: k-grid:    0   0   6      0.000
Naive supercell factors:     4    4    4
Auxiliary supercell needs to be larger than naive one...

superc: Internal auxiliary supercell:     5 x     5 x     4  =     100
superc: Number of atoms, orbitals, and projectors:   1000   3400   8000

                     ====================================
                        Begin Broyden opt. move =      0
                     ====================================

outcoor: Atomic coordinates (fractional):                   
    0.00000000    0.00000000    0.00000000   1       1  Mg
    0.50000000    0.50000000    0.50000000   1       2  Mg
    0.25000000    0.25000000    0.25000000   2       3  C
   -0.25000000   -0.25000000   -0.25000000   2       4  C
    0.52740000   -0.02740000    0.25000000   3       5  O
    0.25000000    0.52740000   -0.02740000   3       6  O
   -0.02740000    0.25000000    0.52740000   3       7  O
   -0.52740000    0.02740000   -0.25000000   3       8  O
   -0.25000000   -0.52740000    0.02740000   3       9  O
    0.02740000   -0.25000000   -0.52740000   3      10  O

superc: Internal auxiliary supercell:     5 x     5 x     4  =     100
superc: Number of atoms, orbitals, and projectors:   1000   3400   8000

outcell: Unit cell vectors (Ang):
        5.677830    0.000000    0.000000
        3.786009    4.231299    0.000000
        3.786009    1.692731    3.877957

outcell: Cell vector modules (Ang)   :    5.677830    5.677830    5.677830
outcell: Cell angles (23,13,12) (deg):     48.1790     48.1790     48.1790
outcell: Cell volume (Ang**3)        :     93.1663
New_DM. Step:     1
Initializing Density Matrix...
New grid distribution:   1
           1       1:   16    1:    8    1:    4
           2       1:   16    1:    8    5:    8
           3       1:   16    1:    8    9:   12
           4       1:   16    1:    8   13:   16
           5       1:   16    9:   16    1:    4
           6       1:   16    9:   16    5:    8
           7       1:   16    9:   16    9:   12
           8       1:   16    9:   16   13:   16

InitMesh: MESH =    32 x    32 x    32 =       32768
InitMesh: (bp) =    16 x    16 x    16 =        4096
InitMesh: Mesh cutoff (required, used) =   100.000   112.857 Ry
ExtMesh (bp) on 0 =    76 x    68 x    64 =      330752
New grid distribution:   2
           1       8:   16    1:    8    1:    8
           2       9:   16    9:   16    1:    8
           3       1:    8    1:    8    9:   16
           4       1:    7    1:    8    1:    8
           5       9:   16    1:    8    9:   16
           6       1:    8    9:   16    1:    8
           7       1:    9    9:   16    9:   16
           8      10:   16    9:   16    9:   16
New grid distribution:   3
           1       1:    8    9:   16    9:   16
           2       9:   16    1:    8    1:    8
           3       9:   16    1:    8    9:   16
           4       9:   16    9:   16    1:    8
           5       1:    8    1:    8    9:   16
           6       1:    8    1:    8    1:    8
           7       9:   16    9:   16    9:   16
           8       1:    8    9:   16    1:    8
Setting up quadratic distribution...
ExtMesh (bp) on 0 =    69 x    68 x    68 =      319056
PhiOnMesh: Number of (b)points on node 0 =                  576
PhiOnMesh: nlist on node 0 =                12062

stepf: Fermi-Dirac step function

siesta: Program's energy decomposition (eV):
siesta: Ebs     =      -700.295464
siesta: Eions   =      5228.674091
siesta: Ena     =      1092.439512
siesta: Ekin    =      2100.835150
siesta: Enl     =      -258.044044
siesta: DEna    =        -0.000021
siesta: DUscf   =         0.000000
siesta: DUext   =         0.000000
siesta: Exc     =      -683.847187
siesta: eta*DQ  =         0.000000
siesta: Emadel  =         0.000000
siesta: Emeta   =         0.000000
siesta: Emolmec =         0.000000
siesta: Ekinion =         0.000000
siesta: Eharris =     -2966.310106
siesta: Etot    =     -2977.290682
siesta: FreeEng =     -2977.290682

   scf: iscf   Eharris(eV)      E_KS(eV)   FreeEng(eV)    dDmax  Ef(eV)
   scf:    1    -2966.3101    -2977.2907    -2977.2907  1.75258 -2.7507
 Broyden: No of relevant DM elements:         9610
 maxit for broyden:            4
 cycle on maxit:  T
 variable weight:  T
 initial alpha:   0.10000000000000001     
timer: Routine,Calls,Time,% =    IterSCF     1       0.791  53.88
   scf:    2    -2967.0271    -2949.8103    -2949.8103  0.80245 -1.9577
   scf:    3    -2963.3426    -2951.3259    -2951.3259  0.62494 -1.8526
   scf:    4    -2957.5827    -2954.1163    -2954.1163  0.04115 -2.6436
   scf:    5    -2957.5776    -2954.6858    -2954.6858  0.03283 -2.6696
   scf:    6    -2957.5679    -2957.2487    -2957.2487  0.00581 -2.7845
   scf:    7    -2957.5678    -2957.5362    -2957.5362  0.00040 -2.7749

SCF Convergence by dMax criterion
max |DM_out - DM_in|:     0.00039523
SCF cycle converged after    7 iterations

Using DM_out to compute the final energy and forces

siesta: E_KS(eV) =            -2957.5678

siesta: E_KS - E_eggbox =     -2957.5678

siesta: Atomic forces (eV/Ang):
     1   -0.000000   -0.000000    0.000000
     2   -0.000000    0.000000    0.000000
     3    0.000000   -0.000004    0.000005
     4   -0.000000    0.000004   -0.000005
     5    3.222720   -7.208022   -0.000001
     6    0.000000    4.324455   -6.606108
     7   -3.222720    2.883571    6.606103
     8   -3.222719    7.208022    0.000001
     9   -0.000000   -4.324455    6.606108
    10    3.222720   -2.883571   -6.606103
----------------------------------------
   Tot   -0.000000   -0.000000   -0.000000
----------------------------------------
   Max    7.208022
   Res    3.531049    sqrt( Sum f_i^2 / 3N )
----------------------------------------
   Max    7.208022    constrained

Stress-tensor-Voigt (kbar):       88.75     -228.60     -273.91      177.34       51.90      116.09
(Free)E + p*V (eV/cell)    -2949.5480
Target enthalpy (eV/cell)    -2899.4186

siesta: Stress tensor (static) (eV/Ang**3):
         0.055396    0.110685    0.072456
         0.110685   -0.142677    0.032395
         0.072456    0.032395   -0.170959

siesta: Pressure (static):        137.91693449  kBar

siesta: Stress tensor (total) (eV/Ang**3):
         0.055396    0.110685    0.072456
         0.110685   -0.142677    0.032395
         0.072456    0.032395   -0.170959

siesta: Pressure (total):        137.91693449  kBar

Broyden_optim: max_history for broyden:   6
Broyden_optim: cycle on maxit: T
Broyden_optim: initial inverse jacobian:   1.0000

Broyden_optim: No of elements:     36

Broyden_optim: No target stress found, assuming hydrostatic MD.TargetPressure.

Broyden_optim: Target stress (kBar)
Broyden_optim:     -1000.000       0.000       0.000
Broyden_optim:         0.000   -1000.000       0.000
Broyden_optim:         0.000       0.000   -1000.000

                     ====================================
                        Begin Broyden opt. move =      1
                     ====================================

outcoor: Atomic coordinates (fractional):                   
   -0.00000000   -0.00000000    0.00000000   1       1  Mg
    0.50000000    0.50000000    0.50000000   1       2  Mg
    0.25000000    0.24999999    0.25000001   2       3  C
   -0.25000000   -0.24999999   -0.25000001   2       4  C
    0.53908202   -0.03908202    0.25000000   3       5  O
    0.25000000    0.53908203   -0.03908203   3       6  O
   -0.03908202    0.25000000    0.53908202   3       7  O
   -0.53908202    0.03908202   -0.25000000   3       8  O
   -0.25000000   -0.53908203    0.03908203   3       9  O
    0.03908202   -0.25000000   -0.53908202   3      10  O
 Kpoints in:          154 . Kpoints trimmed:          151

siesta: k-grid: Number of k-points =   151
siesta: k-grid: Cutoff (effective) =    15.685 Ang
siesta: k-grid: Supercell and displacements
siesta: k-grid:   -7   7   0      0.500
siesta: k-grid:   -7   0   7      0.000
siesta: k-grid:    0   0   6      0.000
Naive supercell factors:     4    4    4
Auxiliary supercell needs to be larger than naive one...

superc: Internal auxiliary supercell:     5 x     5 x     4  =     100
superc: Number of atoms, orbitals, and projectors:   1000   3400   8000

outcell: Unit cell vectors (Ang):
        5.381896   -0.048202   -0.031554
        3.552757    4.042901   -0.031554
        3.552757    1.588444    3.717915

outcell: Cell vector modules (Ang)   :    5.382205    5.382205    5.382205
outcell: Cell angles (23,13,12) (deg):     49.2044     49.2044     49.2044
outcell: Cell volume (Ang**3)        :     82.0832
New_DM. Step:     2
Re-using DM from previous geometry...
Re-using DM without extrapolation (not allowed)
Density Matrix sparsity pattern changed.
New grid distribution:   1
           1       1:   15    1:    8    1:    4
           2       1:   15    1:    8    5:    8
           3       1:   15    1:    8    9:   12
           4       1:   15    1:    8   13:   15
           5       1:   15    9:   15    1:    4
           6       1:   15    9:   15    5:    8
           7       1:   15    9:   15    9:   12
           8       1:   15    9:   15   13:   15

InitMesh: MESH =    30 x    30 x    30 =       27000
InitMesh: (bp) =    15 x    15 x    15 =        3375
InitMesh: Mesh cutoff (required, used) =   100.000   111.673 Ry
ExtMesh (bp) on 0 =    75 x    68 x    64 =      326400
New grid distribution:   2
           1       1:    8    9:   15    8:   15
           2       8:   15    1:    7    1:    7
           3       8:   15    1:    8    8:   15
           4       1:    7    8:   15    1:    7
           5       1:    7    1:    8    8:   15
           6       8:   15    8:   15    1:    7
           7       9:   15    9:   15    8:   15
           8       1:    7    1:    7    1:    7
New grid distribution:   3
           1       1:    8    1:    8    1:    8
           2       9:   15    9:   15    1:    8
           3       1:    8    1:    8    9:   15
           4       9:   15    1:    8    9:   15
           5       1:    8    9:   15    1:    8
           6       9:   15    1:    8    1:    8
           7       1:    8    9:   15    9:   15
           8       9:   15    9:   15    9:   15
Setting up quadratic distribution...
ExtMesh (bp) on 0 =    68 x    67 x    68 =      309808
PhiOnMesh: Number of (b)points on node 0 =                  448
PhiOnMesh: nlist on node 0 =                10659

   scf: iscf   Eharris(eV)      E_KS(eV)   FreeEng(eV)    dDmax  Ef(eV)
   scf:    1    -2958.9015    -2959.5651    -2959.5651  0.04876 -3.3762
   scf:    2    -2958.8815    -2958.8677    -2958.8677  0.02020 -3.0945
   scf:    3    -2958.8793    -2958.8689    -2958.8689  0.01560 -3.1029
   scf:    4    -2958.8760    -2958.8723    -2958.8723  0.00549 -3.1388
   scf:    5    -2958.8758    -2958.8748    -2958.8748  0.00012 -3.1498

SCF Convergence by dMax criterion
max |DM_out - DM_in|:     0.00011521
SCF cycle converged after    5 iterations

Using DM_out to compute the final energy and forces

siesta: E_KS(eV) =            -2958.8758

siesta: Atomic forces (eV/Ang):
     1   -0.000000   -0.000000    0.000000
     2   -0.000000    0.000000   -0.000000
     3    0.000000   -0.000009    0.000012
     4   -0.000000    0.000009   -0.000012
     5    2.497022   -5.584903   -0.000003
     6   -0.000000    3.350672   -5.118540
     7   -2.497021    2.234244    5.118527
     8   -2.497021    5.584903    0.000003
     9   -0.000000   -3.350672    5.118539
    10    2.497022   -2.234244   -5.118527
----------------------------------------
   Tot    0.000000    0.000000   -0.000000
----------------------------------------
   Max    5.584903
   Res    2.735921    sqrt( Sum f_i^2 / 3N )
----------------------------------------
   Max    5.584903    constrained

Stress-tensor-Voigt (kbar):      -28.61     -352.05     -398.23      180.74       52.90      118.32
(Free)E + p*V (eV/cell)    -2945.5744
Target enthalpy (eV/cell)    -2907.6441

siesta: Stress tensor (static) (eV/Ang**3):
        -0.017854    0.112811    0.073847
         0.112811   -0.219731    0.033017
         0.073847    0.033017   -0.248556

siesta: Pressure (static):        259.63114326  kBar

siesta: Stress tensor (total) (eV/Ang**3):
        -0.017854    0.112811    0.073847
         0.112811   -0.219731    0.033017
         0.073847    0.033017   -0.248556

siesta: Pressure (total):        259.63114326  kBar

                     ====================================
                        Begin Broyden opt. move =      2
                     ====================================

outcoor: Atomic coordinates (fractional):                   
   -0.00000000   -0.00000000    0.00000000   1       1  Mg
    0.50000000    0.50000000    0.50000000   1       2  Mg
    0.25000000    0.24999990    0.25000009   2       3  C
   -0.25000001   -0.24999990   -0.25000009   2       4  C
    0.57505660   -0.07505656    0.24999998   3       5  O
    0.25000000    0.57505668   -0.07505667   3       6  O
   -0.07505660    0.25000002    0.57505657   3       7  O
   -0.57505660    0.07505656   -0.24999998   3       8  O
   -0.25000000   -0.57505668    0.07505667   3       9  O
    0.07505661   -0.25000002   -0.57505657   3      10  O
 Kpoints in:          224 . Kpoints trimmed:          224

siesta: k-grid: Number of k-points =   224
siesta: k-grid: Cutoff (effective) =    15.519 Ang
siesta: k-grid: Supercell and displacements
siesta: k-grid:   -8   8   0      0.500
siesta: k-grid:   -8   0   8      0.500
siesta: k-grid:    0   0   7      0.000
Naive supercell factors:     5    5    5

superc: Internal auxiliary supercell:     5 x     5 x     5  =     125
superc: Number of atoms, orbitals, and projectors:   1250   4250  10000

outcell: Unit cell vectors (Ang):
        4.425659   -0.226127   -0.148026
        2.782538    3.448923   -0.148026
        2.782538    1.244077    3.220133

outcell: Cell vector modules (Ang)   :    4.433904    4.433903    4.433903
outcell: Cell angles (23,13,12) (deg):     53.9963     53.9963     53.9963
outcell: Cell volume (Ang**3)        :     52.9938
New_DM. Step:     3
DM reset as supercell changed.
Initializing Density Matrix...
New grid distribution:   1
           1       1:   12    1:    6    1:    3
           2       1:   12    1:    6    4:    6
           3       1:   12    1:    6    7:    9
           4       1:   12    1:    6   10:   12
           5       1:   12    7:   12    1:    3
           6       1:   12    7:   12    4:    6
           7       1:   12    7:   12    7:    9
           8       1:   12    7:   12   10:   12

InitMesh: MESH =    24 x    24 x    24 =       13824
InitMesh: (bp) =    12 x    12 x    12 =        1728
InitMesh: Mesh cutoff (required, used) =   100.000   111.655 Ry
ExtMesh (bp) on 0 =    64 x    58 x    55 =      204160
New grid distribution:   2
           1       1:    6    7:   12    7:   12
           2       7:   12    1:    6    1:    6
           3       7:   12    1:    6    7:   12
           4       7:   12    7:   12    1:    6
           5       1:    6    1:    6    7:   12
           6       1:    6    1:    6    1:    6
           7       7:   12    7:   12    7:   12
           8       1:    6    7:   12    1:    6
New grid distribution:   3
           1       1:    6    7:   12    7:   12
           2       7:   12    1:    6    1:    6
           3       7:   12    1:    6    7:   12
           4       7:   12    7:   12    1:    6
           5       1:    6    1:    6    7:   12
           6       1:    6    1:    6    1:    6
           7       7:   12    7:   12    7:   12
           8       1:    6    7:   12    1:    6
Setting up quadratic distribution...
ExtMesh (bp) on 0 =    58 x    58 x    58 =      195112
PhiOnMesh: Number of (b)points on node 0 =                  216
PhiOnMesh: nlist on node 0 =                 8197

   scf: iscf   Eharris(eV)      E_KS(eV)   FreeEng(eV)    dDmax  Ef(eV)
   scf:    1    -2957.3336    -3005.2071    -3005.2071  1.87492 -4.7986
   scf:    2    -2961.2850    -2934.0466    -2934.0468  1.19516 -2.9167
   scf:    3    -2954.9197    -2936.4132    -2936.4132  0.91243 -3.2531
   scf:    4    -2945.6920    -2940.2879    -2940.2879  0.07733 -4.1835
   scf:    5    -2945.6775    -2941.1213    -2941.1213  0.06550 -4.2029
   scf:    6    -2945.6433    -2945.6179    -2945.6179  0.00370 -3.4220
   scf:    7    -2945.6433    -2945.5238    -2945.5238  0.00170 -3.4158
   scf:    8    -2945.6433    -2945.8603    -2945.8603  0.00322 -3.4214
   scf:    9    -2945.6433    -2945.6594    -2945.6594  0.00044 -3.4171

SCF Convergence by dMax criterion
max |DM_out - DM_in|:     0.00044183
SCF cycle converged after    9 iterations

Using DM_out to compute the final energy and forces

siesta: E_KS(eV) =            -2945.6433

siesta: Atomic forces (eV/Ang):
     1    0.000000   -0.000001   -0.000000
     2    0.000000   -0.000001   -0.000000
     3   -0.000001   -0.000069    0.000112
     4    0.000002    0.000069   -0.000112
     5   -1.371948    3.068522   -0.000016
     6   -0.000002   -1.840873    2.812140
     7    1.371946   -1.227548   -2.812290
     8    1.371947   -3.068521    0.000016
     9    0.000002    1.840873   -2.812141
    10   -1.371947    1.227550    2.812290
----------------------------------------
   Tot   -0.000000    0.000002   -0.000002
----------------------------------------
   Max    3.068522
   Res    1.503177    sqrt( Sum f_i^2 / 3N )
----------------------------------------
   Max    3.068522    constrained

Stress-tensor-Voigt (kbar):    -2296.89    -2304.18    -2305.23        4.08        1.20        2.67
(Free)E + p*V (eV/cell)    -2869.4995
Target enthalpy (eV/cell)    -2912.5675

siesta: Stress tensor (static) (eV/Ang**3):
        -1.433592    0.002545    0.001666
         0.002545   -1.438143    0.000749
         0.001666    0.000749   -1.438797

siesta: Pressure (static):       2302.10304437  kBar

siesta: Stress tensor (total) (eV/Ang**3):
        -1.433592    0.002545    0.001666
         0.002545   -1.438143    0.000749
         0.001666    0.000749   -1.438797

siesta: Pressure (total):       2302.10304437  kBar

                     ====================================
                        Begin Broyden opt. move =      3
                     ====================================

outcoor: Atomic coordinates (fractional):                   
   -0.00000000   -0.00000000    0.00000000   1       1  Mg
    0.50000000    0.50000000    0.50000000   1       2  Mg
    0.25000000    0.24999988    0.25000011   2       3  C
   -0.25000001   -0.24999988   -0.25000011   2       4  C
    0.57045713   -0.07045710    0.24999998   3       5  O
    0.25000000    0.57045724   -0.07045723   3       6  O
   -0.07045713    0.25000002    0.57045711   3       7  O
   -0.57045713    0.07045710   -0.24999998   3       8  O
   -0.25000000   -0.57045724    0.07045723   3       9  O
    0.07045713   -0.25000002   -0.57045711   3      10  O
 Kpoints in:          224 . Kpoints trimmed:          224

siesta: k-grid: Number of k-points =   224
siesta: k-grid: Cutoff (effective) =    15.989 Ang
siesta: k-grid: Supercell and displacements
siesta: k-grid:   -8   8   0      0.500
siesta: k-grid:   -8   0   8      0.500
siesta: k-grid:    0   0   7      0.000
Naive supercell factors:     5    5    5

superc: Internal auxiliary supercell:     5 x     5 x     5  =     125
superc: Number of atoms, orbitals, and projectors:   1250   4250  10000

outcell: Unit cell vectors (Ang):
        4.561452   -0.206852   -0.135408
        2.887450    3.537268   -0.135409
        2.887449    1.290983    3.296053

outcell: Cell vector modules (Ang)   :    4.568147    4.568147    4.568147
outcell: Cell angles (23,13,12) (deg):     53.3466     53.3466     53.3466
outcell: Cell volume (Ang**3)        :     56.9073
New_DM. Step:     4
Re-using DM from previous geometry...
Re-using DM without extrapolation (not allowed)
Density Matrix sparsity pattern changed.
Note: For starting DM, Qtot, Tr[D*S] =         48.00000000         48.22136213
New grid distribution:   1
           1       1:   12    1:    6    1:    3
           2       1:   12    1:    6    4:    6
           3       1:   12    1:    6    7:    9
           4       1:   12    1:    6   10:   12
           5       1:   12    7:   12    1:    3
           6       1:   12    7:   12    4:    6
           7       1:   12    7:   12    7:    9
           8       1:   12    7:   12   10:   12

InitMesh: MESH =    24 x    24 x    24 =       13824
InitMesh: (bp) =    12 x    12 x    12 =        1728
InitMesh: Mesh cutoff (required, used) =   100.000   104.313 Ry
ExtMesh (bp) on 0 =    64 x    58 x    55 =      204160
New grid distribution:   2
           1       1:    6    7:   12    7:   12
           2       7:   12    1:    6    1:    6
           3       7:   12    1:    6    7:   12
           4       7:   12    7:   12    1:    6
           5       1:    6    1:    6    7:   12
           6       1:    6    1:    6    1:    6
           7       7:   12    7:   12    7:   12
           8       1:    6    7:   12    1:    6
New grid distribution:   3
           1       1:    6    7:   12    7:   12
           2       7:   12    1:    6    1:    6
           3       7:   12    1:    6    7:   12
           4       7:   12    7:   12    1:    6
           5       1:    6    1:    6    7:   12
           6       1:    6    1:    6    1:    6
           7       7:   12    7:   12    7:   12
           8       1:    6    7:   12    1:    6
Setting up quadratic distribution...
ExtMesh (bp) on 0 =    58 x    58 x    58 =      195112
PhiOnMesh: Number of (b)points on node 0 =                  216
PhiOnMesh: nlist on node 0 =                 7662

   scf: iscf   Eharris(eV)      E_KS(eV)   FreeEng(eV)    dDmax  Ef(eV)
   scf:    1    -2950.7506    -2947.5171    -2947.5171  0.02281 -3.5865
   scf:    2    -2950.7417    -2950.7340    -2950.7340  0.01804 -3.7085
   scf:    3    -2950.7400    -2950.7346    -2950.7346  0.01350 -3.7039
   scf:    4    -2950.7378    -2950.7360    -2950.7360  0.00391 -3.6889
   scf:    5    -2950.7378    -2950.7376    -2950.7376  0.00009 -3.6850

SCF Convergence by dMax criterion
max |DM_out - DM_in|:     0.00008559
SCF cycle converged after    5 iterations

Using DM_out to compute the final energy and forces

siesta: E_KS(eV) =            -2950.7378

siesta: Atomic forces (eV/Ang):
     1    0.000001   -0.000001   -0.000000
     2    0.000000   -0.000001   -0.000000
     3   -0.000000   -0.000111    0.000170
     4    0.000001    0.000109   -0.000170
     5   -0.783045    1.751381   -0.000026
     6   -0.000001   -1.050600    1.604914
     7    0.783044   -0.700617   -1.605139
     8    0.783044   -1.751380    0.000025
     9    0.000001    1.050604   -1.604914
    10   -0.783044    0.700617    1.605140
----------------------------------------
   Tot   -0.000000    0.000000   -0.000000
----------------------------------------
   Max    1.751381
   Res    0.857924    sqrt( Sum f_i^2 / 3N )
----------------------------------------
   Max    1.751381    constrained

Stress-tensor-Voigt (kbar):    -1620.61    -1664.12    -1670.34       24.31        7.13       15.92
(Free)E + p*V (eV/cell)    -2892.0725
Target enthalpy (eV/cell)    -2915.2194

siesta: Stress tensor (static) (eV/Ang**3):
        -1.011497    0.015175    0.009934
         0.015175   -1.038648    0.004447
         0.009934    0.004447   -1.042531

siesta: Pressure (static):       1651.68875513  kBar

siesta: Stress tensor (total) (eV/Ang**3):
        -1.011497    0.015175    0.009934
         0.015175   -1.038648    0.004447
         0.009934    0.004447   -1.042531

siesta: Pressure (total):       1651.68875513  kBar

                     ====================================
                        Begin Broyden opt. move =      4
                     ====================================

outcoor: Atomic coordinates (fractional):                   
    0.00000001   -0.00000000    0.00000000   1       1  Mg
    0.50000000    0.50000000    0.50000000   1       2  Mg
    0.25000001    0.24999933    0.25000065   2       3  C
   -0.25000001   -0.24999934   -0.25000066   2       4  C
    0.55871372   -0.05871365    0.24999988   3       5  O
    0.24999999    0.55871450   -0.05871449   3       6  O
   -0.05871372    0.25000012    0.55871365   3       7  O
   -0.55871372    0.05871365   -0.24999988   3       8  O
   -0.24999999   -0.55871448    0.05871450   3       9  O
    0.05871373   -0.25000013   -0.55871365   3      10  O
 Kpoints in:          196 . Kpoints trimmed:          172

siesta: k-grid: Number of k-points =   172
siesta: k-grid: Cutoff (effective) =    15.028 Ang
siesta: k-grid: Supercell and displacements
siesta: k-grid:   -7   7   0      0.000
siesta: k-grid:   -7   0   7      0.000
siesta: k-grid:    0   0   7      0.000
Naive supercell factors:     5    5    5

superc: Internal auxiliary supercell:     5 x     5 x     5  =     125
superc: Number of atoms, orbitals, and projectors:   1250   4250  10000

outcell: Unit cell vectors (Ang):
        4.878140   -0.170672   -0.111725
        3.125581    3.749148   -0.111727
        3.125581    1.397449    3.480765

outcell: Cell vector modules (Ang)   :    4.882403    4.882402    4.882402
outcell: Cell angles (23,13,12) (deg):     52.1720     52.1719     52.1719
outcell: Cell volume (Ang**3)        :     67.1585
New_DM. Step:     5
Re-using DM from previous geometry...
Re-using DM without extrapolation (not allowed)
Density Matrix sparsity pattern changed.
Note: For starting DM, Qtot, Tr[D*S] =         48.00000000         48.35951161
New grid distribution:   1
           1       1:   15    1:    8    1:    4
           2       1:   15    1:    8    5:    8
           3       1:   15    1:    8    9:   12
           4       1:   15    1:    8   13:   15
           5       1:   15    9:   15    1:    4
           6       1:   15    9:   15    5:    8
           7       1:   15    9:   15    9:   12
           8       1:   15    9:   15   13:   15

InitMesh: MESH =    30 x    30 x    30 =       27000
InitMesh: (bp) =    15 x    15 x    15 =        3375
InitMesh: Mesh cutoff (required, used) =   100.000   140.591 Ry
ExtMesh (bp) on 0 =    75 x    68 x    64 =      326400
New grid distribution:   2
           1       9:   15    8:   15    1:    8
           2       1:    7    1:    7    1:    8
           3       1:    8    1:    8    9:   15
           4       9:   15    1:    8    9:   15
           5       1:    8    8:   15    1:    8
           6       8:   15    1:    7    1:    8
           7       1:    8    9:   15    9:   15
           8       9:   15    9:   15    9:   15
New grid distribution:   3
           1       1:    8    1:    8    1:    8
           2       9:   15    9:   15    1:    8
           3       1:    8    1:    8    9:   15
           4       9:   15    1:    8    9:   15
           5       1:    8    9:   15    1:    8
           6       9:   15    1:    8    1:    8
           7       1:    8    9:   15    9:   15
           8       9:   15    9:   15    9:   15
Setting up quadratic distribution...
ExtMesh (bp) on 0 =    67 x    68 x    68 =      309808
PhiOnMesh: Number of (b)points on node 0 =                  448
PhiOnMesh: nlist on node 0 =                13060

   scf: iscf   Eharris(eV)      E_KS(eV)   FreeEng(eV)    dDmax  Ef(eV)
   scf:    1    -2957.7266    -2952.4531    -2952.4531  0.04603 -3.4544
   scf:    2    -2957.6935    -2957.6636    -2957.6636  0.03283 -3.7015
   scf:    3    -2957.6872    -2957.6662    -2957.6662  0.02452 -3.6918
   scf:    4    -2957.6788    -2957.6715    -2957.6715  0.00860 -3.6596
   scf:    5    -2957.6787    -2957.6776    -2957.6776  0.00030 -3.6505

SCF Convergence by dMax criterion
max |DM_out - DM_in|:     0.00030163
SCF cycle converged after    5 iterations

Using DM_out to compute the final energy and forces

siesta: E_KS(eV) =            -2957.6787

siesta: Atomic forces (eV/Ang):
     1   -0.000000    0.000001    0.000000
     2    0.000000    0.000001    0.000003
     3    0.000002   -0.000031    0.000044
     4   -0.000002    0.000034   -0.000042
     5    0.390775   -0.874000   -0.000051
     6   -0.000000    0.524441   -0.801146
     7   -0.390777    0.349692    0.800999
     8   -0.390775    0.873999    0.000049
     9    0.000000   -0.524444    0.801143
    10    0.390776   -0.349692   -0.800999
----------------------------------------
   Tot   -0.000001    0.000001   -0.000001
----------------------------------------
   Max    0.874000
   Res    0.428178    sqrt( Sum f_i^2 / 3N )
----------------------------------------
   Max    0.874000    constrained

Stress-tensor-Voigt (kbar):     -593.06     -715.12     -732.56       68.22       19.97       44.66
(Free)E + p*V (eV/cell)    -2929.1650
Target enthalpy (eV/cell)    -2915.7621

siesta: Stress tensor (static) (eV/Ang**3):
        -0.370156    0.042578    0.027872
         0.042578   -0.446341    0.012464
         0.027872    0.012464   -0.457222

siesta: Pressure (static):        680.24838457  kBar

siesta: Stress tensor (total) (eV/Ang**3):
        -0.370156    0.042578    0.027872
         0.042578   -0.446341    0.012464
         0.027872    0.012464   -0.457222

siesta: Pressure (total):        680.24838457  kBar

                     ====================================
                        Begin Broyden opt. move =      5
                     ====================================

outcoor: Atomic coordinates (fractional):                   
    0.00000001   -0.00000000    0.00000000   1       1  Mg
    0.50000000    0.50000000    0.50000001   1       2  Mg
    0.25000001    0.24999913    0.25000085   2       3  C
   -0.25000001   -0.24999914   -0.25000086   2       4  C
    0.55704329   -0.05704318    0.24999976   3       5  O
    0.24999999    0.55704441   -0.05704441   3       6  O
   -0.05704330    0.25000023    0.55704319   3       7  O
   -0.55704329    0.05704318   -0.24999977   3       8  O
   -0.24999999   -0.55704439    0.05704441   3       9  O
    0.05704330   -0.25000024   -0.55704319   3      10  O
 Kpoints in:          196 . Kpoints trimmed:          172

siesta: k-grid: Number of k-points =   172
siesta: k-grid: Cutoff (effective) =    15.174 Ang
siesta: k-grid: Supercell and displacements
siesta: k-grid:   -7   7   0      0.000
siesta: k-grid:   -7   0   7      0.000
siesta: k-grid:    0   0   7      0.000
Naive supercell factors:     4    4    4
Auxiliary supercell needs to be larger than naive one...

superc: Internal auxiliary supercell:     5 x     5 x     4  =     100
superc: Number of atoms, orbitals, and projectors:   1000   3400   8000

outcell: Unit cell vectors (Ang):
        4.910565   -0.178977   -0.117161
        3.141013    3.778847   -0.117165
        3.141013    1.404347    3.510160

outcell: Cell vector modules (Ang)   :    4.915222    4.915219    4.915219
outcell: Cell angles (23,13,12) (deg):     52.3378     52.3377     52.3377
outcell: Cell volume (Ang**3)        :     68.8565
New_DM. Step:     6
DM reset as supercell changed.
Initializing Density Matrix...
New grid distribution:   1
           1       1:   15    1:    8    1:    4
           2       1:   15    1:    8    5:    8
           3       1:   15    1:    8    9:   12
           4       1:   15    1:    8   13:   15
           5       1:   15    9:   15    1:    4
           6       1:   15    9:   15    5:    8
           7       1:   15    9:   15    9:   12
           8       1:   15    9:   15   13:   15

InitMesh: MESH =    30 x    30 x    30 =       27000
InitMesh: (bp) =    15 x    15 x    15 =        3375
InitMesh: Mesh cutoff (required, used) =   100.000   139.006 Ry
ExtMesh (bp) on 0 =    75 x    68 x    64 =      326400
New grid distribution:   2
           1       8:   15    1:    7    1:    7
           2       1:    7    1:    7    1:    7
           3       1:    8    1:    8    8:   15
           4       9:   15    1:    8    8:   15
           5       8:   15    8:   15    1:    7
           6       1:    7    8:   15    1:    7
           7       1:    8    9:   15    8:   15
           8       9:   15    9:   15    8:   15
New grid distribution:   3
           1       1:    8    1:    8    1:    8
           2       9:   15    9:   15    1:    8
           3       1:    8    1:    8    9:   15
           4       9:   15    1:    8    9:   15
           5       1:    8    9:   15    1:    8
           6       9:   15    1:    8    1:    8
           7       1:    8    9:   15    9:   15
           8       9:   15    9:   15    9:   15
Setting up quadratic distribution...
ExtMesh (bp) on 0 =    68 x    67 x    67 =      305252
PhiOnMesh: Number of (b)points on node 0 =                  392
PhiOnMesh: nlist on node 0 =                11162

   scf: iscf   Eharris(eV)      E_KS(eV)   FreeEng(eV)    dDmax  Ef(eV)
   scf:    1    -2967.6580    -2989.4251    -2989.4251  1.81410 -3.7072
   scf:    2    -2971.8463    -2948.6203    -2948.6203  1.01778 -2.7296
   scf:    3    -2966.2735    -2950.6294    -2950.6294  0.77885 -2.8822
   scf:    4    -2958.3487    -2953.8354    -2953.8354  0.06006 -3.8271
   scf:    5    -2958.3452    -2954.5429    -2954.5429  0.05095 -3.8406
   scf:    6    -2958.3249    -2958.2486    -2958.2486  0.00507 -3.9369
   scf:    7    -2958.3249    -2958.0636    -2958.0636  0.00377 -3.9323
   scf:    8    -2958.3248    -2958.3150    -2958.3150  0.00012 -3.9319

SCF Convergence by dMax criterion
max |DM_out - DM_in|:     0.00012090
SCF cycle converged after    8 iterations

Using DM_out to compute the final energy and forces

siesta: E_KS(eV) =            -2958.3248

siesta: Atomic forces (eV/Ang):
     1   -0.000000    0.000000   -0.000001
     2   -0.000002   -0.000000    0.000002
     3   -0.000001    0.000150   -0.000226
     4    0.000002   -0.000151    0.000226
     5    0.452880   -1.012911   -0.000031
     6    0.000000    0.607602   -0.928181
     7   -0.452877    0.405242    0.928314
     8   -0.452878    1.012912    0.000028
     9   -0.000000   -0.607602    0.928179
    10    0.452878   -0.405243   -0.928313
----------------------------------------
   Tot    0.000000   -0.000001   -0.000001
----------------------------------------
   Max    1.012912
   Res    0.496177    sqrt( Sum f_i^2 / 3N )
----------------------------------------
   Max    1.012912    constrained

Stress-tensor-Voigt (kbar):     -498.42     -615.14     -631.80       65.23       19.09       42.70
(Free)E + p*V (eV/cell)    -2933.3218
Target enthalpy (eV/cell)    -2915.3485

siesta: Stress tensor (static) (eV/Ang**3):
        -0.311083    0.040714    0.026652
         0.040714   -0.383935    0.011913
         0.026652    0.011913   -0.394335

siesta: Pressure (static):        581.78474167  kBar

siesta: Stress tensor (total) (eV/Ang**3):
        -0.311083    0.040714    0.026652
         0.040714   -0.383935    0.011913
         0.026652    0.011913   -0.394335

siesta: Pressure (total):        581.78474167  kBar

                     ====================================
                        Begin Broyden opt. move =      6
                     ====================================

outcoor: Atomic coordinates (fractional):                   
    0.00000001   -0.00000000   -0.00000001   1       1  Mg
    0.49999999    0.49999998    0.50000000   1       2  Mg
    0.24999999    0.25000023    0.24999978   2       3  C
   -0.24999997   -0.25000025   -0.24999978   2       4  C
    0.55275466   -0.05275449    0.24999953   3       5  O
    0.24999998    0.55275517   -0.05275517   3       6  O
   -0.05275466    0.25000046    0.55275448   3       7  O
   -0.55275466    0.05275451   -0.24999955   3       8  O
   -0.24999999   -0.55275514    0.05275517   3       9  O
    0.05275465   -0.25000047   -0.55275448   3      10  O
 Kpoints in:          196 . Kpoints trimmed:          172

siesta: k-grid: Number of k-points =   172
siesta: k-grid: Cutoff (effective) =    15.485 Ang
siesta: k-grid: Supercell and displacements
siesta: k-grid:   -7   0   7      0.000
siesta: k-grid:   -7   7   0      0.000
siesta: k-grid:    0   0   7      0.000
Naive supercell factors:     4    4    4
Auxiliary supercell needs to be larger than naive one...

superc: Internal auxiliary supercell:     5 x     5 x     4  =     100
superc: Number of atoms, orbitals, and projectors:   1000   3400   8000

outcell: Unit cell vectors (Ang):
        4.952212   -0.209010   -0.136821
        3.146402    3.829905   -0.136823
        3.146402    1.406756    3.564818

outcell: Cell vector modules (Ang)   :    4.958509    4.958502    4.958501
outcell: Cell angles (23,13,12) (deg):     52.9907     52.9907     52.9907
outcell: Cell volume (Ang**3)        :     72.0428
New_DM. Step:     7
Re-using DM from previous geometry...
Re-using DM without extrapolation (not allowed)
New grid distribution:   1
           1       1:   15    1:    8    1:    4
           2       1:   15    1:    8    5:    8
           3       1:   15    1:    8    9:   12
           4       1:   15    1:    8   13:   15
           5       1:   15    9:   15    1:    4
           6       1:   15    9:   15    5:    8
           7       1:   15    9:   15    9:   12
           8       1:   15    9:   15   13:   15

InitMesh: MESH =    30 x    30 x    30 =       27000
InitMesh: (bp) =    15 x    15 x    15 =        3375
InitMesh: Mesh cutoff (required, used) =   100.000   137.713 Ry
ExtMesh (bp) on 0 =    75 x    68 x    64 =      326400
New grid distribution:   2
           1       1:    7    8:   15    1:    8
           2       1:    7    1:    7    1:    8
           3       8:   15    1:    8    9:   15
           4       1:    7    1:    8    9:   15
           5       8:   15    8:   15    1:    8
           6       8:   15    1:    7    1:    8
           7       1:    8    9:   15    9:   15
           8       9:   15    9:   15    9:   15
New grid distribution:   3
           1       1:    8    1:    8    1:    8
           2       9:   15    9:   15    1:    8
           3       1:    8    1:    8    9:   15
           4       9:   15    1:    8    9:   15
           5       1:    8    9:   15    1:    8
           6       9:   15    1:    8    1:    8
           7       1:    8    9:   15    9:   15
           8       9:   15    9:   15    9:   15
Setting up quadratic distribution...
ExtMesh (bp) on 0 =    67 x    68 x    68 =      309808
PhiOnMesh: Number of (b)points on node 0 =                  448
PhiOnMesh: nlist on node 0 =                12128

   scf: iscf   Eharris(eV)      E_KS(eV)   FreeEng(eV)    dDmax  Ef(eV)
   scf:    1    -2959.2348    -2957.8031    -2957.8031  0.01951 -3.0555
   scf:    2    -2959.2357    -2959.2254    -2959.2254  0.02153 -3.1306
   scf:    3    -2959.2331    -2959.2263    -2959.2263  0.01601 -3.1269
   scf:    4    -2959.2297    -2959.2276    -2959.2276  0.00239 -3.1154
   scf:    5    -2959.2297    -2959.2293    -2959.2293  0.00018 -3.1127

SCF Convergence by dMax criterion
max |DM_out - DM_in|:     0.00017977
SCF cycle converged after    5 iterations

Using DM_out to compute the final energy and forces

siesta: E_KS(eV) =            -2959.2297

siesta: Atomic forces (eV/Ang):
     1    0.000002   -0.000002   -0.000002
     2    0.000002    0.000001    0.000004
     3    0.000011   -0.000616    0.000902
     4   -0.000010    0.000611   -0.000898
     5    0.490227   -1.096305   -0.000140
     6   -0.000000    0.658421   -1.005809
     7   -0.490240    0.438717    1.004721
     8   -0.490229    1.096307    0.000140
     9   -0.000000   -0.658419    1.005804
    10    0.490238   -0.438716   -1.004725
----------------------------------------
   Tot   -0.000000    0.000001   -0.000001
----------------------------------------
   Max    1.096307
   Res    0.537255    sqrt( Sum f_i^2 / 3N )
----------------------------------------
   Max    1.096307    constrained

Stress-tensor-Voigt (kbar):     -351.74     -417.37     -426.78       36.68       10.77       24.02
(Free)E + p*V (eV/cell)    -2941.3052
Target enthalpy (eV/cell)    -2914.2646

siesta: Stress tensor (static) (eV/Ang**3):
        -0.219537    0.022897    0.014989
         0.022897   -0.260502    0.006722
         0.014989    0.006722   -0.266371

siesta: Pressure (static):        398.63133834  kBar

siesta: Stress tensor (total) (eV/Ang**3):
        -0.219537    0.022897    0.014989
         0.022897   -0.260502    0.006722
         0.014989    0.006722   -0.266371

siesta: Pressure (total):        398.63133834  kBar

                     ====================================
                        Begin Broyden opt. move =      7
                     ====================================

outcoor: Atomic coordinates (fractional):                   
    0.00000002   -0.00000000   -0.00000001   1       1  Mg
    0.50000000    0.50000000    0.50000002   1       2  Mg
    0.25000004    0.24999782    0.25000214   2       3  C
   -0.25000003   -0.24999784   -0.25000212   2       4  C
    0.55477079   -0.05477011    0.24999937   3       5  O
    0.24999998    0.55477352   -0.05477352   3       6  O
   -0.05477085    0.25000062    0.55477015   3       7  O
   -0.55477080    0.05477013   -0.24999939   3       8  O
   -0.24999999   -0.55477349    0.05477351   3       9  O
    0.05477084   -0.25000063   -0.55477017   3      10  O
 Kpoints in:          196 . Kpoints trimmed:          172

siesta: k-grid: Number of k-points =   172
siesta: k-grid: Cutoff (effective) =    15.236 Ang
siesta: k-grid: Supercell and displacements
siesta: k-grid:   -7   7   0      0.000
siesta: k-grid:   -7   0   7      0.000
siesta: k-grid:    0   0   7      0.000
Naive supercell factors:     5    5    5

superc: Internal auxiliary supercell:     5 x     5 x     5  =     125
superc: Number of atoms, orbitals, and projectors:   1250   4250  10000

outcell: Unit cell vectors (Ang):
        4.862900   -0.209953   -0.137439
        3.086145    3.763974   -0.137448
        3.086145    1.379808    3.504643

outcell: Cell vector modules (Ang)   :    4.869370    4.869362    4.869362
outcell: Cell angles (23,13,12) (deg):     53.1007     53.1005     53.1005
outcell: Cell volume (Ang**3)        :     68.4418
New_DM. Step:     8
DM reset as supercell changed.
Initializing Density Matrix...
New grid distribution:   1
           1       1:   15    1:    8    1:    4
           2       1:   15    1:    8    5:    8
           3       1:   15    1:    8    9:   12
           4       1:   15    1:    8   13:   15
           5       1:   15    9:   15    1:    4
           6       1:   15    9:   15    5:    8
           7       1:   15    9:   15    9:   12
           8       1:   15    9:   15   13:   15

InitMesh: MESH =    30 x    30 x    30 =       27000
InitMesh: (bp) =    15 x    15 x    15 =        3375
InitMesh: Mesh cutoff (required, used) =   100.000   143.000 Ry
ExtMesh (bp) on 0 =    75 x    68 x    64 =      326400
New grid distribution:   2
           1       9:   15    8:   15    1:    8
           2       1:    7    1:    7    1:    8
           3       1:    8    1:    8    9:   15
           4       9:   15    1:    8    9:   15
           5       1:    8    8:   15    1:    8
           6       8:   15    1:    7    1:    8
           7       1:    8    9:   15    9:   15
           8       9:   15    9:   15    9:   15
New grid distribution:   3
           1       1:    8    1:    8    1:    8
           2       9:   15    9:   15    1:    8
           3       1:    8    1:    8    9:   15
           4       9:   15    1:    8    9:   15
           5       1:    8    9:   15    1:    8
           6       9:   15    1:    8    1:    8
           7       1:    8    9:   15    9:   15
           8       9:   15    9:   15    9:   15
Setting up quadratic distribution...
ExtMesh (bp) on 0 =    67 x    68 x    68 =      309808
PhiOnMesh: Number of (b)points on node 0 =                  448
PhiOnMesh: nlist on node 0 =                12813

   scf: iscf   Eharris(eV)      E_KS(eV)   FreeEng(eV)    dDmax  Ef(eV)
   scf:    1    -2967.5244    -2990.1160    -2990.1160  1.81196 -3.6584
   scf:    2    -2971.3969    -2948.5964    -2948.5964  1.01213 -2.6680
   scf:    3    -2965.9848    -2950.5723    -2950.5723  0.77582 -2.8736
   scf:    4    -2958.2130    -2953.7669    -2953.7669  0.05950 -3.8136
   scf:    5    -2958.2107    -2954.4654    -2954.4654  0.05049 -3.8256
   scf:    6    -2958.1907    -2958.1205    -2958.1205  0.00512 -3.9202
   scf:    7    -2958.1907    -2957.9258    -2957.9258  0.00386 -3.9161
   scf:    8    -2958.1906    -2958.1817    -2958.1817  0.00010 -3.9155

SCF Convergence by dMax criterion
max |DM_out - DM_in|:     0.00010352
SCF cycle converged after    8 iterations

Using DM_out to compute the final energy and forces

siesta: E_KS(eV) =            -2958.1906

siesta: Atomic forces (eV/Ang):
     1   -0.000002    0.000000   -0.000000
     2   -0.000003    0.000000   -0.000001
     3   -0.000007    0.000412   -0.000607
     4    0.000003   -0.000404    0.000603
     5    0.577958   -1.292714   -0.000058
     6    0.000000    0.775297   -1.184351
     7   -0.577950    0.517197    1.184732
     8   -0.577954    1.292711    0.000055
     9    0.000000   -0.775298    1.184357
    10    0.577953   -0.517200   -1.184733
----------------------------------------
   Tot   -0.000002    0.000001   -0.000003
----------------------------------------
   Max    1.292714
   Res    0.633195    sqrt( Sum f_i^2 / 3N )
----------------------------------------
   Max    1.292714    constrained

Stress-tensor-Voigt (kbar):     -530.76     -639.35     -654.84       60.70       17.75       39.73
(Free)E + p*V (eV/cell)    -2932.2049
Target enthalpy (eV/cell)    -2915.4731

siesta: Stress tensor (static) (eV/Ang**3):
        -0.331268    0.037885    0.024800
         0.037885   -0.399046    0.011078
         0.024800    0.011077   -0.408716

siesta: Pressure (static):        608.31570352  kBar

siesta: Stress tensor (total) (eV/Ang**3):
        -0.331268    0.037885    0.024800
         0.037885   -0.399046    0.011078
         0.024800    0.011077   -0.408716

siesta: Pressure (total):        608.31570352  kBar

                     ====================================
                        Begin Broyden opt. move =      8
                     ====================================

outcoor: Atomic coordinates (fractional):                   
    0.00000002   -0.00000001   -0.00000002   1       1  Mg
    0.49999998    0.49999999    0.50000002   1       2  Mg
    0.25000004    0.24999766    0.25000229   2       3  C
   -0.25000003   -0.24999768   -0.25000228   2       4  C
    0.55610189   -0.05610085    0.24999890   3       5  O
    0.24999997    0.55610542   -0.05610542   3       6  O
   -0.05610198    0.25000109    0.55610090   3       7  O
   -0.55610190    0.05610087   -0.24999893   3       8  O
   -0.24999998   -0.55610539    0.05610540   3       9  O
    0.05610196   -0.25000109   -0.55610093   3      10  O
 Kpoints in:          196 . Kpoints trimmed:          172

siesta: k-grid: Number of k-points =   172
siesta: k-grid: Cutoff (effective) =    15.162 Ang
siesta: k-grid: Supercell and displacements
siesta: k-grid:   -7   7   0      0.000
siesta: k-grid:   -7   0   7      0.000
siesta: k-grid:    0   0   7      0.000
Naive supercell factors:     5    5    5

superc: Internal auxiliary supercell:     5 x     5 x     5  =     125
superc: Number of atoms, orbitals, and projectors:   1250   4250  10000

outcell: Unit cell vectors (Ang):
        4.743728   -0.251680   -0.164754
        2.975585    3.702977   -0.164765
        2.975584    1.330371    3.459668

outcell: Cell vector modules (Ang)   :    4.753256    4.753240    4.753240
outcell: Cell angles (23,13,12) (deg):     54.2179     54.2176     54.2176
outcell: Cell volume (Ang**3)        :     65.6895
New_DM. Step:     9
Re-using DM from previous geometry...
Re-using DM without extrapolation (not allowed)
Density Matrix sparsity pattern changed.
Note: For starting DM, Qtot, Tr[D*S] =         48.00000000         47.94385357
New grid distribution:   1
           1       1:   15    1:    8    1:    4
           2       1:   15    1:    8    5:    8
           3       1:   15    1:    8    9:   12
           4       1:   15    1:    8   13:   15
           5       1:   15    9:   15    1:    4
           6       1:   15    9:   15    5:    8
           7       1:   15    9:   15    9:   12
           8       1:   15    9:   15   13:   15

InitMesh: MESH =    30 x    30 x    30 =       27000
InitMesh: (bp) =    15 x    15 x    15 =        3375
InitMesh: Mesh cutoff (required, used) =   100.000   152.245 Ry
ExtMesh (bp) on 0 =    75 x    68 x    64 =      326400
New grid distribution:   2
           1       9:   15    8:   15    1:    8
           2       1:    7    1:    7    1:    8
           3       1:    8    1:    8    9:   15
           4       9:   15    1:    8    9:   15
           5       1:    8    8:   15    1:    8
           6       8:   15    1:    7    1:    8
           7       1:    8    9:   15    9:   15
           8       9:   15    9:   15    9:   15
New grid distribution:   3
           1       1:    8    1:    8    1:    8
           2       9:   15    9:   15    1:    8
           3       1:    8    1:    8    9:   15
           4       9:   15    1:    8    9:   15
           5       1:    8    9:   15    1:    8
           6       9:   15    1:    8    1:    8
           7       1:    8    9:   15    9:   15
           8       9:   15    9:   15    9:   15
Setting up quadratic distribution...
ExtMesh (bp) on 0 =    67 x    68 x    68 =      309808
PhiOnMesh: Number of (b)points on node 0 =                  448
PhiOnMesh: nlist on node 0 =                13264

   scf: iscf   Eharris(eV)      E_KS(eV)   FreeEng(eV)    dDmax  Ef(eV)
   scf:    1    -2957.1645    -2958.3950    -2958.3950  0.01424 -4.7744
   scf:    2    -2957.1623    -2957.1612    -2957.1612  0.00580 -4.7184
   scf:    3    -2957.1621    -2957.1613    -2957.1613  0.00487 -4.7202
   scf:    4    -2957.1618    -2957.1615    -2957.1615  0.00187 -4.7265
   scf:    5    -2957.1618    -2957.1618    -2957.1618  0.00014 -4.7287

SCF Convergence by dMax criterion
max |DM_out - DM_in|:     0.00014211
SCF cycle converged after    5 iterations

Using DM_out to compute the final energy and forces

siesta: E_KS(eV) =            -2957.1618

siesta: Atomic forces (eV/Ang):
     1    0.000002   -0.000004   -0.000001
     2   -0.000003    0.000002    0.000004
     3   -0.000001   -0.000063    0.000098
     4   -0.000001    0.000059   -0.000091
     5    0.313161   -0.700364   -0.000182
     6   -0.000001    0.420532   -0.642405
     7   -0.313163    0.280352    0.641810
     8   -0.313162    0.700367    0.000179
     9    0.000001   -0.420527    0.642399
    10    0.313164   -0.280352   -0.641815
----------------------------------------
   Tot   -0.000003    0.000001   -0.000004
----------------------------------------
   Max    0.700367
   Res    0.343191    sqrt( Sum f_i^2 / 3N )
----------------------------------------
   Max    0.700367    constrained

Stress-tensor-Voigt (kbar):     -722.52     -785.80     -794.85       35.39       10.37       23.16
(Free)E + p*V (eV/cell)    -2925.6853
Target enthalpy (eV/cell)    -2916.1621

siesta: Stress tensor (static) (eV/Ang**3):
        -0.450957    0.022087    0.014459
         0.022086   -0.490451    0.006474
         0.014458    0.006474   -0.496103

siesta: Pressure (static):        767.72417721  kBar

siesta: Stress tensor (total) (eV/Ang**3):
        -0.450957    0.022087    0.014459
         0.022086   -0.490451    0.006474
         0.014458    0.006474   -0.496103

siesta: Pressure (total):        767.72417721  kBar

                     ====================================
                        Begin Broyden opt. move =      9
                     ====================================

outcoor: Atomic coordinates (fractional):                   
    0.00000005   -0.00000002   -0.00000003   1       1  Mg
    0.49999996    0.49999998    0.50000005   1       2  Mg
    0.25000007    0.24999548    0.25000444   2       3  C
   -0.25000006   -0.24999553   -0.25000439   2       4  C
    0.55746767   -0.05746556    0.24999770   3       5  O
    0.24999995    0.55747500   -0.05747499   3       6  O
   -0.05746784    0.25000231    0.55746567   3       7  O
   -0.55746770    0.05746560   -0.24999775   3       8  O
   -0.24999996   -0.55747494    0.05747493   3       9  O
    0.05746781   -0.25000230   -0.55746573   3      10  O
 Kpoints in:          196 . Kpoints trimmed:          172

siesta: k-grid: Number of k-points =   172
siesta: k-grid: Cutoff (effective) =    15.079 Ang
siesta: k-grid: Supercell and displacements
siesta: k-grid:   -7   7   0      0.000
siesta: k-grid:   -7   0   7      0.000
siesta: k-grid:    0   0   7      0.000
Naive supercell factors:     5    5    5

superc: Internal auxiliary supercell:     5 x     5 x     5  =     125
superc: Number of atoms, orbitals, and projectors:   1250   4250  10000

outcell: Unit cell vectors (Ang):
        4.575042   -0.314141   -0.205642
        2.816556    3.618894   -0.205664
        2.816556    1.259249    3.398968

outcell: Cell vector modules (Ang)   :    4.590423    4.590390    4.590390
outcell: Cell angles (23,13,12) (deg):     55.9741     55.9735     55.9734
outcell: Cell volume (Ang**3)        :     62.0162
New_DM. Step:    10
Re-using DM from previous geometry...
Re-using DM without extrapolation (not allowed)
Density Matrix sparsity pattern changed.
Note: For starting DM, Qtot, Tr[D*S] =         48.00000000         47.89567631
New grid distribution:   1
           1       1:   12    1:    6    1:    3
           2       1:   12    1:    6    4:    6
           3       1:   12    1:    6    7:    9
           4       1:   12    1:    6   10:   12
           5       1:   12    7:   12    1:    3
           6       1:   12    7:   12    4:    6
           7       1:   12    7:   12    7:    9
           8       1:   12    7:   12   10:   12

InitMesh: MESH =    24 x    24 x    24 =       13824
InitMesh: (bp) =    12 x    12 x    12 =        1728
InitMesh: Mesh cutoff (required, used) =   100.000   106.951 Ry
ExtMesh (bp) on 0 =    60 x    54 x    51 =      165240
New grid distribution:   2
           1       1:    6    7:   12    7:   12
           2       7:   12    1:    6    1:    6
           3       7:   12    1:    6    7:   12
           4       7:   12    7:   12    1:    6
           5       1:    6    1:    6    7:   12
           6       1:    6    1:    6    1:    6
           7       7:   12    7:   12    7:   12
           8       1:    6    7:   12    1:    6
New grid distribution:   3
           1       1:    6    7:   12    7:   12
           2       7:   12    1:    6    1:    6
           3       7:   12    1:    6    7:   12
           4       7:   12    7:   12    1:    6
           5       1:    6    1:    6    7:   12
           6       1:    6    1:    6    1:    6
           7       7:   12    7:   12    7:   12
           8       1:    6    7:   12    1:    6
Setting up quadratic distribution...
ExtMesh (bp) on 0 =    54 x    54 x    54 =      157464
PhiOnMesh: Number of (b)points on node 0 =                  216
PhiOnMesh: nlist on node 0 =                 6984

   scf: iscf   Eharris(eV)      E_KS(eV)   FreeEng(eV)    dDmax  Ef(eV)
   scf:    1    -2955.3303    -2957.4950    -2957.4950  0.02239 -4.0177
   scf:    2    -2955.3248    -2955.3227    -2955.3227  0.00853 -3.9361
   scf:    3    -2955.3245    -2955.3229    -2955.3229  0.00731 -3.9386
   scf:    4    -2955.3240    -2955.3234    -2955.3234  0.00283 -3.9474
   scf:    5    -2955.3239    -2955.3238    -2955.3238  0.00027 -3.9503

SCF Convergence by dMax criterion
max |DM_out - DM_in|:     0.00026680
SCF cycle converged after    5 iterations

Using DM_out to compute the final energy and forces

siesta: E_KS(eV) =            -2955.3239

siesta: Atomic forces (eV/Ang):
     1    0.000004   -0.000011   -0.000004
     2   -0.000009    0.000005    0.000010
     3    0.000000    0.000025   -0.000038
     4    0.000002   -0.000045    0.000056
     5   -0.099466    0.222375   -0.000137
     6    0.000001   -0.132929    0.203071
     7    0.099464   -0.088827   -0.203845
     8    0.099464   -0.222358    0.000133
     9   -0.000002    0.132942   -0.203087
    10   -0.099456    0.088828    0.203840
----------------------------------------
   Tot    0.000004    0.000004   -0.000001
----------------------------------------
   Max    0.222375
   Res    0.108808    sqrt( Sum f_i^2 / 3N )
----------------------------------------
   Max    0.222375    constrained

Stress-tensor-Voigt (kbar):    -1047.13    -1022.59    -1019.11      -13.68       -3.99       -8.96
(Free)E + p*V (eV/cell)    -2915.4707
Target enthalpy (eV/cell)    -2916.6169

siesta: Stress tensor (static) (eV/Ang**3):
        -0.653558   -0.008539   -0.005589
        -0.008540   -0.638245   -0.002488
        -0.005590   -0.002488   -0.636073

siesta: Pressure (static):       1029.61012381  kBar

siesta: Stress tensor (total) (eV/Ang**3):
        -0.653558   -0.008539   -0.005589
        -0.008540   -0.638245   -0.002488
        -0.005590   -0.002488   -0.636073

siesta: Pressure (total):       1029.61012381  kBar

                     ====================================
                        Begin Broyden opt. move =     10
                     ====================================

outcoor: Atomic coordinates (fractional):                   
    0.00000005   -0.00000004   -0.00000003   1       1  Mg
    0.49999994    0.49999998    0.50000006   1       2  Mg
    0.25000006    0.24999609    0.25000384   2       3  C
   -0.25000005   -0.24999618   -0.25000377   2       4  C
    0.55744106   -0.05743934    0.24999758   3       5  O
    0.24999996    0.55744877   -0.05744874   3       6  O
   -0.05744122    0.25000244    0.55743947   3       7  O
   -0.55744109    0.05743941   -0.24999763   3       8  O
   -0.24999997   -0.55744869    0.05744867   3       9  O
    0.05744121   -0.25000241   -0.55743952   3      10  O
 Kpoints in:          196 . Kpoints trimmed:          172

siesta: k-grid: Number of k-points =   172
siesta: k-grid: Cutoff (effective) =    15.061 Ang
siesta: k-grid: Supercell and displacements
siesta: k-grid:   -7   7   0      0.000
siesta: k-grid:   -7   0   7      0.000
siesta: k-grid:    0   0   7      0.000
Naive supercell factors:     5    5    5

superc: Internal auxiliary supercell:     5 x     5 x     5  =     125
superc: Number of atoms, orbitals, and projectors:   1250   4250  10000

outcell: Unit cell vectors (Ang):
        4.608319   -0.296415   -0.194038
        2.851955    3.631871   -0.194060
        2.851955    1.275076    3.406219

outcell: Cell vector modules (Ang)   :    4.621917    4.621883    4.621882
outcell: Cell angles (23,13,12) (deg):     55.4867     55.4861     55.4860
outcell: Cell volume (Ang**3)        :     62.4973
New_DM. Step:    11
Re-using DM from previous geometry...
Re-using DM without extrapolation (not allowed)
Density Matrix sparsity pattern changed.
New grid distribution:   1
           1       1:   12    1:    6    1:    3
           2       1:   12    1:    6    4:    6
           3       1:   12    1:    6    7:    9
[...]
        -0.004293   -0.615506   -0.001343
        -0.002811   -0.001343   -0.614333

siesta: Pressure (static):        989.60957562  kBar

siesta: Stress tensor (total) (eV/Ang**3):
        -0.623138   -0.004293   -0.002811
        -0.004293   -0.615506   -0.001343
        -0.002811   -0.001343   -0.614333

siesta: Pressure (total):        989.60957562  kBar

                     ====================================
                        Begin Broyden opt. move =     28
                     ====================================

outcoor: Atomic coordinates (fractional):                   
   -0.00000220    0.00000178    0.00000041   1       1  Mg
    0.50000167    0.50000067    0.49999767   1       2  Mg
    0.24999981    0.25000252    0.24999766   2       3  C
   -0.25000014   -0.25000102   -0.24999883   2       4  C
    0.55766666   -0.05766519    0.24999890   3       5  O
    0.25000007    0.55767137   -0.05767150   3       6  O
   -0.05766638    0.25000102    0.55766505   3       7  O
   -0.55766565    0.05766350   -0.24999832   3       8  O
   -0.24999987   -0.55767320    0.05767300   3       9  O
    0.05766621   -0.25000182   -0.55766386   3      10  O
 Kpoints in:          196 . Kpoints trimmed:          172

siesta: k-grid: Number of k-points =   172
siesta: k-grid: Cutoff (effective) =    15.065 Ang
siesta: k-grid: Supercell and displacements
siesta: k-grid:   -7   0   7      0.000
siesta: k-grid:   -7   7   0      0.000
siesta: k-grid:    0   0   7      0.000
Naive supercell factors:     5    5    5

superc: Internal auxiliary supercell:     5 x     5 x     5  =     125
superc: Number of atoms, orbitals, and projectors:   1250   4250  10000

outcell: Unit cell vectors (Ang):
        4.619674   -0.292076   -0.191197
        2.862761    3.637434   -0.191212
        2.862761    1.279911    3.410177

outcell: Cell vector modules (Ang)   :    4.632845    4.632805    4.632805
outcell: Cell angles (23,13,12) (deg):     55.3631     55.3627     55.3627
outcell: Cell volume (Ang**3)        :     62.7361
New_DM. Step:    29
Re-using DM from previous geometry...
Re-using DM without extrapolation (not allowed)
Density Matrix sparsity pattern changed.
New grid distribution:   1
           1       1:   12    1:    6    1:    3
           2       1:   12    1:    6    4:    6
           3       1:   12    1:    6    7:    9
           4       1:   12    1:    6   10:   12
           5       1:   12    7:   12    1:    3
           6       1:   12    7:   12    4:    6
           7       1:   12    7:   12    7:    9
           8       1:   12    7:   12   10:   12

InitMesh: MESH =    24 x    24 x    24 =       13824
InitMesh: (bp) =    12 x    12 x    12 =        1728
InitMesh: Mesh cutoff (required, used) =   100.000   104.136 Ry
ExtMesh (bp) on 0 =    60 x    54 x    51 =      165240
New grid distribution:   2
           1       1:    6    7:   12    7:   12
           2       7:   12    1:    6    1:    6
           3       7:   12    1:    6    7:   12
           4       7:   12    7:   12    1:    6
           5       1:    6    1:    6    7:   12
           6       1:    6    1:    6    1:    6
           7       7:   12    7:   12    7:   12
           8       1:    6    7:   12    1:    6
New grid distribution:   3
           1       1:    6    7:   12    7:   12
           2       7:   12    1:    6    1:    6
           3       7:   12    1:    6    7:   12
           4       7:   12    7:   12    1:    6
           5       1:    6    1:    6    7:   12
           6       1:    6    1:    6    1:    6
           7       7:   12    7:   12    7:   12
           8       1:    6    7:   12    1:    6
Setting up quadratic distribution...
ExtMesh (bp) on 0 =    54 x    54 x    54 =      157464
PhiOnMesh: Number of (b)points on node 0 =                  216
PhiOnMesh: nlist on node 0 =                 6945

   scf: iscf   Eharris(eV)      E_KS(eV)   FreeEng(eV)    dDmax  Ef(eV)
   scf:    1    -2955.7856    -2955.8323    -2955.8323  0.00145 -4.0925
   scf:    2    -2955.7857    -2955.7856    -2955.7856  0.00154 -4.0909
   scf:    3    -2955.7856    -2955.7856    -2955.7856  0.00115 -4.0912
   scf:    4    -2955.7856    -2955.7856    -2955.7856  0.00014 -4.0920

SCF Convergence by dMax criterion
max |DM_out - DM_in|:     0.00013960
SCF cycle converged after    4 iterations

Using DM_out to compute the final energy and forces

siesta: E_KS(eV) =            -2955.7856

siesta: Atomic forces (eV/Ang):
     1   -0.000411    0.000819    0.000185
     2    0.000313   -0.000149   -0.000869
     3   -0.000114    0.001449   -0.001817
     4   -0.000103   -0.000014    0.000369
     5    0.028533   -0.064091    0.000193
     6    0.000014    0.037030   -0.056660
     7   -0.028377    0.025306    0.058567
     8   -0.028273    0.063013    0.000127
     9    0.000014   -0.038005    0.057967
    10    0.028424   -0.025477   -0.057932
----------------------------------------
   Tot    0.000018   -0.000121    0.000130
----------------------------------------
   Max    0.064091
   Res    0.030970    sqrt( Sum f_i^2 / 3N )
----------------------------------------
   Max    0.064091    constrained

Stress-tensor-Voigt (kbar):    -1001.31    -1010.79    -1012.11        5.30        1.51        3.47
(Free)E + p*V (eV/cell)    -2916.3134
Target enthalpy (eV/cell)    -2916.6293

siesta: Stress tensor (static) (eV/Ang**3):
        -0.624959    0.003308    0.002165
         0.003308   -0.630877    0.000943
         0.002165    0.000943   -0.631699

siesta: Pressure (static):       1008.06606907  kBar

siesta: Stress tensor (total) (eV/Ang**3):
        -0.624959    0.003308    0.002165
         0.003308   -0.630877    0.000943
         0.002165    0.000943   -0.631699

siesta: Pressure (total):       1008.06606907  kBar

                     ====================================
                        Begin Broyden opt. move =     29
                     ====================================

outcoor: Atomic coordinates (fractional):                   
   -0.00000331    0.00000269    0.00000062   1       1  Mg
    0.50000250    0.50000100    0.49999650   1       2  Mg
    0.24999971    0.25000149    0.24999881   2       3  C
   -0.25000027   -0.24999916   -0.25000058   2       4  C
    0.55759059   -0.05758827    0.24999792   3       5  O
    0.25000012    0.55759795   -0.05759816   3       6  O
   -0.05759012    0.25000196    0.55758801   3       7  O
   -0.55758964    0.05758563   -0.24999668   3       8  O
   -0.24999980   -0.55760087    0.05760057   3       9  O
    0.05759052   -0.25000353   -0.55758620   3      10  O
 Kpoints in:          196 . Kpoints trimmed:          172

siesta: k-grid: Number of k-points =   172
siesta: k-grid: Cutoff (effective) =    15.077 Ang
siesta: k-grid: Supercell and displacements
siesta: k-grid:   -7   0   7      0.000
siesta: k-grid:   -7   7   0      0.000
siesta: k-grid:    0   0   7      0.000
Naive supercell factors:     5    5    5

superc: Internal auxiliary supercell:     5 x     5 x     5  =     125
superc: Number of atoms, orbitals, and projectors:   1250   4250  10000

outcell: Unit cell vectors (Ang):
        4.616567   -0.295356   -0.193345
        2.858244    3.637288   -0.193367
        2.858244    1.277878    3.410906

outcell: Cell vector modules (Ang)   :    4.630044    4.629991    4.629990
outcell: Cell angles (23,13,12) (deg):     55.4479     55.4472     55.4472
outcell: Cell volume (Ang**3)        :     62.7625
New_DM. Step:    30
Re-using DM from previous geometry...
Re-using DM without extrapolation (not allowed)
Density Matrix sparsity pattern changed.
New grid distribution:   1
           1       1:   12    1:    6    1:    3
           2       1:   12    1:    6    4:    6
           3       1:   12    1:    6    7:    9
           4       1:   12    1:    6   10:   12
           5       1:   12    7:   12    1:    3
           6       1:   12    7:   12    4:    6
           7       1:   12    7:   12    7:    9
           8       1:   12    7:   12   10:   12

InitMesh: MESH =    24 x    24 x    24 =       13824
InitMesh: (bp) =    12 x    12 x    12 =        1728
InitMesh: Mesh cutoff (required, used) =   100.000   104.381 Ry
ExtMesh (bp) on 0 =    60 x    54 x    51 =      165240
New grid distribution:   2
           1       1:    6    7:   12    7:   12
           2       7:   12    1:    6    1:    6
           3       7:   12    1:    6    7:   12
           4       7:   12    7:   12    1:    6
           5       1:    6    1:    6    7:   12
           6       1:    6    1:    6    1:    6
           7       7:   12    7:   12    7:   12
           8       1:    6    7:   12    1:    6
New grid distribution:   3
           1       1:    6    7:   12    7:   12
           2       7:   12    1:    6    1:    6
           3       7:   12    1:    6    7:   12
           4       7:   12    7:   12    1:    6
           5       1:    6    1:    6    7:   12
           6       1:    6    1:    6    1:    6
           7       7:   12    7:   12    7:   12
           8       1:    6    7:   12    1:    6
Setting up quadratic distribution...
ExtMesh (bp) on 0 =    54 x    54 x    54 =      157464
PhiOnMesh: Number of (b)points on node 0 =                  216
PhiOnMesh: nlist on node 0 =                 6941

   scf: iscf   Eharris(eV)      E_KS(eV)   FreeEng(eV)    dDmax  Ef(eV)
   scf:    1    -2955.8024    -2955.7599    -2955.7599  0.00152 -4.0976
   scf:    2    -2955.8024    -2955.8024    -2955.8024  0.00180 -4.0996
   scf:    3    -2955.8024    -2955.8024    -2955.8024  0.00135 -4.0992
   scf:    4    -2955.8024    -2955.8024    -2955.8024  0.00019 -4.0983

SCF Convergence by dMax criterion
max |DM_out - DM_in|:     0.00018709
SCF cycle converged after    4 iterations

Using DM_out to compute the final energy and forces

siesta: E_KS(eV) =            -2955.8024

siesta: Atomic forces (eV/Ang):
     1    0.000774   -0.001511   -0.000338
     2   -0.000589    0.000261    0.001617
     3    0.000263   -0.000633    0.000068
     4    0.000289   -0.003028    0.003638
     5   -0.037157    0.083447   -0.000158
     6   -0.000007   -0.049122    0.075191
     7    0.036824   -0.032931   -0.076001
     8    0.036453   -0.080987   -0.000302
     9   -0.000007    0.051263   -0.078156
    10   -0.036805    0.033000    0.074681
----------------------------------------
   Tot    0.000038   -0.000242    0.000240
----------------------------------------
   Max    0.083447
   Res    0.040538    sqrt( Sum f_i^2 / 3N )
----------------------------------------
   Max    0.083447    constrained

Stress-tensor-Voigt (kbar):     -998.83     -986.50     -984.70       -6.87       -2.07       -4.50
(Free)E + p*V (eV/cell)    -2917.0209
Target enthalpy (eV/cell)    -2916.6295

siesta: Stress tensor (static) (eV/Ang**3):
        -0.623411   -0.004288   -0.002807
        -0.004288   -0.615721   -0.001292
        -0.002808   -0.001292   -0.614592

siesta: Pressure (static):        990.00898750  kBar

siesta: Stress tensor (total) (eV/Ang**3):
        -0.623411   -0.004288   -0.002807
        -0.004288   -0.615721   -0.001292
        -0.002808   -0.001292   -0.614592

siesta: Pressure (total):        990.00898750  kBar

                     ====================================
                        Begin Broyden opt. move =     30
                     ====================================

outcoor: Atomic coordinates (fractional):                   
   -0.00000276    0.00000222    0.00000058   1       1  Mg
    0.50000209    0.50000075    0.49999712   1       2  Mg
    0.24999978    0.25000392    0.24999630   2       3  C
   -0.25000013   -0.25000237   -0.24999749   2       4  C
    0.55769345   -0.05769190    0.24999874   3       5  O
    0.25000012    0.55769756   -0.05769773   3       6  O
   -0.05769307    0.25000114    0.55769169   3       7  O
   -0.55769234    0.05768974   -0.24999794   3       8  O
   -0.24999981   -0.55769985    0.05769960   3       9  O
    0.05769301   -0.25000226   -0.55769016   3      10  O
 Kpoints in:          196 . Kpoints trimmed:          172

siesta: k-grid: Number of k-points =   172
siesta: k-grid: Cutoff (effective) =    15.067 Ang
siesta: k-grid: Supercell and displacements
siesta: k-grid:   -7   0   7      0.000
siesta: k-grid:   -7   7   0      0.000
siesta: k-grid:    0   0   7      0.000
Naive supercell factors:     5    5    5

superc: Internal auxiliary supercell:     5 x     5 x     5  =     125
superc: Number of atoms, orbitals, and projectors:   1250   4250  10000

outcell: Unit cell vectors (Ang):
        4.619628   -0.292356   -0.191381
        2.862521    3.637578   -0.191393
        2.862521    1.279803    3.410382

outcell: Cell vector modules (Ang)   :    4.632825    4.632778    4.632778
outcell: Cell angles (23,13,12) (deg):     55.3699     55.3695     55.3695
outcell: Cell volume (Ang**3)        :     62.7464
New_DM. Step:    31
Re-using DM from previous geometry...
Re-using DM without extrapolation (not allowed)
Density Matrix sparsity pattern changed.
New grid distribution:   1
           1       1:   12    1:    6    1:    3
           2       1:   12    1:    6    4:    6
           3       1:   12    1:    6    7:    9
           4       1:   12    1:    6   10:   12
           5       1:   12    7:   12    1:    3
           6       1:   12    7:   12    4:    6
           7       1:   12    7:   12    7:    9
           8       1:   12    7:   12   10:   12

InitMesh: MESH =    24 x    24 x    24 =       13824
InitMesh: (bp) =    12 x    12 x    12 =        1728
InitMesh: Mesh cutoff (required, used) =   100.000   104.146 Ry
ExtMesh (bp) on 0 =    60 x    54 x    51 =      165240
New grid distribution:   2
           1       1:    6    7:   12    7:   12
           2       7:   12    1:    6    1:    6
           3       7:   12    1:    6    7:   12
           4       7:   12    7:   12    1:    6
           5       1:    6    1:    6    7:   12
           6       1:    6    1:    6    1:    6
           7       7:   12    7:   12    7:   12
           8       1:    6    7:   12    1:    6
New grid distribution:   3
           1       1:    6    7:   12    7:   12
           2       7:   12    1:    6    1:    6
           3       7:   12    1:    6    7:   12
           4       7:   12    7:   12    1:    6
           5       1:    6    1:    6    7:   12
           6       1:    6    1:    6    1:    6
           7       7:   12    7:   12    7:   12
           8       1:    6    7:   12    1:    6
Setting up quadratic distribution...
ExtMesh (bp) on 0 =    54 x    54 x    54 =      157464
PhiOnMesh: Number of (b)points on node 0 =                  216
PhiOnMesh: nlist on node 0 =                 6945

   scf: iscf   Eharris(eV)      E_KS(eV)   FreeEng(eV)    dDmax  Ef(eV)
   scf:    1    -2955.7922    -2955.8155    -2955.8155  0.00087 -4.0922

SCF Convergence by dMax criterion
max |DM_out - DM_in|:     0.00086623
SCF cycle converged after    1 iterations

Using DM_out to compute the final energy and forces

siesta: E_KS(eV) =            -2955.7922

siesta: Atomic forces (eV/Ang):
     1   -0.001442    0.002813    0.000660
     2    0.001106   -0.000537   -0.002987
     3   -0.000426    0.004156   -0.004896
     4   -0.000408    0.001476   -0.000859
     5    0.022164   -0.050411    0.000674
     6    0.000033    0.025878   -0.039837
     7   -0.021597    0.018997    0.045570
     8   -0.021033    0.046338    0.000304
     9    0.000032   -0.029459    0.044701
    10    0.021586   -0.019353   -0.043222
----------------------------------------
   Tot    0.000014   -0.000103    0.000109
----------------------------------------
   Max    0.050411
   Res    0.023398    sqrt( Sum f_i^2 / 3N )
----------------------------------------
   Max    0.050411    constrained

Stress-tensor-Voigt (kbar):    -1000.75    -1009.21    -1010.34        4.71        1.30        3.08
(Free)E + p*V (eV/cell)    -2916.3645
Target enthalpy (eV/cell)    -2916.6294

siesta: Stress tensor (static) (eV/Ang**3):
        -0.624614    0.002941    0.001925
         0.002942   -0.629890    0.000809
         0.001925    0.000809   -0.630596

siesta: Pressure (static):       1006.76524056  kBar

siesta: Stress tensor (total) (eV/Ang**3):
        -0.624614    0.002941    0.001925
         0.002942   -0.629890    0.000809
         0.001925    0.000809   -0.630596

siesta: Pressure (total):       1006.76524056  kBar

outcoor: Final (unrelaxed) atomic coordinates (fractional): 
   -0.00000276    0.00000222    0.00000058   1       1  Mg
    0.50000209    0.50000075    0.49999712   1       2  Mg
    0.24999978    0.25000392    0.24999630   2       3  C
   -0.25000013   -0.25000237   -0.24999749   2       4  C
    0.55769345   -0.05769190    0.24999874   3       5  O
    0.25000012    0.55769756   -0.05769773   3       6  O
   -0.05769307    0.25000114    0.55769169   3       7  O
   -0.55769234    0.05768974   -0.24999794   3       8  O
   -0.24999981   -0.55769985    0.05769960   3       9  O
    0.05769301   -0.25000226   -0.55769016   3      10  O

outcell: Unit cell vectors (Ang):
        4.619628   -0.292356   -0.191381
        2.862521    3.637578   -0.191393
        2.862521    1.279803    3.410382

outcell: Cell vector modules (Ang)   :    4.632825    4.632778    4.632778
outcell: Cell angles (23,13,12) (deg):     55.3699     55.3695     55.3695
outcell: Cell volume (Ang**3)        :     62.7464

siesta: Program's energy decomposition (eV):
siesta: Ebs     =      -676.027968
siesta: Eions   =      5228.674091
siesta: Ena     =      1080.245637
siesta: Ekin    =      2332.430387
siesta: Enl     =      -367.027675
siesta: DEna    =       -62.569740
siesta: DUscf   =         7.336756
siesta: DUext   =         0.000000
siesta: Exc     =      -717.533501
siesta: eta*DQ  =         0.000000
siesta: Emadel  =         0.000000
siesta: Emeta   =         0.000000
siesta: Emolmec =         0.000000
siesta: Ekinion =         0.000000
siesta: Eharris =     -2955.792247
siesta: Etot    =     -2955.792226
siesta: FreeEng =     -2955.792226

siesta: Final energy (eV):
siesta:  Band Struct. =    -676.027968
siesta:       Kinetic =    2332.430387
siesta:       Hartree =     712.770862
siesta:    Ext. field =       0.000000
siesta:   Exch.-corr. =    -717.533501
siesta:  Ion-electron =   -3493.574652
siesta:       Ion-ion =   -1789.885322
siesta:       Ekinion =       0.000000
siesta:         Total =   -2955.792226

siesta: Atomic forces (eV/Ang):
siesta:      1   -0.001442    0.002813    0.000660
siesta:      2    0.001106   -0.000537   -0.002987
siesta:      3   -0.000426    0.004156   -0.004896
siesta:      4   -0.000408    0.001476   -0.000859
siesta:      5    0.022164   -0.050411    0.000674
siesta:      6    0.000033    0.025878   -0.039837
siesta:      7   -0.021597    0.018997    0.045570
siesta:      8   -0.021033    0.046338    0.000304
siesta:      9    0.000032   -0.029459    0.044701
siesta:     10    0.021586   -0.019353   -0.043222
siesta: ----------------------------------------
siesta:    Tot    0.000014   -0.000103    0.000109

siesta: Stress tensor (static) (eV/Ang**3):
siesta:    -0.624614    0.002941    0.001925
siesta:     0.002942   -0.629890    0.000809
siesta:     0.001925    0.000809   -0.630596

siesta: Constrained stress tensor (static) (eV/Ang**3):
siesta:    -0.624614    0.002941    0.001925
siesta:     0.002941   -0.629890    0.000809
siesta:     0.001925    0.000809   -0.630596

siesta: Cell volume =         62.746413 Ang**3

siesta: Pressure (static):
siesta:                Solid            Molecule  Units
siesta:           0.00684372          0.00681974  Ry/Bohr**3
siesta:           0.62836665          0.62616497  eV/Ang**3
siesta:        1006.76524056       1003.23773543  kBar
(Free)E+ p_basis*V_orbitals  =       -2954.597929
(Free)Eharris+ p_basis*V_orbitals  =       -2954.597950
>> End of run:  10-JUN-2018  22:08:56
Job completed
