Siesta Version: siesta-trunk-479
Architecture  : atto-intel12-openmpi
Compiler flags: /share/apps/openmpi-1.6.5-intel/bin/mpif90 -w  -O2 -mp
PP flags      : -DCDF -DMPI 
PARALLEL version
NetCDF support

* Running on    4 nodes in parallel
>> Start of run:  26-NOV-2015  14:33:47

                           ***********************       
                           *  WELCOME TO SIESTA  *       
                           ***********************       

reinit: Reading from standard input
************************** Dump of input data file ****************************
#
# MgCO3 in primitive cell. SZ. Variable cell. Harris. Broyden Optim
#
SystemName	MgCo3 R-3c Harris -- SZ, 100 R -- variable cell at 100 Gpa
SystemLabel	var_cell
NumberOfSpecies		3
NumberOfAtoms	       10
%block ChemicalSpeciesLabel
      1      12     Mg
      2       6     C
      3       8     O
%endblock ChemicalSpeciesLabel
PAO.BasisSize  SZ
Diag.Divide-and-Conquer F
# Rhombohedral primitive cell
# (HEX 3-fold cell had A=4.635 and C=15.023, so alpha=48.179 degrees
#  and a=5.67783 Ang)
LatticeConstant     5.67783 Ang
%block LatticeParameters
1.0 1.0 1.0 48.179 48.179 48.179
%endblock LatticeParameters
AtomicCoordinatesFormat    Fractional
%block AtomicCoordinatesAndAtomicSpecies
  0.0         0.0         0.0      1
  0.5         0.5         0.5      1
  0.25        0.25        0.25     2
 -0.25       -0.25       -0.25     2
  0.5274     -0.0274      0.25     3
  0.25        0.5274     -0.0274   3
 -0.0274      0.25        0.5274   3
 -0.5274      0.0274     -0.25     3
 -0.25       -0.5274      0.0274   3
  0.0274     -0.25       -0.5274   3
%endblock AtomicCoordinatesAndAtomicSpecies
kgrid_cutoff 15.0 Ang
Solution.Method       diagon
MeshCutoff             100 Ry
DM.NumberBroyden       4
DM.UseSaveDM           T
DM.MixingWeight        0.1         # New DM amount for next SCF cycle
DM.Tolerance           1.d-3       # Tolerance in maximum difference
                                   # between input and output DM
MaxSCFIterations       20
WriteCoorStep      .true.
WriteForces        .true.
HarrisFunctional T
MD.TypeOfRun         Broyden
MD.Variable-Cell      T
MD.Target-pressure   100.0 GPa
MD.Num-CG-steps	     30
MD.Max-Stress-Tol    2.0 GPa
MD.Broyden.Initial.Inverse.Jacobian 1.0
MD.Broyden.History.Steps 6
************************** End of input data file *****************************

reinit: -----------------------------------------------------------------------
reinit: System Name: MgCo3 R-3c Harris -- SZ, 100 R -- variable cell at 100 Gpa
reinit: -----------------------------------------------------------------------
reinit: System Label: var_cell                                                    
reinit: -----------------------------------------------------------------------

initatom: Reading input for the pseudopotentials and atomic orbitals ----------
 Species number:            1  Label: Mg Atomic number:          12
 Species number:            2  Label: C Atomic number:           6
 Species number:            3  Label: O Atomic number:           8
Ground state valence configuration:   3s02
Reading pseudopotential information in formatted form from Mg.psf

Valence configuration for pseudopotential generation:
3s( 2.00) rc: 2.59
3p( 0.00) rc: 2.59
3d( 0.00) rc: 2.59
4f( 0.00) rc: 2.59
Ground state valence configuration:   2s02  2p02
Reading pseudopotential information in formatted form from C.psf

Valence configuration for pseudopotential generation:
2s( 2.00) rc: 1.49
2p( 2.00) rc: 1.52
3d( 0.00) rc: 1.58
Ground state valence configuration:   2s02  2p04
Reading pseudopotential information in formatted form from O.psf

Valence configuration for pseudopotential generation:
2s( 2.00) rc: 1.14
2p( 4.00) rc: 1.14
3d( 0.00) rc: 1.14
4f( 0.00) rc: 1.14
For Mg, standard SIESTA heuristics set lmxkb to 1
 (one more than the basis l, including polarization orbitals).
Use PS.lmax or PS.KBprojectors blocks to override.
For C, standard SIESTA heuristics set lmxkb to 2
 (one more than the basis l, including polarization orbitals).
Use PS.lmax or PS.KBprojectors blocks to override.
For O, standard SIESTA heuristics set lmxkb to 2
 (one more than the basis l, including polarization orbitals).
Use PS.lmax or PS.KBprojectors blocks to override.

<basis_specs>
===============================================================================
Mg                   Z=  12    Mass=  24.310        Charge= 0.17977+309
Lmxo=0 Lmxkb= 1    BasisType=split      Semic=F
L=0  Nsemic=0  Cnfigmx=3
          n=1  nzeta=1  polorb=0
            splnorm:   0.15000    
               vcte:    0.0000    
               rinn:    0.0000    
               qcoe:    0.0000    
               qyuk:    0.0000    
               qwid:   0.10000E-01
                rcs:    0.0000    
            lambdas:   1.00000    
-------------------------------------------------------------------------------
L=0  Nkbl=1  erefs: 0.17977+309
L=1  Nkbl=1  erefs: 0.17977+309
===============================================================================
</basis_specs>

atom: Called for Mg                    (Z =  12)

read_vps: Pseudopotential generation method:
read_vps: ATM3      Troullier-Martins                       
Total valence charge:    2.00000

xc_check: Exchange-correlation functional:
xc_check: Ceperley-Alder
V l=0 = -2*Zval/r beyond r=  3.5878
V l=1 = -2*Zval/r beyond r=  3.5878
All V_l potentials equal beyond r=  2.5600
This should be close to max(r_c) in ps generation
All pots = -2*Zval/r beyond r=  3.5878
Using large-core scheme for Vlocal

atom: Estimated core radius    3.58779

atom: Including non-local core corrections could be a good idea
atom: Maximum radius for 4*pi*r*r*local-pseudopot. charge    3.91588
atom: Maximum radius for r*vlocal+2*Zval:    3.63292
GHOST: No ghost state for L =  0
GHOST: No ghost state for L =  1

KBgen: Kleinman-Bylander projectors: 
   l= 0   rc=  2.657845   el= -0.351328   Ekb=  2.184400   kbcos=  0.257081
   l= 1   rc=  2.657845   el= -0.101748   Ekb=  0.525536   kbcos=  0.270508

KBgen: Total number of  Kleinman-Bylander projectors:    4
atom: -------------------------------------------------------------------------

atom: SANKEY-TYPE ORBITALS:

SPLIT: Orbitals with angular momentum L= 0

SPLIT: Basis orbitals for state 3s

SPLIT: PAO cut-off radius determined from an
SPLIT: energy shift=  0.020000 Ry

   izeta = 1
                 lambda =    1.000000
                     rc =    6.619780
                 energy =   -0.332103
                kinetic =    0.289627
    potential(screened) =   -0.621729
       potential(ionic) =   -1.387191
atom: Total number of Sankey-type orbitals:  1

atm_pop: Valence configuration (for local Pseudopot. screening):
 3s( 2.00)                                                            
Vna: chval, zval:    2.00000   2.00000

Vna:  Cut-off radius for the neutral-atom potential:   6.619780

atom: _________________________________________________________________________

<basis_specs>
===============================================================================
C                    Z=   6    Mass=  12.010        Charge= 0.17977+309
Lmxo=1 Lmxkb= 2    BasisType=split      Semic=F
L=0  Nsemic=0  Cnfigmx=2
          n=1  nzeta=1  polorb=0
            splnorm:   0.15000    
               vcte:    0.0000    
               rinn:    0.0000    
               qcoe:    0.0000    
               qyuk:    0.0000    
               qwid:   0.10000E-01
                rcs:    0.0000    
            lambdas:   1.00000    
L=1  Nsemic=0  Cnfigmx=2
          n=1  nzeta=1  polorb=0
            splnorm:   0.15000    
               vcte:    0.0000    
               rinn:    0.0000    
               qcoe:    0.0000    
               qyuk:    0.0000    
               qwid:   0.10000E-01
                rcs:    0.0000    
            lambdas:   1.00000    
-------------------------------------------------------------------------------
L=0  Nkbl=1  erefs: 0.17977+309
L=1  Nkbl=1  erefs: 0.17977+309
L=2  Nkbl=1  erefs: 0.17977+309
===============================================================================
</basis_specs>

atom: Called for C                     (Z =   6)

read_vps: Pseudopotential generation method:
read_vps: ATM3      Troullier-Martins                       
Total valence charge:    4.00000

xc_check: Exchange-correlation functional:
xc_check: Ceperley-Alder
V l=0 = -2*Zval/r beyond r=  1.4666
V l=1 = -2*Zval/r beyond r=  1.5038
V l=2 = -2*Zval/r beyond r=  1.5612
All V_l potentials equal beyond r=  1.5612
This should be close to max(r_c) in ps generation
All pots = -2*Zval/r beyond r=  1.5612

VLOCAL1: 99.0% of the norm of Vloc inside     17.809 Ry
VLOCAL1: 99.9% of the norm of Vloc inside     40.586 Ry
atom: Maximum radius for 4*pi*r*r*local-pseudopot. charge    1.88329
atom: Maximum radius for r*vlocal+2*Zval:    1.62091
GHOST: No ghost state for L =  0
GHOST: No ghost state for L =  1
GHOST: No ghost state for L =  2

KBgen: Kleinman-Bylander projectors: 
   l= 0   rc=  1.747182   el= -1.001947   Ekb=  5.181700   kbcos=  0.300603
   l= 1   rc=  1.747182   el= -0.398598   Ekb= -4.328763   kbcos= -0.367074
   l= 2   rc=  1.955272   el=  0.002326   Ekb= -1.016175   kbcos= -0.009979

KBgen: Total number of  Kleinman-Bylander projectors:    9
atom: -------------------------------------------------------------------------

atom: SANKEY-TYPE ORBITALS:

SPLIT: Orbitals with angular momentum L= 0

SPLIT: Basis orbitals for state 2s

SPLIT: PAO cut-off radius determined from an
SPLIT: energy shift=  0.020000 Ry

   izeta = 1
                 lambda =    1.000000
                     rc =    4.191849
                 energy =   -0.983897
                kinetic =    0.886956
    potential(screened) =   -1.870853
       potential(ionic) =   -5.479661

SPLIT: Orbitals with angular momentum L= 1

SPLIT: Basis orbitals for state 2p

SPLIT: PAO cut-off radius determined from an
SPLIT: energy shift=  0.020000 Ry

   izeta = 1
                 lambda =    1.000000
                     rc =    4.870301
                 energy =   -0.379093
                kinetic =    2.545357
    potential(screened) =   -2.924450
       potential(ionic) =   -6.433151
atom: Total number of Sankey-type orbitals:  4

atm_pop: Valence configuration (for local Pseudopot. screening):
 2s( 2.00)                                                            
 2p( 2.00)                                                            
Vna: chval, zval:    4.00000   4.00000

Vna:  Cut-off radius for the neutral-atom potential:   4.870301

atom: _________________________________________________________________________

<basis_specs>
===============================================================================
O                    Z=   8    Mass=  16.000        Charge= 0.17977+309
Lmxo=1 Lmxkb= 2    BasisType=split      Semic=F
L=0  Nsemic=0  Cnfigmx=2
          n=1  nzeta=1  polorb=0
            splnorm:   0.15000    
               vcte:    0.0000    
               rinn:    0.0000    
               qcoe:    0.0000    
               qyuk:    0.0000    
               qwid:   0.10000E-01
                rcs:    0.0000    
            lambdas:   1.00000    
L=1  Nsemic=0  Cnfigmx=2
          n=1  nzeta=1  polorb=0
            splnorm:   0.15000    
               vcte:    0.0000    
               rinn:    0.0000    
               qcoe:    0.0000    
               qyuk:    0.0000    
               qwid:   0.10000E-01
                rcs:    0.0000    
            lambdas:   1.00000    
-------------------------------------------------------------------------------
L=0  Nkbl=1  erefs: 0.17977+309
L=1  Nkbl=1  erefs: 0.17977+309
L=2  Nkbl=1  erefs: 0.17977+309
===============================================================================
</basis_specs>

atom: Called for O                     (Z =   8)

read_vps: Pseudopotential generation method:
read_vps: ATM3      Troullier-Martins                       
Total valence charge:    6.00000

xc_check: Exchange-correlation functional:
xc_check: Ceperley-Alder
V l=0 = -2*Zval/r beyond r=  1.1278
V l=1 = -2*Zval/r beyond r=  1.1278
V l=2 = -2*Zval/r beyond r=  1.1278
All V_l potentials equal beyond r=  1.1278
This should be close to max(r_c) in ps generation
All pots = -2*Zval/r beyond r=  1.1278

VLOCAL1: 99.0% of the norm of Vloc inside     34.126 Ry
VLOCAL1: 99.9% of the norm of Vloc inside     77.774 Ry
atom: Maximum radius for 4*pi*r*r*local-pseudopot. charge    1.37759
atom: Maximum radius for r*vlocal+2*Zval:    1.18566
GHOST: No ghost state for L =  0
GHOST: No ghost state for L =  1
GHOST: No ghost state for L =  2

KBgen: Kleinman-Bylander projectors: 
   l= 0   rc=  1.294105   el= -1.742414   Ekb=  9.135903   kbcos=  0.326910
   l= 1   rc=  1.294105   el= -0.676589   Ekb= -8.124878   kbcos= -0.395047
   l= 2   rc=  1.448233   el=  0.002386   Ekb= -2.039267   kbcos= -0.003484

KBgen: Total number of  Kleinman-Bylander projectors:    9
atom: -------------------------------------------------------------------------

atom: SANKEY-TYPE ORBITALS:

SPLIT: Orbitals with angular momentum L= 0

SPLIT: Basis orbitals for state 2s

SPLIT: PAO cut-off radius determined from an
SPLIT: energy shift=  0.020000 Ry

   izeta = 1
                 lambda =    1.000000
                     rc =    3.305093
                 energy =   -1.723766
                kinetic =    1.614911
    potential(screened) =   -3.338677
       potential(ionic) =  -11.304675

SPLIT: Orbitals with angular momentum L= 1

SPLIT: Basis orbitals for state 2p

SPLIT: PAO cut-off radius determined from an
SPLIT: energy shift=  0.020000 Ry

   izeta = 1
                 lambda =    1.000000
                     rc =    3.937239
                 energy =   -0.658841
                kinetic =    5.005986
    potential(screened) =   -5.664827
       potential(ionic) =  -13.452360
atom: Total number of Sankey-type orbitals:  4

atm_pop: Valence configuration (for local Pseudopot. screening):
 2s( 2.00)                                                            
 2p( 4.00)                                                            
Vna: chval, zval:    6.00000   6.00000

Vna:  Cut-off radius for the neutral-atom potential:   3.937239

atom: _________________________________________________________________________

prinput: Basis input ----------------------------------------------------------

PAO.BasisType split     

%block ChemicalSpeciesLabel
    1   12 Mg                      # Species index, atomic number, species label
    2    6 C                       # Species index, atomic number, species label
    3    8 O                       # Species index, atomic number, species label
%endblock ChemicalSpeciesLabel

%block PAO.Basis                 # Define Basis set
Mg                    1                    # Species label, number of l-shells
 n=3   0   1                         # n, l, Nzeta 
   6.620   
   1.000   
C                     2                    # Species label, number of l-shells
 n=2   0   1                         # n, l, Nzeta 
   4.192   
   1.000   
 n=2   1   1                         # n, l, Nzeta 
   4.870   
   1.000   
O                     2                    # Species label, number of l-shells
 n=2   0   1                         # n, l, Nzeta 
   3.305   
   1.000   
 n=2   1   1                         # n, l, Nzeta 
   3.937   
   1.000   
%endblock PAO.Basis

prinput: ----------------------------------------------------------------------

Dumping basis to NetCDF file Mg.ion.nc
Dumping basis to NetCDF file C.ion.nc
Dumping basis to NetCDF file O.ion.nc
coor:   Atomic-coordinates input format  =     Fractional

siesta: Atomic coordinates (Bohr) and species
siesta:      0.00000   0.00000   0.00000  1        1
siesta:     12.51930   5.59740   3.66414  1        2
siesta:      6.25965   2.79870   1.83207  2        3
siesta:     -6.25965  -2.79870  -1.83207  2        4
siesta:      7.25136   0.58061   1.83207  3        5
siesta:      6.25965   4.12944  -0.20079  3        6
siesta:      5.26794   3.68605   3.86493  3        7
siesta:     -7.25136  -0.58061  -1.83207  3        8
siesta:     -6.25965  -4.12944   0.20079  3        9
siesta:     -5.26794  -3.68605  -3.86493  3       10

siesta: System type = bulk      

initatomlists: Number of atoms, orbitals, and projectors:     10    34    80

siesta: ******************** Simulation parameters ****************************
siesta:
siesta: The following are some of the parameters of the simulation.
siesta: A complete list of the parameters used, including default values,
siesta: can be found in file out.fdf
siesta:
redata: Non-Collinear-spin run           =     F
redata: SpinPolarized (Up/Down) run      =     F
redata: Number of spin components        =     1
redata: Long output                      =     F
redata: Number of Atomic Species         =        3
redata: Charge density info will appear in .RHO file
redata: Write Mulliken Pop.              =     NO
redata: Mesh Cutoff                      =   100.0000  Ry
redata: Net charge of the system         =     0.0000 |e|
redata: Min. number of SCF Iter          =        0
redata: Max. number of SCF Iter          =       20
redata: Mix DM or H after convergence    =     F
redata: Recompute H after scf cycle      =     F
redata: Broyden mixing with     4 saved histories.
redata: Mix DM in first SCF step ?       =     F
redata: Write Pulay info on disk?        =     F
redata: Discard 1st Pulay DM after  kick =     F
redata: New DM Mixing Weight             =     0.1000
redata: New DM Occupancy tolerance       = 0.000000000001
redata: No kicks to SCF
redata: DM Mixing Weight for Kicks       =     0.5000
redata: DM Tolerance for SCF             =     0.001000
redata: Require (free) Energy convergence in SCF =     F
redata: DM (free)Energy tolerance for SCF =     0.000010 eV
redata: Require Harris convergence for SCF =     F
redata: DM Harris energy tolerance for SCF =     0.000010 eV
redata: Using Saved Data (generic)   =     F
redata: Use continuation files for DM    =     T
redata: Neglect nonoverlap interactions  =     F
redata: Method of Calculation            =     Diagonalization
redata: Divide and Conquer               =     F
redata: Electronic Temperature           =     0.0019  Ry
redata: Fix the spin of the system       =     F
redata: Dynamics option                  =     Broyden coord. optimization
redata: Variable cell                    =     T
redata: Maximum number of CG moves       =       30
redata: Force tolerance                  =     0.0016  Ry/Bohr
redata: Stress tolerance                 =     2.0000  GPa
redata: ***********************************************************************
Total number of electrons:    48.000000
Total ionic charge:    48.000000

* ProcessorY, Blocksize:    2   9


* Orbital distribution balance (max,min):     9     7

 Kpoints in:          154 . Kpoints trimmed:          154

siesta: k-grid: Number of k-points =   154
siesta: k-grid: Cutoff (effective) =    16.222 Ang
siesta: k-grid: Supercell and displacements
siesta: k-grid:   -7   0   7      0.500
siesta: k-grid:    0  -7   7      0.000
siesta: k-grid:    0   0   6      0.000
Naive supercell factors:     4    4    4
Auxiliary supercell needs to be larger than naive one...

superc: Internal auxiliary supercell:     5 x     5 x     4  =     100
superc: Number of atoms, orbitals, and projectors:   1000   3400   8000

                     ====================================
                        Begin Broyden opt. move =      0
                     ====================================

outcoor: Atomic coordinates (fractional):                   
    0.00000000    0.00000000    0.00000000   1       1  Mg
    0.50000000    0.50000000    0.50000000   1       2  Mg
    0.25000000    0.25000000    0.25000000   2       3  C
   -0.25000000   -0.25000000   -0.25000000   2       4  C
    0.52740000   -0.02740000    0.25000000   3       5  O
    0.25000000    0.52740000   -0.02740000   3       6  O
   -0.02740000    0.25000000    0.52740000   3       7  O
   -0.52740000    0.02740000   -0.25000000   3       8  O
   -0.25000000   -0.52740000    0.02740000   3       9  O
    0.02740000   -0.25000000   -0.52740000   3      10  O

superc: Internal auxiliary supercell:     5 x     5 x     4  =     100
superc: Number of atoms, orbitals, and projectors:   1000   3400   8000

outcell: Unit cell vectors (Ang):
        5.677830    0.000000    0.000000
        3.786009    4.231299    0.000000
        3.786009    1.692731    3.877957

outcell: Cell vector modules (Ang)   :    5.677830    5.677830    5.677830
outcell: Cell angles (23,13,12) (deg):     48.1790     48.1790     48.1790
outcell: Cell volume (Ang**3)        :     93.1663
New_DM. Step:     1
Initializing Density Matrix...
New grid distribution:   1
           1       1:   16    1:    8    1:    8
           2       1:   16    1:    8    9:   16
           3       1:   16    9:   16    1:    8
           4       1:   16    9:   16    9:   16

InitMesh: MESH =    32 x    32 x    32 =       32768
InitMesh: (bp) =    16 x    16 x    16 =        4096
InitMesh: Mesh cutoff (required, used) =   100.000   112.857 Ry
ExtMesh (bp) on 0 =    76 x    68 x    68 =      351424
New grid distribution:   2
           1       1:   16    1:    8    1:    8
           2       1:   16    1:    8    9:   16
           3       1:   16    9:   16    1:    8
           4       1:   16    9:   16    9:   16
New grid distribution:   3
           1       1:   16    1:    8    1:    8
           2       1:   16    1:    8    9:   16
           3       1:   16    9:   16    1:    8
           4       1:   16    9:   16    9:   16
Setting up quadratic distribution...
ExtMesh (bp) on 0 =    76 x    68 x    68 =      351424
PhiOnMesh: Number of (b)points on node 0 =                 1024
PhiOnMesh: nlist on node 0 =                22552

stepf: Fermi-Dirac step function

siesta: Program's energy decomposition (eV):
siesta: Ebs     =      -700.301948
siesta: Eions   =      5228.674091
siesta: Ena     =      1092.429444
siesta: Ekin    =      2100.835149
siesta: Enl     =      -258.044678
siesta: DEna    =        -0.000017
siesta: DUscf   =         0.000000
siesta: DUext   =         0.000000
siesta: Exc     =      -683.847186
siesta: eta*DQ  =         0.000000
siesta: Emadel  =         0.000000
siesta: Emeta   =         0.000000
siesta: Emolmec =         0.000000
siesta: Ekinion =         0.000000
siesta: Eharris =     -2966.326653
siesta: Etot    =     -2977.301380
siesta: FreeEng =     -2977.301380

siesta: Eharris(eV) =   -2966.326653


siesta: Eharris(eV) =   -2966.326653

 Broyden: No of relevant DM elements:         9610
 maxit for broyden:            4
 cycle on maxit:  T
 variable weight:  T
 initial alpha:   0.100000000000000     
timer: Routine,Calls,Time,% =    IterSCF     1       1.027  43.72
:!: SCF did not converge in maximum number of steps.

Using DM_out to compute the final energy and forces

siesta: E_KS - E_eggbox =     -2949.8288

siesta: Atomic forces (eV/Ang):
     1    0.000000   -0.000000    0.000000
     2   -0.000000    0.000000    0.000000
     3    0.000000   -0.000001    0.000001
     4   -0.000000    0.000001   -0.000001
     5    2.760285   -6.173729   -0.000000
     6    0.000000    3.703929   -5.658182
     7   -2.760285    2.469801    5.658181
     8   -2.760285    6.173729    0.000000
     9   -0.000000   -3.703929    5.658182
    10    2.760285   -2.469801   -5.658181
----------------------------------------
   Tot   -0.000000    0.000000   -0.000000
----------------------------------------
   Max    6.173729
   Res    3.024371    sqrt( Sum f_i^2 / 3N )
----------------------------------------
   Max    6.173729    constrained

Stress-tensor-Voigt (kbar):      567.99      382.09      355.54      103.89       30.41       68.01
(Free)E + p*V (eV/cell)    -2975.1357
Target enthalpy (eV/cell)    -2891.6795

siesta: Stress tensor (static) (eV/Ang**3):
         0.354511    0.064841    0.042446
         0.064841    0.238476    0.018978
         0.042446    0.018978    0.221909

siesta: Pressure (static):       -435.20680257  kBar

siesta: Stress tensor (total) (eV/Ang**3):
         0.354511    0.064841    0.042446
         0.064841    0.238476    0.018978
         0.042446    0.018978    0.221909

siesta: Pressure (total):       -435.20680257  kBar
 
Broyden_optim: max_history for broyden:   6
Broyden_optim: cycle on maxit: T
Broyden_optim: initial inverse jacobian:   1.0000
 
Broyden_optim: No of elements:     36

Broyden_optim: No target stress found, assuming hydrostatic MD.TargetPressure.

Broyden_optim: Target stress (kBar)
Broyden_optim:     -1000.000       0.000       0.000
Broyden_optim:         0.000   -1000.000       0.000
Broyden_optim:         0.000       0.000   -1000.000

                     ====================================
                        Begin Broyden opt. move =      1
                     ====================================

outcoor: Atomic coordinates (fractional):                   
    0.00000000    0.00000000    0.00000000   1       1  Mg
    0.50000000    0.50000000    0.50000000   1       2  Mg
    0.25000000    0.25000000    0.25000000   2       3  C
   -0.25000000   -0.25000000   -0.25000000   2       4  C
    0.53740574   -0.03740574    0.25000000   3       5  O
    0.25000000    0.53740574   -0.03740574   3       6  O
   -0.03740575    0.25000000    0.53740574   3       7  O
   -0.53740574    0.03740574   -0.25000000   3       8  O
   -0.25000000   -0.53740574    0.03740574   3       9  O
    0.03740575   -0.25000000   -0.53740574   3      10  O
 Kpoints in:          168 . Kpoints trimmed:          168

siesta: k-grid: Number of k-points =   168
siesta: k-grid: Cutoff (effective) =    15.185 Ang
siesta: k-grid: Supercell and displacements
siesta: k-grid:    0   7  -7      0.500
siesta: k-grid:   -7   0   7      0.000
siesta: k-grid:    0   6   0      0.000
Naive supercell factors:     4    4    4
Auxiliary supercell needs to be larger than naive one...

superc: Internal auxiliary supercell:     5 x     5 x     4  =     100
superc: Number of atoms, orbitals, and projectors:   1000   3400   8000

outcell: Unit cell vectors (Ang):
        5.251635   -0.028238   -0.018485
        3.480776    3.932513   -0.018485
        3.480776    1.556261    3.611517

outcell: Cell vector modules (Ang)   :    5.251743    5.251743    5.251743
outcell: Cell angles (23,13,12) (deg):     48.7948     48.7948     48.7948
outcell: Cell volume (Ang**3)        :     75.2462
New_DM. Step:     2
Initializing Density Matrix...
New grid distribution:   1
           1       1:   15    1:    8    1:    8
           2       1:   15    1:    8    9:   15
           3       1:   15    9:   15    1:    8
           4       1:   15    9:   15    9:   15

InitMesh: MESH =    30 x    30 x    30 =       27000
InitMesh: (bp) =    15 x    15 x    15 =        3375
InitMesh: Mesh cutoff (required, used) =   100.000   116.744 Ry
ExtMesh (bp) on 0 =    75 x    68 x    68 =      346800
New grid distribution:   2
           1       1:   15    1:    7    1:    7
           2       1:   15    1:    8    8:   15
           3       1:   15    8:   15    1:    7
           4       1:   15    9:   15    8:   15
New grid distribution:   3
           1       1:   15    1:    8    1:    8
           2       1:   15    1:    8    9:   15
           3       1:   15    9:   15    1:    8
           4       1:   15    9:   15    9:   15
Setting up quadratic distribution...
ExtMesh (bp) on 0 =    75 x    67 x    67 =      336675
PhiOnMesh: Number of (b)points on node 0 =                  735
PhiOnMesh: nlist on node 0 =                19894

siesta: Eharris(eV) =   -2965.796810


siesta: Eharris(eV) =   -2965.796810

:!: SCF did not converge in maximum number of steps.

Using DM_out to compute the final energy and forces

siesta: Atomic forces (eV/Ang):
     1    0.000000    0.000000    0.000000
     2   -0.000000   -0.000000    0.000000
     3   -0.000000    0.000000   -0.000001
     4    0.000000   -0.000000    0.000001
     5    3.774812   -8.442847   -0.000000
     6   -0.000000    5.065285   -7.737812
     7   -3.774812    3.377561    7.737813
     8   -3.774812    8.442847    0.000000
     9    0.000000   -5.065285    7.737812
    10    3.774812   -3.377561   -7.737813
----------------------------------------
   Tot   -0.000000    0.000000    0.000000
----------------------------------------
   Max    8.442847
   Res    4.135961    sqrt( Sum f_i^2 / 3N )
----------------------------------------
   Max    8.442847    constrained

Stress-tensor-Voigt (kbar):      453.52       49.24       -8.48      225.91       66.12      147.88
(Free)E + p*V (eV/cell)    -2956.5877
Target enthalpy (eV/cell)    -2901.8854

siesta: Stress tensor (static) (eV/Ang**3):
         0.283059    0.141001    0.092301
         0.141001    0.030734    0.041268
         0.092301    0.041268   -0.005293

siesta: Pressure (static):       -164.75942243  kBar

siesta: Stress tensor (total) (eV/Ang**3):
         0.283059    0.141001    0.092301
         0.141001    0.030734    0.041268
         0.092301    0.041268   -0.005293

siesta: Pressure (total):       -164.75942243  kBar

                     ====================================
                        Begin Broyden opt. move =      2
                     ====================================

outcoor: Atomic coordinates (fractional):                   
    0.00000000    0.00000000    0.00000000   1       1  Mg
    0.50000000    0.50000000    0.50000000   1       2  Mg
    0.25000000    0.25000000    0.25000000   2       3  C
   -0.25000000   -0.25000000   -0.25000000   2       4  C
    0.56751368   -0.06751367    0.25000000   3       5  O
    0.25000000    0.56751367   -0.06751367   3       6  O
   -0.06751368    0.25000000    0.56751367   3       7  O
   -0.56751368    0.06751367   -0.25000000   3       8  O
   -0.25000000   -0.56751367    0.06751367   3       9  O
    0.06751368   -0.25000000   -0.56751367   3      10  O
 Kpoints in:          280 . Kpoints trimmed:          280

siesta: k-grid: Number of k-points =   280
siesta: k-grid: Cutoff (effective) =    15.757 Ang
siesta: k-grid: Supercell and displacements
siesta: k-grid:    0  -8   8      0.500
siesta: k-grid:   -8   0   8      0.500
siesta: k-grid:    0   0   7      0.000
Naive supercell factors:     5    5    5

superc: Internal auxiliary supercell:     5 x     5 x     5  =     125
superc: Number of atoms, orbitals, and projectors:   1250   4250  10000

outcell: Unit cell vectors (Ang):
        4.501575   -0.144815   -0.094798
        2.893755    3.451279   -0.094798
        2.893755    1.293803    3.200998

outcell: Cell vector modules (Ang)   :    4.504901    4.504901    4.504901
outcell: Cell angles (23,13,12) (deg):     51.8518     51.8518     51.8518
outcell: Cell volume (Ang**3)        :     52.2564
New_DM. Step:     3
DM reset as supercell changed.
Initializing Density Matrix...
New grid distribution:   1
           1       1:   12    1:    6    1:    6
           2       1:   12    1:    6    7:   12
           3       1:   12    7:   12    1:    6
           4       1:   12    7:   12    7:   12

InitMesh: MESH =    24 x    24 x    24 =       13824
InitMesh: (bp) =    12 x    12 x    12 =        1728
InitMesh: Mesh cutoff (required, used) =   100.000   105.274 Ry
ExtMesh (bp) on 0 =    64 x    58 x    58 =      215296
New grid distribution:   2
           1       1:   12    1:    6    1:    6
           2       1:   12    1:    6    7:   12
           3       1:   12    7:   12    1:    6
           4       1:   12    7:   12    7:   12
New grid distribution:   3
           1       1:   12    1:    6    1:    6
           2       1:   12    1:    6    7:   12
           3       1:   12    7:   12    1:    6
           4       1:   12    7:   12    7:   12
Setting up quadratic distribution...
ExtMesh (bp) on 0 =    64 x    58 x    58 =      215296
PhiOnMesh: Number of (b)points on node 0 =                  432
PhiOnMesh: nlist on node 0 =                16556

siesta: Eharris(eV) =   -2956.021850


siesta: Eharris(eV) =   -2956.021850

:!: SCF did not converge in maximum number of steps.

Using DM_out to compute the final energy and forces

siesta: Atomic forces (eV/Ang):
     1   -0.000000   -0.000000    0.000000
     2    0.000000   -0.000000    0.000000
     3   -0.000000    0.000000    0.000001
     4    0.000000   -0.000000   -0.000001
     5    1.024315   -2.291016    0.000001
     6   -0.000000    1.374496   -2.099700
     7   -1.024316    0.916521    2.099700
     8   -1.024315    2.291016   -0.000001
     9    0.000000   -1.374496    2.099700
    10    1.024316   -0.916521   -2.099700
----------------------------------------
   Tot   -0.000000   -0.000000    0.000000
----------------------------------------
   Max    2.291016
   Res    1.122317    sqrt( Sum f_i^2 / 3N )
----------------------------------------
   Max    2.291016    constrained

Stress-tensor-Voigt (kbar):     -908.64    -1196.62    -1237.73      160.92       47.10      105.34
(Free)E + p*V (eV/cell)    -2897.9860
Target enthalpy (eV/cell)    -2901.7149

siesta: Stress tensor (static) (eV/Ang**3):
        -0.567121    0.100440    0.065749
         0.100440   -0.746860    0.029397
         0.065749    0.029397   -0.772524

siesta: Pressure (static):       1114.32880064  kBar

siesta: Stress tensor (total) (eV/Ang**3):
        -0.567121    0.100440    0.065749
         0.100440   -0.746860    0.029397
         0.065749    0.029397   -0.772524

siesta: Pressure (total):       1114.32880064  kBar

                     ====================================
                        Begin Broyden opt. move =      3
                     ====================================

outcoor: Atomic coordinates (fractional):                   
   -0.00000000   -0.00000000   -0.00000000   1       1  Mg
    0.50000000    0.50000000    0.50000000   1       2  Mg
    0.25000000    0.25000000    0.25000000   2       3  C
   -0.25000000   -0.25000000   -0.25000000   2       4  C
    0.56782832   -0.06782832    0.25000000   3       5  O
    0.25000000    0.56782832   -0.06782832   3       6  O
   -0.06782832    0.25000000    0.56782832   3       7  O
   -0.56782832    0.06782832   -0.25000000   3       8  O
   -0.25000000   -0.56782832    0.06782832   3       9  O
    0.06782832   -0.25000000   -0.56782832   3      10  O
 Kpoints in:          280 . Kpoints trimmed:          280

siesta: k-grid: Number of k-points =   280
siesta: k-grid: Cutoff (effective) =    16.014 Ang
siesta: k-grid: Supercell and displacements
siesta: k-grid:    0   8  -8      0.500
siesta: k-grid:   -8   8   0      0.500
siesta: k-grid:    0   7   0      0.000
Naive supercell factors:     5    5    5

superc: Internal auxiliary supercell:     5 x     5 x     5  =     125
superc: Number of atoms, orbitals, and projectors:   1250   4250  10000

outcell: Unit cell vectors (Ang):
        4.571326   -0.160805   -0.105265
        2.928349    3.513923   -0.105265
        2.928349    1.309270    3.262598

outcell: Cell vector modules (Ang)   :    4.575365    4.575365    4.575365
outcell: Cell angles (23,13,12) (deg):     52.1934     52.1934     52.1934
outcell: Cell volume (Ang**3)        :     55.3036
New_DM. Step:     4
Initializing Density Matrix...
New grid distribution:   1
           1       1:   12    1:    6    1:    6
           2       1:   12    1:    6    7:   12
           3       1:   12    7:   12    1:    6
           4       1:   12    7:   12    7:   12

InitMesh: MESH =    24 x    24 x    24 =       13824
InitMesh: (bp) =    12 x    12 x    12 =        1728
InitMesh: Mesh cutoff (required, used) =   100.000   102.487 Ry
ExtMesh (bp) on 0 =    64 x    58 x    58 =      215296
New grid distribution:   2
           1       1:   12    1:    6    1:    6
           2       1:   12    1:    6    7:   12
           3       1:   12    7:   12    1:    6
           4       1:   12    7:   12    7:   12
New grid distribution:   3
           1       1:   12    1:    6    1:    6
           2       1:   12    1:    6    7:   12
           3       1:   12    7:   12    1:    6
           4       1:   12    7:   12    7:   12
Setting up quadratic distribution...
ExtMesh (bp) on 0 =    64 x    58 x    58 =      215296
PhiOnMesh: Number of (b)points on node 0 =                  432
PhiOnMesh: nlist on node 0 =                15730

siesta: Eharris(eV) =   -2959.934740


siesta: Eharris(eV) =   -2959.934740

:!: SCF did not converge in maximum number of steps.

Using DM_out to compute the final energy and forces

siesta: Atomic forces (eV/Ang):
     1   -0.000000    0.000000   -0.000000
     2    0.000000    0.000000   -0.000000
     3   -0.000000   -0.000001    0.000001
     4    0.000000    0.000002   -0.000001
     5    0.428528   -0.958453    0.000001
     6    0.000001    0.575025   -0.878418
     7   -0.428527    0.383430    0.878416
     8   -0.428528    0.958454   -0.000001
     9   -0.000001   -0.575025    0.878418
    10    0.428528   -0.383430   -0.878416
----------------------------------------
   Tot    0.000000    0.000000    0.000000
----------------------------------------
   Max    0.958454
   Res    0.469525    sqrt( Sum f_i^2 / 3N )
----------------------------------------
   Max    0.958454    constrained

Stress-tensor-Voigt (kbar):     -493.82     -616.44     -633.95       68.52       20.05       44.86
(Free)E + p*V (eV/cell)    -2918.4393
Target enthalpy (eV/cell)    -2903.9904

siesta: Stress tensor (static) (eV/Ang**3):
        -0.308215    0.042767    0.027996
         0.042767   -0.384749    0.012517
         0.027996    0.012517   -0.395676

siesta: Pressure (static):        581.40419052  kBar

siesta: Stress tensor (total) (eV/Ang**3):
        -0.308215    0.042767    0.027996
         0.042767   -0.384749    0.012517
         0.027996    0.012517   -0.395676

siesta: Pressure (total):        581.40419052  kBar

                     ====================================
                        Begin Broyden opt. move =      4
                     ====================================

outcoor: Atomic coordinates (fractional):                   
    0.00000000    0.00000000    0.00000000   1       1  Mg
    0.50000000    0.50000000    0.50000000   1       2  Mg
    0.25000000    0.25000000    0.25000000   2       3  C
   -0.25000000   -0.25000000   -0.25000000   2       4  C
    0.55965707   -0.05965708    0.25000000   3       5  O
    0.25000000    0.55965707   -0.05965707   3       6  O
   -0.05965707    0.25000000    0.55965708   3       7  O
   -0.55965707    0.05965708   -0.25000000   3       8  O
   -0.25000000   -0.55965707    0.05965707   3       9  O
    0.05965707   -0.25000000   -0.55965708   3      10  O
 Kpoints in:          280 . Kpoints trimmed:          280

siesta: k-grid: Number of k-points =   280
siesta: k-grid: Cutoff (effective) =    16.549 Ang
siesta: k-grid: Supercell and displacements
siesta: k-grid:    0   8  -8      0.500
siesta: k-grid:   -8   8   0      0.500
siesta: k-grid:    0   7   0      0.000
Naive supercell factors:     5    5    5

superc: Internal auxiliary supercell:     5 x     5 x     5  =     125
superc: Number of atoms, orbitals, and projectors:   1250   4250  10000

outcell: Unit cell vectors (Ang):
        4.783663   -0.127142   -0.083229
        3.095023    3.649715   -0.083229
        3.095023    1.383790    3.378235

outcell: Cell vector modules (Ang)   :    4.786076    4.786075    4.786075
outcell: Cell angles (23,13,12) (deg):     51.2156     51.2156     51.2156
outcell: Cell volume (Ang**3)        :     61.4774
New_DM. Step:     5
Initializing Density Matrix...
New grid distribution:   1
           1       1:   15    1:    8    1:    8
           2       1:   15    1:    8    9:   15
           3       1:   15    9:   15    1:    8
           4       1:   15    9:   15    9:   15

InitMesh: MESH =    30 x    30 x    30 =       27000
InitMesh: (bp) =    15 x    15 x    15 =        3375
InitMesh: Mesh cutoff (required, used) =   100.000   144.606 Ry
ExtMesh (bp) on 0 =    79 x    72 x    72 =      409536
New grid distribution:   2
           1       1:   15    1:    7    1:    7
           2       1:   15    1:    8    8:   15
           3       1:   15    8:   15    1:    7
           4       1:   15    9:   15    8:   15
New grid distribution:   3
           1       1:   15    1:    8    1:    8
           2       1:   15    1:    8    9:   15
           3       1:   15    9:   15    1:    8
           4       1:   15    9:   15    9:   15
Setting up quadratic distribution...
ExtMesh (bp) on 0 =    79 x    71 x    71 =      398239
PhiOnMesh: Number of (b)points on node 0 =                  735
PhiOnMesh: nlist on node 0 =                23662

siesta: Eharris(eV) =   -2964.348613


siesta: Eharris(eV) =   -2964.348613

:!: SCF did not converge in maximum number of steps.

Using DM_out to compute the final energy and forces

siesta: Atomic forces (eV/Ang):
     1   -0.000000   -0.000000   -0.000000
     2   -0.000000   -0.000000    0.000000
     3    0.000000    0.000000    0.000001
     4   -0.000000   -0.000000   -0.000001
     5    1.256032   -2.809273   -0.000001
     6   -0.000000    1.685424   -2.574681
     7   -1.256031    1.123850    2.574679
     8   -1.256032    2.809273    0.000000
     9    0.000000   -1.685424    2.574681
    10    1.256031   -1.123850   -2.574679
----------------------------------------
   Tot   -0.000000   -0.000000   -0.000000
----------------------------------------
   Max    2.809273
   Res    1.376200    sqrt( Sum f_i^2 / 3N )
----------------------------------------
   Max    2.809273    constrained

Stress-tensor-Voigt (kbar):       21.12     -171.01     -198.45      107.36       31.42       70.28
(Free)E + p*V (eV/cell)    -2940.2717
Target enthalpy (eV/cell)    -2906.3563

siesta: Stress tensor (static) (eV/Ang**3):
         0.013181    0.067011    0.043866
         0.067011   -0.106737    0.019613
         0.043866    0.019613   -0.123859

siesta: Pressure (static):        116.11324141  kBar

siesta: Stress tensor (total) (eV/Ang**3):
         0.013181    0.067011    0.043866
         0.067011   -0.106737    0.019613
         0.043866    0.019613   -0.123859

siesta: Pressure (total):        116.11324141  kBar

                     ====================================
                        Begin Broyden opt. move =      5
                     ====================================

outcoor: Atomic coordinates (fractional):                   
   -0.00000000   -0.00000000   -0.00000000   1       1  Mg
    0.50000000    0.50000000    0.50000000   1       2  Mg
    0.24999999    0.24999998    0.24999999   2       3  C
   -0.24999999   -0.24999998   -0.24999999   2       4  C
    0.56237611   -0.06237608    0.25000003   3       5  O
    0.25000001    0.56237609   -0.06237610   3       6  O
   -0.06237610    0.25000000    0.56237609   3       7  O
   -0.56237611    0.06237608   -0.25000002   3       8  O
   -0.25000001   -0.56237610    0.06237610   3       9  O
    0.06237611   -0.24999999   -0.56237609   3      10  O
 Kpoints in:          280 . Kpoints trimmed:          280

siesta: k-grid: Number of k-points =   280
siesta: k-grid: Cutoff (effective) =    16.403 Ang
siesta: k-grid: Supercell and displacements
siesta: k-grid:    8  -8   0      0.500
siesta: k-grid:    8   0  -8      0.500
siesta: k-grid:    7   0   0      0.000
Naive supercell factors:     5    5    5

superc: Internal auxiliary supercell:     5 x     5 x     5  =     125
superc: Number of atoms, orbitals, and projectors:   1250   4250  10000

outcell: Unit cell vectors (Ang):
        4.700445   -0.144408   -0.094531
        3.026666    3.599212   -0.094531
        3.026666    1.353228    3.336471

outcell: Cell vector modules (Ang)   :    4.703613    4.703613    4.703613
outcell: Cell angles (23,13,12) (deg):     51.6872     51.6872     51.6872
outcell: Cell volume (Ang**3)        :     59.1896
New_DM. Step:     6
Initializing Density Matrix...
New grid distribution:   1
           1       1:   15    1:    8    1:    8
           2       1:   15    1:    8    9:   15
           3       1:   15    9:   15    1:    8
           4       1:   15    9:   15    9:   15

InitMesh: MESH =    30 x    30 x    30 =       27000
InitMesh: (bp) =    15 x    15 x    15 =        3375
InitMesh: Mesh cutoff (required, used) =   100.000   150.582 Ry
ExtMesh (bp) on 0 =    79 x    72 x    72 =      409536
New grid distribution:   2
           1       1:   15    1:    7    1:    8
           2       1:   15    1:    8    9:   15
           3       1:   15    8:   15    1:    8
           4       1:   15    9:   15    9:   15
New grid distribution:   3
           1       1:   15    1:    8    1:    8
           2       1:   15    1:    8    9:   15
           3       1:   15    9:   15    1:    8
           4       1:   15    9:   15    9:   15
Setting up quadratic distribution...
ExtMesh (bp) on 0 =    79 x    71 x    72 =      403848
PhiOnMesh: Number of (b)points on node 0 =                  840
PhiOnMesh: nlist on node 0 =                27810

siesta: Eharris(eV) =   -2963.021042


siesta: Eharris(eV) =   -2963.021042

:!: SCF did not converge in maximum number of steps.

Using DM_out to compute the final energy and forces

siesta: Atomic forces (eV/Ang):
     1    0.000000   -0.000000    0.000001
     2    0.000001   -0.000001    0.000000
     3   -0.000000    0.000004   -0.000001
     4    0.000001   -0.000004    0.000001
     5    0.989693   -2.213579    0.000001
     6    0.000000    1.328033   -2.028727
     7   -0.989694    0.885541    2.028728
     8   -0.989692    2.213579   -0.000002
     9    0.000000   -1.328033    2.028727
    10    0.989694   -0.885540   -2.028727
----------------------------------------
   Tot    0.000002    0.000001    0.000000
----------------------------------------
   Max    2.213579
   Res    1.084381    sqrt( Sum f_i^2 / 3N )
----------------------------------------
   Max    2.213579    constrained

Stress-tensor-Voigt (kbar):     -131.69     -308.15     -333.34       98.61       28.86       64.55
(Free)E + p*V (eV/cell)    -2933.2939
Target enthalpy (eV/cell)    -2905.8723

siesta: Stress tensor (static) (eV/Ang**3):
        -0.082193    0.061545    0.040288
         0.061545   -0.192329    0.018013
         0.040288    0.018013   -0.208055

siesta: Pressure (static):        257.72756833  kBar

siesta: Stress tensor (total) (eV/Ang**3):
        -0.082193    0.061545    0.040288
         0.061545   -0.192329    0.018013
         0.040288    0.018013   -0.208055

siesta: Pressure (total):        257.72756833  kBar

                     ====================================
                        Begin Broyden opt. move =      6
                     ====================================

outcoor: Atomic coordinates (fractional):                   
   -0.00000000   -0.00000000    0.00000000   1       1  Mg
    0.50000000    0.50000000    0.50000000   1       2  Mg
    0.24999998    0.24999996    0.24999998   2       3  C
   -0.24999998   -0.24999996   -0.24999998   2       4  C
    0.56312846   -0.06312840    0.25000006   3       5  O
    0.25000003    0.56312842   -0.06312843   3       6  O
   -0.06312843    0.25000000    0.56312842   3       7  O
   -0.56312846    0.06312840   -0.25000005   3       8  O
   -0.25000003   -0.56312842    0.06312843   3       9  O
    0.06312846   -0.24999998   -0.56312840   3      10  O
 Kpoints in:          280 . Kpoints trimmed:          280

siesta: k-grid: Number of k-points =   280
siesta: k-grid: Cutoff (effective) =    16.363 Ang
siesta: k-grid: Supercell and displacements
siesta: k-grid:    8  -8   0      0.500
siesta: k-grid:    8   0  -8      0.500
siesta: k-grid:    7   0   0      0.000
Naive supercell factors:     5    5    5

superc: Internal auxiliary supercell:     5 x     5 x     5  =     125
superc: Number of atoms, orbitals, and projectors:   1250   4250  10000

outcell: Unit cell vectors (Ang):
        4.671489   -0.156160   -0.102224
        2.998600    3.585469   -0.102224
        2.998600    1.340679    3.326954

outcell: Cell vector modules (Ang)   :    4.675216    4.675216    4.675216
outcell: Cell angles (23,13,12) (deg):     51.9948     51.9948     51.9948
outcell: Cell volume (Ang**3)        :     58.6588
New_DM. Step:     7
Initializing Density Matrix...
New grid distribution:   1
           1       1:   15    1:    8    1:    8
           2       1:   15    1:    8    9:   15
           3       1:   15    9:   15    1:    8
           4       1:   15    9:   15    9:   15

InitMesh: MESH =    30 x    30 x    30 =       27000
InitMesh: (bp) =    15 x    15 x    15 =        3375
InitMesh: Mesh cutoff (required, used) =   100.000   152.993 Ry
ExtMesh (bp) on 0 =    79 x    72 x    72 =      409536
New grid distribution:   2
           1       1:   15    1:    7    1:    8
           2       1:   15    1:    8    9:   15
           3       1:   15    8:   15    1:    8
           4       1:   15    9:   15    9:   15
New grid distribution:   3
           1       1:   15    1:    8    1:    8
           2       1:   15    1:    8    9:   15
           3       1:   15    9:   15    1:    8
           4       1:   15    9:   15    9:   15
Setting up quadratic distribution...
ExtMesh (bp) on 0 =    79 x    71 x    72 =      403848
PhiOnMesh: Number of (b)points on node 0 =                  840
PhiOnMesh: nlist on node 0 =                28084

siesta: Eharris(eV) =   -2962.718803


siesta: Eharris(eV) =   -2962.718803

:!: SCF did not converge in maximum number of steps.

Using DM_out to compute the final energy and forces

siesta: Atomic forces (eV/Ang):
     1    0.000001   -0.000001    0.000003
     2    0.000002   -0.000002    0.000000
     3    0.000001    0.000005   -0.000000
     4    0.000001   -0.000006    0.000000
     5    0.842602   -1.884599    0.000005
     6   -0.000001    1.130659   -1.727215
     7   -0.842604    0.753932    1.727217
     8   -0.842600    1.884599   -0.000005
     9    0.000001   -1.130659    1.727214
    10    0.842601   -0.753927   -1.727218
----------------------------------------
   Tot    0.000004    0.000002    0.000001
----------------------------------------
   Max    1.884599
   Res    0.923220    sqrt( Sum f_i^2 / 3N )
----------------------------------------
   Max    1.884599    constrained

Stress-tensor-Voigt (kbar):     -176.58     -328.70     -350.42       85.01       24.88       55.65
(Free)E + p*V (eV/cell)    -2931.8744
Target enthalpy (eV/cell)    -2905.7057

siesta: Stress tensor (static) (eV/Ang**3):
        -0.110211    0.053057    0.034732
         0.053057   -0.205157    0.015529
         0.034732    0.015528   -0.218714

siesta: Pressure (static):        285.23403867  kBar

siesta: Stress tensor (total) (eV/Ang**3):
        -0.110211    0.053057    0.034732
         0.053057   -0.205157    0.015529
         0.034732    0.015528   -0.218714

siesta: Pressure (total):        285.23403867  kBar

                     ====================================
                        Begin Broyden opt. move =      7
                     ====================================

outcoor: Atomic coordinates (fractional):                   
    0.00000004    0.00000001    0.00000011   1       1  Mg
    0.50000009    0.49999998    0.50000003   1       2  Mg
    0.24999988    0.24999977    0.24999987   2       3  C
   -0.24999983   -0.24999973   -0.24999984   2       4  C
    0.56981640   -0.06981622    0.25000051   3       5  O
    0.25000025    0.56981610   -0.06981623   3       6  O
   -0.06981630    0.25000000    0.56981619   3       7  O
   -0.56981637    0.06981624   -0.25000037   3       8  O
   -0.25000025   -0.56981612    0.06981623   3       9  O
    0.06981640   -0.24999973   -0.56981615   3      10  O
 Kpoints in:          280 . Kpoints trimmed:          280

siesta: k-grid: Number of k-points =   280
siesta: k-grid: Cutoff (effective) =    15.013 Ang
siesta: k-grid: Supercell and displacements
siesta: k-grid:    0   8  -8      0.500
siesta: k-grid:   -8   8   0      0.500
siesta: k-grid:    0   7   0      0.000
Naive supercell factors:     5    5    5

superc: Internal auxiliary supercell:     5 x     5 x     5  =     125
superc: Number of atoms, orbitals, and projectors:   1250   4250  10000

outcell: Unit cell vectors (Ang):
        4.275917   -0.285432   -0.186848
        2.638492    3.376875   -0.186847
        2.638493    1.179674    3.169632

outcell: Cell vector modules (Ang)   :    4.289504    4.289503    4.289503
outcell: Cell angles (23,13,12) (deg):     55.7594     55.7594     55.7594
outcell: Cell volume (Ang**3)        :     50.3206
New_DM. Step:     8
Initializing Density Matrix...
New grid distribution:   1
           1       1:   12    1:    6    1:    6
           2       1:   12    1:    6    7:   12
           3       1:   12    7:   12    1:    6
           4       1:   12    7:   12    7:   12

InitMesh: MESH =    24 x    24 x    24 =       13824
InitMesh: (bp) =    12 x    12 x    12 =        1728
InitMesh: Mesh cutoff (required, used) =   100.000   122.125 Ry
ExtMesh (bp) on 0 =    64 x    58 x    58 =      215296
New grid distribution:   2
           1       1:   12    1:    6    1:    6
           2       1:   12    1:    6    7:   12
           3       1:   12    7:   12    1:    6
           4       1:   12    7:   12    7:   12
New grid distribution:   3
           1       1:   12    1:    6    1:    6
           2       1:   12    1:    6    7:   12
           3       1:   12    7:   12    1:    6
           4       1:   12    7:   12    7:   12
Setting up quadratic distribution...
ExtMesh (bp) on 0 =    64 x    58 x    58 =      215296
PhiOnMesh: Number of (b)points on node 0 =                  432
PhiOnMesh: nlist on node 0 =                17140

siesta: Eharris(eV) =   -2953.850019


siesta: Eharris(eV) =   -2953.850019

:!: SCF did not converge in maximum number of steps.

Using DM_out to compute the final energy and forces

siesta: Atomic forces (eV/Ang):
     1   -0.000020   -0.000018   -0.000014
     2   -0.000011   -0.000003   -0.000008
     3    0.000008   -0.000003    0.000017
     4   -0.000003    0.000003   -0.000015
     5   -0.545711    1.220468   -0.000010
     6   -0.000005   -0.732217    1.118590
     7    0.545714   -0.488250   -1.118553
     8    0.545728   -1.220469    0.000005
     9    0.000012    0.732249   -1.118578
    10   -0.545694    0.488254    1.118570
----------------------------------------
   Tot    0.000019    0.000014    0.000004
----------------------------------------
   Max    1.220469
   Res    0.597891    sqrt( Sum f_i^2 / 3N )
----------------------------------------
   Max    1.220469    constrained

Stress-tensor-Voigt (kbar):    -1248.75    -1135.39    -1119.21      -63.34      -18.54      -41.47
(Free)E + p*V (eV/cell)    -2893.8622
Target enthalpy (eV/cell)    -2899.1319

siesta: Stress tensor (static) (eV/Ang**3):
        -0.779403   -0.039536   -0.025881
        -0.039536   -0.708650   -0.011572
        -0.025881   -0.011572   -0.698548

siesta: Pressure (static):       1167.78612208  kBar

siesta: Stress tensor (total) (eV/Ang**3):
        -0.779403   -0.039536   -0.025881
        -0.039536   -0.708650   -0.011572
        -0.025881   -0.011572   -0.698548

siesta: Pressure (total):       1167.78612208  kBar
Cycling the Broyden process...

                     ====================================
                        Begin Broyden opt. move =      8
                     ====================================

outcoor: Atomic coordinates (fractional):                   
   -0.00000002   -0.00000006    0.00000001   1       1  Mg
    0.50000004    0.49999997    0.49999999   1       2  Mg
    0.24999993    0.24999984    0.24999995   2       3  C
   -0.24999988   -0.24999981   -0.24999992   2       4  C
    0.56732894   -0.06732896    0.25000028   3       5  O
    0.25000016    0.56732882   -0.06732885   3       6  O
   -0.06732886    0.25000006    0.56732894   3       7  O
   -0.56732888    0.06732900   -0.25000017   3       8  O
   -0.25000015   -0.56732876    0.06732890   3       9  O
    0.06732898   -0.24999984   -0.56732885   3      10  O
 Kpoints in:          280 . Kpoints trimmed:          280

siesta: k-grid: Number of k-points =   280
siesta: k-grid: Cutoff (effective) =    15.393 Ang
siesta: k-grid: Supercell and displacements
siesta: k-grid:    0   8  -8      0.500
siesta: k-grid:   -8   8   0      0.500
siesta: k-grid:    0   7   0      0.000
Naive supercell factors:     5    5    5

superc: Internal auxiliary supercell:     5 x     5 x     5  =     125
superc: Number of atoms, orbitals, and projectors:   1250   4250  10000

outcell: Unit cell vectors (Ang):
        4.388953   -0.237693   -0.155597
        2.749442    3.429280   -0.155597
        2.749442    1.229280    3.205159

outcell: Cell vector modules (Ang)   :    4.398138    4.398136    4.398137
outcell: Cell angles (23,13,12) (deg):     54.3420     54.3420     54.3420
outcell: Cell volume (Ang**3)        :     52.2177
New_DM. Step:     9
Initializing Density Matrix...
New grid distribution:   1
           1       1:   12    1:    6    1:    6
           2       1:   12    1:    6    7:   12
           3       1:   12    7:   12    1:    6
           4       1:   12    7:   12    7:   12

InitMesh: MESH =    24 x    24 x    24 =       13824
InitMesh: (bp) =    12 x    12 x    12 =        1728
InitMesh: Mesh cutoff (required, used) =   100.000   113.991 Ry
ExtMesh (bp) on 0 =    64 x    58 x    58 =      215296
New grid distribution:   2
           1       1:   12    1:    6    1:    6
           2       1:   12    1:    6    7:   12
           3       1:   12    7:   12    1:    6
           4       1:   12    7:   12    7:   12
New grid distribution:   3
           1       1:   12    1:    6    1:    6
           2       1:   12    1:    6    7:   12
           3       1:   12    7:   12    1:    6
           4       1:   12    7:   12    7:   12
Setting up quadratic distribution...
ExtMesh (bp) on 0 =    64 x    58 x    58 =      215296
PhiOnMesh: Number of (b)points on node 0 =                  432
PhiOnMesh: nlist on node 0 =                16605

siesta: Eharris(eV) =   -2956.546627


siesta: Eharris(eV) =   -2956.546627

:!: SCF did not converge in maximum number of steps.

Using DM_out to compute the final energy and forces

siesta: Atomic forces (eV/Ang):
     1    0.000034    0.000015    0.000012
     2    0.000021    0.000006    0.000008
     3    0.000005   -0.000006    0.000015
     4   -0.000004    0.000005   -0.000016
     5    0.137739   -0.308076   -0.000004
     6   -0.000004    0.184819   -0.282358
     7   -0.137755    0.123263    0.282333
     8   -0.137760    0.308072    0.000026
     9    0.000002   -0.184852    0.282343
    10    0.137729   -0.123238   -0.282359
----------------------------------------
   Tot    0.000007    0.000007    0.000000
----------------------------------------
   Max    0.308076
   Res    0.150920    sqrt( Sum f_i^2 / 3N )
----------------------------------------
   Max    0.308076    constrained

Stress-tensor-Voigt (kbar):     -912.61     -937.53     -941.09       13.92        4.08        9.11
(Free)E + p*V (eV/cell)    -2903.9818
Target enthalpy (eV/cell)    -2901.7137

siesta: Stress tensor (static) (eV/Ang**3):
        -0.569601    0.008690    0.005689
         0.008690   -0.585154    0.002544
         0.005689    0.002544   -0.587375

siesta: Pressure (static):        930.40976491  kBar

siesta: Stress tensor (total) (eV/Ang**3):
        -0.569601    0.008690    0.005689
         0.008690   -0.585154    0.002544
         0.005689    0.002544   -0.587375

siesta: Pressure (total):        930.40976491  kBar
Cycling the Broyden process...

                     ====================================
                        Begin Broyden opt. move =      9
                     ====================================

outcoor: Atomic coordinates (fractional):                   
    0.00000007    0.00000003    0.00000010   1       1  Mg
    0.50000010    0.50000001    0.50000005   1       2  Mg
    0.24999994    0.24999982    0.24999997   2       3  C
   -0.24999988   -0.24999978   -0.24999994   2       4  C
    0.56811530   -0.06811532    0.25000031   3       5  O
    0.25000017    0.56811514   -0.06811523   3       6  O
   -0.06811525    0.25000008    0.56811525   3       7  O
   -0.56811529    0.06811531   -0.25000018   3       8  O
   -0.25000016   -0.56811514    0.06811523   3       9  O
    0.06811532   -0.24999982   -0.56811523   3      10  O
 Kpoints in:          280 . Kpoints trimmed:          280

siesta: k-grid: Number of k-points =   280
siesta: k-grid: Cutoff (effective) =    15.269 Ang
siesta: k-grid: Supercell and displacements
siesta: k-grid:    0   8  -8      0.500
siesta: k-grid:   -8   8   0      0.500
siesta: k-grid:    0   7   0      0.000
Naive supercell factors:     5    5    5

superc: Internal auxiliary supercell:     5 x     5 x     5  =     125
superc: Number of atoms, orbitals, and projectors:   1250   4250  10000

outcell: Unit cell vectors (Ang):
        4.352153   -0.250869   -0.164222
        2.715085    3.410641   -0.164222
        2.715085    1.213919    3.191527

outcell: Cell vector modules (Ang)   :    4.362469    4.362468    4.362469
outcell: Cell angles (23,13,12) (deg):     54.7349     54.7349     54.7349
outcell: Cell volume (Ang**3)        :     51.5066
New_DM. Step:    10
Initializing Density Matrix...
New grid distribution:   1
           1       1:   12    1:    6    1:    6
           2       1:   12    1:    6    7:   12
           3       1:   12    7:   12    1:    6
           4       1:   12    7:   12    7:   12

InitMesh: MESH =    24 x    24 x    24 =       13824
InitMesh: (bp) =    12 x    12 x    12 =        1728
InitMesh: Mesh cutoff (required, used) =   100.000   116.464 Ry
ExtMesh (bp) on 0 =    64 x    58 x    58 =      215296
New grid distribution:   2
           1       1:   12    1:    6    1:    6
           2       1:   12    1:    6    7:   12
           3       1:   12    7:   12    1:    6
           4       1:   12    7:   12    7:   12
New grid distribution:   3
           1       1:   12    1:    6    1:    6
           2       1:   12    1:    6    7:   12
           3       1:   12    7:   12    1:    6
           4       1:   12    7:   12    7:   12
Setting up quadratic distribution...
ExtMesh (bp) on 0 =    64 x    58 x    58 =      215296
PhiOnMesh: Number of (b)points on node 0 =                  432
PhiOnMesh: nlist on node 0 =                16850

siesta: Eharris(eV) =   -2955.608446


siesta: Eharris(eV) =   -2955.608446

:!: SCF did not converge in maximum number of steps.

Using DM_out to compute the final energy and forces

siesta: Atomic forces (eV/Ang):
     1   -0.000035   -0.000017   -0.000012
     2   -0.000026   -0.000011   -0.000008
     3    0.000007   -0.000000    0.000007
     4   -0.000001    0.000002   -0.000006
     5   -0.062596    0.140040   -0.000022
     6   -0.000000   -0.084000    0.128362
     7    0.062626   -0.056023   -0.128335
     8    0.062627   -0.140032    0.000002
     9    0.000007    0.084035   -0.128344
    10   -0.062599    0.056015    0.128359
----------------------------------------
   Tot    0.000010    0.000010    0.000003
----------------------------------------
   Max    0.140040
   Res    0.068603    sqrt( Sum f_i^2 / 3N )
----------------------------------------
   Max    0.140040    constrained

Stress-tensor-Voigt (kbar):    -1000.80    -1010.02    -1011.34        5.15        1.51        3.37
(Free)E + p*V (eV/cell)    -2900.6563
Target enthalpy (eV/cell)    -2900.8938

siesta: Stress tensor (static) (eV/Ang**3):
        -0.624644    0.003217    0.002106
         0.003217   -0.630401    0.000942
         0.002106    0.000942   -0.631223

siesta: Pressure (static):       1007.38917369  kBar

siesta: Stress tensor (total) (eV/Ang**3):
        -0.624644    0.003217    0.002106
         0.003217   -0.630401    0.000942
         0.002106    0.000942   -0.631223

siesta: Pressure (total):       1007.38917369  kBar
Cycling the Broyden process...

                     ====================================
                        Begin Broyden opt. move =     10
                     ====================================

outcoor: Atomic coordinates (fractional):                   
    0.00000005   -0.00000000    0.00000008   1       1  Mg
    0.50000009    0.49999999    0.50000003   1       2  Mg
    0.24999994    0.24999982    0.24999998   2       3  C
   -0.24999988   -0.24999978   -0.24999994   2       4  C
    0.56700659   -0.06700661    0.25000031   3       5  O
    0.25000017    0.56700643   -0.06700651   3       6  O
   -0.06700653    0.25000008    0.56700656   3       7  O
   -0.56700657    0.06700662   -0.25000018   3       8  O
   -0.25000016   -0.56700641    0.06700653   3       9  O
    0.06700661   -0.24999981   -0.56700651   3      10  O
 Kpoints in:          280 . Kpoints trimmed:          280

siesta: k-grid: Number of k-points =   280
siesta: k-grid: Cutoff (effective) =    15.343 Ang
siesta: k-grid: Supercell and displacements
siesta: k-grid:    0   8  -8      0.500
siesta: k-grid:   -8   8   0      0.500
siesta: k-grid:    0   7   0      0.000
Naive supercell factors:     5    5    5

superc: Internal auxiliary supercell:     5 x     5 x     5  =     125
superc: Number of atoms, orbitals, and projectors:   1250   4250  10000

outcell: Unit cell vectors (Ang):
        4.373687   -0.246882   -0.161612
        2.732415    3.424031   -0.161612
        2.732415    1.221667    3.202754

outcell: Cell vector modules (Ang)   :    4.383629    4.383628    4.383628
outcell: Cell angles (23,13,12) (deg):     54.6002     54.6003     54.6002
outcell: Cell volume (Ang**3)        :     52.0689
New_DM. Step:    11
Initializing Density Matrix...
New grid distribution:   1
           1       1:   12    1:    6    1:    6
           2       1:   12    1:    6    7:   12
           3       1:   12    7:   12    1:    6
           4       1:   12    7:   12    7:   12

InitMesh: MESH =    24 x    24 x    24 =       13824
InitMesh: (bp) =    12 x    12 x    12 =        1728
InitMesh: Mesh cutoff (required, used) =   100.000   115.137 Ry
ExtMesh (bp) on 0 =    64 x    58 x    58 =      215296
New grid distribution:   2
           1       1:   12    1:    6    1:    6
           2       1:   12    1:    6    7:   12
           3       1:   12    7:   12    1:    6
           4       1:   12    7:   12    7:   12
New grid distribution:   3
           1       1:   12    1:    6    1:    6
           2       1:   12    1:    6    7:   12
           3       1:   12    7:   12    1:    6
           4       1:   12    7:   12    7:   12
Setting up quadratic distribution...
ExtMesh (bp) on 0 =    64 x    58 x    58 =      215296
PhiOnMesh: Number of (b)points on node 0 =                  432
PhiOnMesh: nlist on node 0 =                16639

siesta: Eharris(eV) =   -2956.373320


siesta: Eharris(eV) =   -2956.373320

:!: SCF did not converge in maximum number of steps.

Using DM_out to compute the final energy and forces

siesta: Atomic forces (eV/Ang):
     1   -0.000013   -0.000006   -0.000006
     2   -0.000010   -0.000003   -0.000003
     3    0.000006   -0.000001    0.000008
     4   -0.000002    0.000002   -0.000006
     5    0.123576   -0.276374   -0.000016
     6   -0.000001    0.165817   -0.253285
     7   -0.123563    0.110569    0.253297
     8   -0.123563    0.276377    0.000009
     9    0.000005   -0.165805    0.253291
    10    0.123573   -0.110566   -0.253289
----------------------------------------
   Tot    0.000009    0.000010    0.000001
----------------------------------------
   Max    0.276377
   Res    0.135389    sqrt( Sum f_i^2 / 3N )
----------------------------------------
   Max    0.276377    constrained

Stress-tensor-Voigt (kbar):     -917.61     -938.27     -941.23       11.55        3.38        7.56
(Free)E + p*V (eV/cell)    -2903.7961
Target enthalpy (eV/cell)    -2901.5982

siesta: Stress tensor (static) (eV/Ang**3):
        -0.572720    0.007208    0.004718
         0.007208   -0.585619    0.002110
         0.004718    0.002110   -0.587461

siesta: Pressure (static):        932.36986290  kBar

siesta: Stress tensor (total) (eV/Ang**3):
        -0.572720    0.007208    0.004718
         0.007208   -0.585619    0.002110
         0.004718    0.002110   -0.587461

siesta: Pressure (total):        932.36986290  kBar
Cycling the Broyden process...

                     ====================================
                        Begin Broyden opt. move =     11
                     ====================================

outcoor: Atomic coordinates (fractional):                   
    0.00000001   -0.00000004    0.00000004   1       1  Mg
    0.50000006    0.49999997    0.50000000   1       2  Mg
    0.24999995    0.24999982    0.25000000   2       3  C
   -0.24999987   -0.24999976   -0.24999995   2       4  C
    0.56776646   -0.06776643    0.25000031   3       5  O
    0.25000018    0.56776628   -0.06776632   3       6  O
   -0.06776635    0.25000010    0.56776641   3       7  O
   -0.56776639    0.06776648   -0.25000016   3       8  O
   -0.25000016   -0.56776622    0.06776637   3       9  O
    0.06776647   -0.24999980   -0.56776632   3      10  O
 Kpoints in:          280 . Kpoints trimmed:          280

siesta: k-grid: Number of k-points =   280
siesta: k-grid: Cutoff (effective) =    15.243 Ang
siesta: k-grid: Supercell and displacements
siesta: k-grid:    0   8  -8      0.500
siesta: k-grid:   -8   8   0      0.500
siesta: k-grid:    0   7   0      0.000
Naive supercell factors:     5    5    5

superc: Internal auxiliary supercell:     5 x     5 x     5  =     125
superc: Number of atoms, orbitals, and projectors:   1250   4250  10000

outcell: Unit cell vectors (Ang):
        4.344436   -0.255552   -0.167288
        2.706449    3.408013   -0.167288
        2.706449    1.210058    3.190345

outcell: Cell vector modules (Ang)   :    4.355159    4.355158    4.355159
outcell: Cell angles (23,13,12) (deg):     54.8679     54.8679     54.8679
outcell: Cell volume (Ang**3)        :     51.4327
New_DM. Step:    12
Initializing Density Matrix...
New grid distribution:   1
           1       1:   12    1:    6    1:    6
           2       1:   12    1:    6    7:   12
           3       1:   12    7:   12    1:    6
           4       1:   12    7:   12    7:   12

InitMesh: MESH =    24 x    24 x    24 =       13824
InitMesh: (bp) =    12 x    12 x    12 =        1728
InitMesh: Mesh cutoff (required, used) =   100.000   117.061 Ry
ExtMesh (bp) on 0 =    64 x    58 x    58 =      215296
New grid distribution:   2
           1       1:   12    1:    6    1:    6
           2       1:   12    1:    6    7:   12
           3       1:   12    7:   12    1:    6
           4       1:   12    7:   12    7:   12
New grid distribution:   3
           1       1:   12    1:    6    1:    6
           2       1:   12    1:    6    7:   12
           3       1:   12    7:   12    1:    6
           4       1:   12    7:   12    7:   12
Setting up quadratic distribution...
ExtMesh (bp) on 0 =    64 x    58 x    58 =      215296
PhiOnMesh: Number of (b)points on node 0 =                  432
PhiOnMesh: nlist on node 0 =                16851

siesta: Eharris(eV) =   -2955.518744


siesta: Eharris(eV) =   -2955.518744

:!: SCF did not converge in maximum number of steps.

Using DM_out to compute the final energy and forces

siesta: Atomic forces (eV/Ang):
     1    0.000022    0.000008    0.000005
     2    0.000015    0.000008    0.000005
     3    0.000004   -0.000000    0.000007
     4   -0.000003    0.000001   -0.000004
     5   -0.045643    0.102075   -0.000002
     6   -0.000002   -0.061252    0.093558
     7    0.045635   -0.040822   -0.093564
     8    0.045631   -0.102080    0.000024
     9    0.000005    0.061234   -0.093569
    10   -0.045644    0.040845    0.093547
----------------------------------------
   Tot    0.000020    0.000016    0.000007
----------------------------------------
   Max    0.102080
   Res    0.050007    sqrt( Sum f_i^2 / 3N )
----------------------------------------
   Max    0.102080    constrained

Stress-tensor-Voigt (kbar):    -1005.33    -1016.51    -1018.11        6.25        1.83        4.09
(Free)E + p*V (eV/cell)    -2900.4330
Target enthalpy (eV/cell)    -2900.8605

siesta: Stress tensor (static) (eV/Ang**3):
        -0.627470    0.003901    0.002554
         0.003901   -0.634451    0.001142
         0.002554    0.001142   -0.635448

siesta: Pressure (static):       1013.31728623  kBar

siesta: Stress tensor (total) (eV/Ang**3):
        -0.627470    0.003901    0.002554
         0.003901   -0.634451    0.001142
         0.002554    0.001142   -0.635448

siesta: Pressure (total):       1013.31728623  kBar
Cycling the Broyden process...

                     ====================================
                        Begin Broyden opt. move =     12
                     ====================================

outcoor: Atomic coordinates (fractional):                   
    0.00000010    0.00000005    0.00000013   1       1  Mg
    0.50000013    0.50000003    0.50000007   1       2  Mg
    0.24999995    0.24999981    0.25000000   2       3  C
   -0.24999988   -0.24999976   -0.24999995   2       4  C
    0.56738654   -0.06738656    0.25000032   3       5  O
    0.25000018    0.56738634   -0.06738644   3       6  O
   -0.06738649    0.25000012    0.56738648   3       7  O
   -0.56738654    0.06738655   -0.25000015   3       8  O
   -0.25000015   -0.56738635    0.06738644   3       9  O
    0.06738655   -0.24999979   -0.56738646   3      10  O
 Kpoints in:          280 . Kpoints trimmed:          280

siesta: k-grid: Number of k-points =   280
siesta: k-grid: Cutoff (effective) =    15.258 Ang
siesta: k-grid: Supercell and displacements
siesta: k-grid:    0   8  -8      0.500
siesta: k-grid:   -8   8   0      0.500
siesta: k-grid:    0   7   0      0.000
Naive supercell factors:     5    5    5

superc: Internal auxiliary supercell:     5 x     5 x     5  =     125
superc: Number of atoms, orbitals, and projectors:   1250   4250  10000

outcell: Unit cell vectors (Ang):
        4.348846   -0.255555   -0.167290
        2.709388    3.411302   -0.167289
        2.709388    1.211372    3.193360

outcell: Cell vector modules (Ang)   :    4.359559    4.359558    4.359558
outcell: Cell angles (23,13,12) (deg):     54.8612     54.8612     54.8612
outcell: Cell volume (Ang**3)        :     51.5795
New_DM. Step:    13
Initializing Density Matrix...
New grid distribution:   1
           1       1:   12    1:    6    1:    6
           2       1:   12    1:    6    7:   12
           3       1:   12    7:   12    1:    6
           4       1:   12    7:   12    7:   12

InitMesh: MESH =    24 x    24 x    24 =       13824
InitMesh: (bp) =    12 x    12 x    12 =        1728
InitMesh: Mesh cutoff (required, used) =   100.000   116.814 Ry
ExtMesh (bp) on 0 =    64 x    58 x    58 =      215296
New grid distribution:   2
           1       1:   12    1:    6    1:    6
           2       1:   12    1:    6    7:   12
           3       1:   12    7:   12    1:    6
           4       1:   12    7:   12    7:   12
New grid distribution:   3
           1       1:   12    1:    6    1:    6
           2       1:   12    1:    6    7:   12
           3       1:   12    7:   12    1:    6
           4       1:   12    7:   12    7:   12
Setting up quadratic distribution...
ExtMesh (bp) on 0 =    64 x    58 x    58 =      215296
PhiOnMesh: Number of (b)points on node 0 =                  432
PhiOnMesh: nlist on node 0 =                16812

siesta: Eharris(eV) =   -2955.726975


siesta: Eharris(eV) =   -2955.726975

:!: SCF did not converge in maximum number of steps.

Using DM_out to compute the final energy and forces

siesta: Atomic forces (eV/Ang):
     1   -0.000051   -0.000023   -0.000016
     2   -0.000041   -0.000018   -0.000012
     3    0.000008    0.000001    0.000006
     4    0.000001    0.000002   -0.000005
     5    0.026839   -0.059970   -0.000027
     6   -0.000000    0.036007   -0.054943
     7   -0.026794    0.023989    0.054982
     8   -0.026793    0.059985   -0.000005
     9    0.000008   -0.035956    0.054971
    10    0.026836   -0.024003   -0.054948
----------------------------------------
   Tot    0.000013    0.000015    0.000002
----------------------------------------
   Max    0.059985
   Res    0.029380    sqrt( Sum f_i^2 / 3N )
----------------------------------------
   Max    0.059985    constrained

Stress-tensor-Voigt (kbar):     -981.14     -993.37     -995.11        6.83        2.00        4.47
(Free)E + p*V (eV/cell)    -2901.3871
Target enthalpy (eV/cell)    -2901.0611

siesta: Stress tensor (static) (eV/Ang**3):
        -0.612372    0.004265    0.002792
         0.004265   -0.620004    0.001249
         0.002792    0.001249   -0.621095

siesta: Pressure (static):        989.87321102  kBar

siesta: Stress tensor (total) (eV/Ang**3):
        -0.612372    0.004265    0.002792
         0.004265   -0.620004    0.001249
         0.002792    0.001249   -0.621095

siesta: Pressure (total):        989.87321102  kBar
Cycling the Broyden process...

                     ====================================
                        Begin Broyden opt. move =     13
                     ====================================

outcoor: Atomic coordinates (fractional):                   
   -0.00000007   -0.00000012   -0.00000004   1       1  Mg
    0.50000000    0.49999990    0.49999993   1       2  Mg
    0.24999997    0.24999983    0.25000003   2       3  C
   -0.24999987   -0.24999974   -0.24999995   2       4  C
    0.56744044   -0.06744032    0.25000032   3       5  O
    0.25000019    0.56744022   -0.06744018   3       6  O
   -0.06744024    0.25000014    0.56744037   3       7  O
   -0.56744028    0.06744044   -0.25000013   3       8  O
   -0.25000014   -0.56744008    0.06744031   3       9  O
    0.06744044   -0.24999976   -0.56744019   3      10  O
 Kpoints in:          280 . Kpoints trimmed:          280

siesta: k-grid: Number of k-points =   280
siesta: k-grid: Cutoff (effective) =    15.231 Ang
siesta: k-grid: Supercell and displacements
siesta: k-grid:    0   8  -8      0.500
siesta: k-grid:   -8   8   0      0.500
siesta: k-grid:    0   7   0      0.000
Naive supercell factors:     5    5    5

superc: Internal auxiliary supercell:     5 x     5 x     5  =     125
superc: Number of atoms, orbitals, and projectors:   1250   4250  10000

outcell: Unit cell vectors (Ang):
        4.340524   -0.259641   -0.169965
        2.700793    3.407824   -0.169965
        2.700793    1.207529    3.191243

outcell: Cell vector modules (Ang)   :    4.351603    4.351601    4.351602
outcell: Cell angles (23,13,12) (deg):     54.9799     54.9799     54.9799
outcell: Cell volume (Ang**3)        :     51.4619
New_DM. Step:    14
Initializing Density Matrix...
New grid distribution:   1
           1       1:   12    1:    6    1:    6
           2       1:   12    1:    6    7:   12
           3       1:   12    7:   12    1:    6
           4       1:   12    7:   12    7:   12

InitMesh: MESH =    24 x    24 x    24 =       13824
InitMesh: (bp) =    12 x    12 x    12 =        1728
InitMesh: Mesh cutoff (required, used) =   100.000   117.427 Ry
ExtMesh (bp) on 0 =    64 x    58 x    58 =      215296
New grid distribution:   2
           1       1:   12    1:    6    1:    6
           2       1:   12    1:    6    7:   12
           3       1:   12    7:   12    1:    6
           4       1:   12    7:   12    7:   12
New grid distribution:   3
           1       1:   12    1:    6    1:    6
           2       1:   12    1:    6    7:   12
           3       1:   12    7:   12    1:    6
           4       1:   12    7:   12    7:   12
Setting up quadratic distribution...
ExtMesh (bp) on 0 =    64 x    58 x    58 =      215296
PhiOnMesh: Number of (b)points on node 0 =                  432
PhiOnMesh: nlist on node 0 =                16854

siesta: Eharris(eV) =   -2955.573101


siesta: Eharris(eV) =   -2955.573101

:!: SCF did not converge in maximum number of steps.

Using DM_out to compute the final energy and forces

siesta: Atomic forces (eV/Ang):
     1    0.000094    0.000040    0.000026
     2    0.000080    0.000035    0.000022
     3    0.000001   -0.000001    0.000004
     4   -0.000007   -0.000001   -0.000006
     5   -0.013081    0.029171    0.000030
     6   -0.000003   -0.017557    0.026734
     7    0.013019   -0.011641   -0.026782
     8    0.013012   -0.029197    0.000052
     9    0.000003    0.017467   -0.026785
    10   -0.013083    0.011707    0.026717
----------------------------------------
   Tot    0.000036    0.000023    0.000012
----------------------------------------
   Max    0.029197
   Res    0.014299    sqrt( Sum f_i^2 / 3N )
----------------------------------------
   Max    0.029197    constrained

Stress-tensor-Voigt (kbar):    -1017.62    -1006.94    -1005.42       -5.97       -1.75       -3.91
(Free)E + p*V (eV/cell)    -2900.6026
Target enthalpy (eV/cell)    -2900.9237

siesta: Stress tensor (static) (eV/Ang**3):
        -0.635144   -0.003724   -0.002438
        -0.003724   -0.628479   -0.001090
        -0.002438   -0.001090   -0.627528

siesta: Pressure (static):       1009.99643827  kBar

siesta: Stress tensor (total) (eV/Ang**3):
        -0.635144   -0.003724   -0.002438
        -0.003724   -0.628479   -0.001090
        -0.002438   -0.001090   -0.627528

siesta: Pressure (total):       1009.99643827  kBar

outcoor: Relaxed atomic coordinates (fractional):           
   -0.00000007   -0.00000012   -0.00000004   1       1  Mg
    0.50000000    0.49999990    0.49999993   1       2  Mg
    0.24999997    0.24999983    0.25000003   2       3  C
   -0.24999987   -0.24999974   -0.24999995   2       4  C
    0.56744044   -0.06744032    0.25000032   3       5  O
    0.25000019    0.56744022   -0.06744018   3       6  O
   -0.06744024    0.25000014    0.56744037   3       7  O
   -0.56744028    0.06744044   -0.25000013   3       8  O
   -0.25000014   -0.56744008    0.06744031   3       9  O
    0.06744044   -0.24999976   -0.56744019   3      10  O

outcell: Unit cell vectors (Ang):
        4.340524   -0.259641   -0.169965
        2.700793    3.407824   -0.169965
        2.700793    1.207529    3.191243

outcell: Cell vector modules (Ang)   :    4.351603    4.351601    4.351602
outcell: Cell angles (23,13,12) (deg):     54.9799     54.9799     54.9799
outcell: Cell volume (Ang**3)        :     51.4619

siesta: Program's energy decomposition (eV):
siesta: Ebs     =      -812.751533
siesta: Eions   =      5228.674091
siesta: Ena     =      1067.402557
siesta: Ekin    =      2502.841124
siesta: Enl     =      -410.848471
siesta: DEna    =      -141.943930
siesta: DUscf   =        27.632250
siesta: DUext   =         0.000000
siesta: Exc     =      -749.452794
siesta: eta*DQ  =         0.000000
siesta: Emadel  =         0.000000
siesta: Emeta   =         0.000000
siesta: Emolmec =         0.000000
siesta: Ekinion =         0.000000
siesta: Eharris =     -2955.573101
siesta: Etot    =     -2933.043356
siesta: FreeEng =     -2933.043356

siesta: Final energy (eV):
siesta:  Band Struct. =    -812.751533
siesta:       Kinetic =    2502.841124
siesta:       Hartree =     683.969506
siesta:    Ext. field =       0.000000
siesta:   Exch.-corr. =    -749.452794
siesta:  Ion-electron =   -3544.795743
siesta:       Ion-ion =   -1825.605449
siesta:       Ekinion =       0.000000
siesta:         Total =   -2933.043356

siesta: Stress tensor (static) (eV/Ang**3):
siesta:    -0.635144   -0.003724   -0.002438
siesta:    -0.003724   -0.628479   -0.001090
siesta:    -0.002438   -0.001090   -0.627528

siesta: Constrained stress tensor (static) (eV/Ang**3):
siesta:    -0.635144   -0.003724   -0.002438
siesta:    -0.003724   -0.628479   -0.001090
siesta:    -0.002438   -0.001090   -0.627528

siesta: Cell volume =         51.461900 Ang**3

siesta: Pressure (static):
siesta:                Solid            Molecule  Units
siesta:           0.00686568          0.00688290  Ry/Bohr**3
siesta:           0.63038338          0.63196479  eV/Ang**3
siesta:        1009.99643827       1012.53015740  kBar
(Free)E+ p_basis*V_orbitals  =       -2931.849059
(Free)Eharris+ p_basis*V_orbitals  =       -2954.378804
>> End of run:  26-NOV-2015  14:34:29
