Siesta Version:                                        siesta-trunk-300
Architecture  : nano-intel-mpi
Compiler flags: /opt/intel/impi/3.1/bin64/mpiifort -w  -O3 -mp
PARALLEL version
NetCDF support

* Running on    4 nodes in parallel
>> Start of run:  29-SEP-2009  17:11:12

                           ***********************       
                           *  WELCOME TO SIESTA  *       
                           ***********************       

reinit: Reading from standard input
************************** Dump of input data file ****************************
#
# MgCO3 in primitive cell. SZ. Variable cell. Harris. Broyden Optim
#
SystemName	MgCo3 R-3c Harris -- SZ, 100 R -- variable cell at 100 Gpa
SystemLabel	var_cell
NumberOfSpecies		3
NumberOfAtoms	       10
%block ChemicalSpeciesLabel
      1      12     Mg
      2       6     C
      3       8     O
%endblock ChemicalSpeciesLabel
PAO.BasisSize  SZ
Diag.Divide-and-Conquer F
# Rhombohedral primitive cell
# (HEX 3-fold cell had A=4.635 and C=15.023, so alpha=48.179 degrees
#  and a=5.67783 Ang)
LatticeConstant     5.67783 Ang
%block LatticeParameters
1.0 1.0 1.0 48.179 48.179 48.179
%endblock LatticeParameters
AtomicCoordinatesFormat    Fractional
%block AtomicCoordinatesAndAtomicSpecies
  0.0         0.0         0.0      1
  0.5         0.5         0.5      1
  0.25        0.25        0.25     2
 -0.25       -0.25       -0.25     2
  0.5274     -0.0274      0.25     3
  0.25        0.5274     -0.0274   3
 -0.0274      0.25        0.5274   3
 -0.5274      0.0274     -0.25     3
 -0.25       -0.5274      0.0274   3
  0.0274     -0.25       -0.5274   3
%endblock AtomicCoordinatesAndAtomicSpecies
kgrid_cutoff 15.0 Ang
Solution.Method       diagon
MeshCutoff             100 Ry
DM.NumberBroyden       4
DM.UseSaveDM           T
DM.MixingWeight        0.1         # New DM amount for next SCF cycle
DM.Tolerance           1.d-3       # Tolerance in maximum difference
                                   # between input and output DM
MaxSCFIterations       20
WriteCoorStep      .true.
WriteForces        .true.
HarrisFunctional T
MD.TypeOfRun         Broyden
MD.Variable-Cell      T
MD.Target-pressure   100.0 GPa
MD.Num-CG-steps	     30
MD.Max-Stress-Tol    2.0 GPa
MD.Broyden.Initial.Inverse.Jacobian 1.0
MD.Broyden.History.Steps 6
************************** End of input data file *****************************

reinit: -----------------------------------------------------------------------
reinit: System Name: MgCo3 R-3c Harris -- SZ, 100 R -- variable cell at 100 Gpa
reinit: -----------------------------------------------------------------------
reinit: System Label: var_cell                                                    
reinit: -----------------------------------------------------------------------

initatom: Reading input for the pseudopotentials and atomic orbitals ----------
 Species number:            1  Label: Mg Atomic number:          12
 Species number:            2  Label: C Atomic number:           6
 Species number:            3  Label: O Atomic number:           8
Ground state valence configuration:   3s02
Reading pseudopotential information in formatted form from Mg.psf

Valence configuration for pseudopotential generation:
3s( 2.00) rc: 2.59
3p( 0.00) rc: 2.59
3d( 0.00) rc: 2.59
4f( 0.00) rc: 2.59
Ground state valence configuration:   2s02  2p02
Reading pseudopotential information in formatted form from C.psf

Valence configuration for pseudopotential generation:
2s( 2.00) rc: 1.49
2p( 2.00) rc: 1.52
3d( 0.00) rc: 1.58
Ground state valence configuration:   2s02  2p04
Reading pseudopotential information in formatted form from O.psf

Valence configuration for pseudopotential generation:
2s( 2.00) rc: 1.14
2p( 4.00) rc: 1.14
3d( 0.00) rc: 1.14
4f( 0.00) rc: 1.14
For Mg, standard SIESTA heuristics set lmxkb to 1
 (one more than the basis l, including polarization orbitals).
Use PS.lmax or PS.KBprojectors blocks to override.
For C, standard SIESTA heuristics set lmxkb to 2
 (one more than the basis l, including polarization orbitals).
Use PS.lmax or PS.KBprojectors blocks to override.
For O, standard SIESTA heuristics set lmxkb to 2
 (one more than the basis l, including polarization orbitals).
Use PS.lmax or PS.KBprojectors blocks to override.

<basis_specs>
===============================================================================
Mg                   Z=  12    Mass=  24.310        Charge= 0.17977+309
Lmxo=0 Lmxkb=1     BasisType=split      Semic=F
L=0  Nsemic=0  Cnfigmx=3
          n=1  nzeta=1  polorb=0
            splnorm:   0.15000    
               vcte:    0.0000    
               rinn:    0.0000    
                rcs:    0.0000    
            lambdas:    1.0000    
-------------------------------------------------------------------------------
L=0  Nkbl=1  erefs: 0.17977+309
L=1  Nkbl=1  erefs: 0.17977+309
===============================================================================
</basis_specs>

atom: Called for Mg                    (Z =  12)

read_vps: Pseudopotential generation method:
read_vps: ATM3      Troullier-Martins                       
Total valence charge:    2.00000

xc_check: Exchange-correlation functional:
xc_check: Ceperley-Alder
V l=0 = -2*Zval/r beyond r=  3.5878
V l=1 = -2*Zval/r beyond r=  3.5878
All V_l potentials equal beyond r=  2.5600
This should be close to max(r_c) in ps generation
All pots = -2*Zval/r beyond r=  3.5878
Using large-core scheme for Vlocal

atom: Estimated core radius    3.58779

atom: Including non-local core corrections could be a good idea
atom: Maximum radius for 4*pi*r*r*local-pseudopot. charge    3.91588
atom: Maximum radius for r*vlocal+2*Zval:    3.63292
GHOST: No ghost state for L =  0
GHOST: No ghost state for L =  1

KBgen: Kleinman-Bylander projectors: 
   l= 0   rc=  2.657845   el= -0.351328   Ekb=  2.184400   kbcos=  0.257081
   l= 1   rc=  2.657845   el= -0.101748   Ekb=  0.525536   kbcos=  0.270508

KBgen: Total number of  Kleinman-Bylander projectors:    4
atom: -------------------------------------------------------------------------

atom: SANKEY-TYPE ORBITALS:

SPLIT: Orbitals with angular momentum L= 0

SPLIT: Basis orbitals for state 3s

SPLIT: PAO cut-off radius determined from an
SPLIT: energy shift=  0.020000 Ry

   izeta = 1
                 lambda =    1.000000
                     rc =    6.619780
                 energy =   -0.332103
                kinetic =    0.289627
    potential(screened) =   -0.621729
       potential(ionic) =   -1.387191
atom: Total number of Sankey-type orbitals:  1

atm_pop: Valence configuration (for local Pseudopot. screening):
 3s( 2.00)                                                            
Vna: chval, zval:    2.00000   2.00000

Vna:  Cut-off radius for the neutral-atom potential:   6.619780

atom: _________________________________________________________________________

<basis_specs>
===============================================================================
C                    Z=   6    Mass=  12.010        Charge= 0.17977+309
Lmxo=1 Lmxkb=2     BasisType=split      Semic=F
L=0  Nsemic=0  Cnfigmx=2
          n=1  nzeta=1  polorb=0
            splnorm:   0.15000    
               vcte:    0.0000    
               rinn:    0.0000    
                rcs:    0.0000    
            lambdas:    1.0000    
L=1  Nsemic=0  Cnfigmx=2
          n=1  nzeta=1  polorb=0
            splnorm:   0.15000    
               vcte:    0.0000    
               rinn:    0.0000    
                rcs:    0.0000    
            lambdas:    1.0000    
-------------------------------------------------------------------------------
L=0  Nkbl=1  erefs: 0.17977+309
L=1  Nkbl=1  erefs: 0.17977+309
L=2  Nkbl=1  erefs: 0.17977+309
===============================================================================
</basis_specs>

atom: Called for C                     (Z =   6)

read_vps: Pseudopotential generation method:
read_vps: ATM3      Troullier-Martins                       
Total valence charge:    4.00000

xc_check: Exchange-correlation functional:
xc_check: Ceperley-Alder
V l=0 = -2*Zval/r beyond r=  1.4666
V l=1 = -2*Zval/r beyond r=  1.5038
V l=2 = -2*Zval/r beyond r=  1.5612
All V_l potentials equal beyond r=  1.5612
This should be close to max(r_c) in ps generation
All pots = -2*Zval/r beyond r=  1.5612

VLOCAL1: 99.0% of the norm of Vloc inside     17.809 Ry
VLOCAL1: 99.9% of the norm of Vloc inside     40.586 Ry
atom: Maximum radius for 4*pi*r*r*local-pseudopot. charge    1.88329
atom: Maximum radius for r*vlocal+2*Zval:    1.62091
GHOST: No ghost state for L =  0
GHOST: No ghost state for L =  1
GHOST: No ghost state for L =  2

KBgen: Kleinman-Bylander projectors: 
   l= 0   rc=  1.747182   el= -1.001947   Ekb=  5.181700   kbcos=  0.300603
   l= 1   rc=  1.747182   el= -0.398598   Ekb= -4.328763   kbcos= -0.367074
   l= 2   rc=  1.955272   el=  0.002326   Ekb= -1.016175   kbcos= -0.009979

KBgen: Total number of  Kleinman-Bylander projectors:    9
atom: -------------------------------------------------------------------------

atom: SANKEY-TYPE ORBITALS:

SPLIT: Orbitals with angular momentum L= 0

SPLIT: Basis orbitals for state 2s

SPLIT: PAO cut-off radius determined from an
SPLIT: energy shift=  0.020000 Ry

   izeta = 1
                 lambda =    1.000000
                     rc =    4.191849
                 energy =   -0.983897
                kinetic =    0.886956
    potential(screened) =   -1.870853
       potential(ionic) =   -5.479661

SPLIT: Orbitals with angular momentum L= 1

SPLIT: Basis orbitals for state 2p

SPLIT: PAO cut-off radius determined from an
SPLIT: energy shift=  0.020000 Ry

   izeta = 1
                 lambda =    1.000000
                     rc =    4.870301
                 energy =   -0.379093
                kinetic =    2.545357
    potential(screened) =   -2.924450
       potential(ionic) =   -6.433151
atom: Total number of Sankey-type orbitals:  4

atm_pop: Valence configuration (for local Pseudopot. screening):
 2s( 2.00)                                                            
 2p( 2.00)                                                            
Vna: chval, zval:    4.00000   4.00000

Vna:  Cut-off radius for the neutral-atom potential:   4.870301

atom: _________________________________________________________________________

<basis_specs>
===============================================================================
O                    Z=   8    Mass=  16.000        Charge= 0.17977+309
Lmxo=1 Lmxkb=2     BasisType=split      Semic=F
L=0  Nsemic=0  Cnfigmx=2
          n=1  nzeta=1  polorb=0
            splnorm:   0.15000    
               vcte:    0.0000    
               rinn:    0.0000    
                rcs:    0.0000    
            lambdas:    1.0000    
L=1  Nsemic=0  Cnfigmx=2
          n=1  nzeta=1  polorb=0
            splnorm:   0.15000    
               vcte:    0.0000    
               rinn:    0.0000    
                rcs:    0.0000    
            lambdas:    1.0000    
-------------------------------------------------------------------------------
L=0  Nkbl=1  erefs: 0.17977+309
L=1  Nkbl=1  erefs: 0.17977+309
L=2  Nkbl=1  erefs: 0.17977+309
===============================================================================
</basis_specs>

atom: Called for O                     (Z =   8)

read_vps: Pseudopotential generation method:
read_vps: ATM3      Troullier-Martins                       
Total valence charge:    6.00000

xc_check: Exchange-correlation functional:
xc_check: Ceperley-Alder
V l=0 = -2*Zval/r beyond r=  1.1278
V l=1 = -2*Zval/r beyond r=  1.1278
V l=2 = -2*Zval/r beyond r=  1.1278
All V_l potentials equal beyond r=  1.1278
This should be close to max(r_c) in ps generation
All pots = -2*Zval/r beyond r=  1.1278

VLOCAL1: 99.0% of the norm of Vloc inside     34.126 Ry
VLOCAL1: 99.9% of the norm of Vloc inside     77.774 Ry
atom: Maximum radius for 4*pi*r*r*local-pseudopot. charge    1.37759
atom: Maximum radius for r*vlocal+2*Zval:    1.18566
GHOST: No ghost state for L =  0
GHOST: No ghost state for L =  1
GHOST: No ghost state for L =  2

KBgen: Kleinman-Bylander projectors: 
   l= 0   rc=  1.294105   el= -1.742414   Ekb=  9.135903   kbcos=  0.326910
   l= 1   rc=  1.294105   el= -0.676589   Ekb= -8.124878   kbcos= -0.395047
   l= 2   rc=  1.448233   el=  0.002386   Ekb= -2.039267   kbcos= -0.003484

KBgen: Total number of  Kleinman-Bylander projectors:    9
atom: -------------------------------------------------------------------------

atom: SANKEY-TYPE ORBITALS:

SPLIT: Orbitals with angular momentum L= 0

SPLIT: Basis orbitals for state 2s

SPLIT: PAO cut-off radius determined from an
SPLIT: energy shift=  0.020000 Ry

   izeta = 1
                 lambda =    1.000000
                     rc =    3.305093
                 energy =   -1.723766
                kinetic =    1.614911
    potential(screened) =   -3.338677
       potential(ionic) =  -11.304675

SPLIT: Orbitals with angular momentum L= 1

SPLIT: Basis orbitals for state 2p

SPLIT: PAO cut-off radius determined from an
SPLIT: energy shift=  0.020000 Ry

   izeta = 1
                 lambda =    1.000000
                     rc =    3.937239
                 energy =   -0.658841
                kinetic =    5.005986
    potential(screened) =   -5.664827
       potential(ionic) =  -13.452360
atom: Total number of Sankey-type orbitals:  4

atm_pop: Valence configuration (for local Pseudopot. screening):
 2s( 2.00)                                                            
 2p( 4.00)                                                            
Vna: chval, zval:    6.00000   6.00000

Vna:  Cut-off radius for the neutral-atom potential:   3.937239

atom: _________________________________________________________________________

prinput: Basis input ----------------------------------------------------------

PAO.BasisType split     

%block ChemicalSpeciesLabel
    1   12 Mg                      # Species index, atomic number, species label
    2    6 C                       # Species index, atomic number, species label
    3    8 O                       # Species index, atomic number, species label
%endblock ChemicalSpeciesLabel

%block PAO.Basis                 # Define Basis set
Mg                    1                    # Species label, number of l-shells
 n=3   0   1                         # n, l, Nzeta 
   6.620   
   1.000   
C                     2                    # Species label, number of l-shells
 n=2   0   1                         # n, l, Nzeta 
   4.192   
   1.000   
 n=2   1   1                         # n, l, Nzeta 
   4.870   
   1.000   
O                     2                    # Species label, number of l-shells
 n=2   0   1                         # n, l, Nzeta 
   3.305   
   1.000   
 n=2   1   1                         # n, l, Nzeta 
   3.937   
   1.000   
%endblock PAO.Basis

prinput: ----------------------------------------------------------------------

Dumping basis to NetCDF file Mg.ion.nc
Dumping basis to NetCDF file C.ion.nc
Dumping basis to NetCDF file O.ion.nc
coor:   Atomic-coordinates input format  =     Fractional

siesta: Atomic coordinates (Bohr) and species
siesta:      0.00000   0.00000   0.00000  1        1
siesta:     12.51930   5.59740   3.66414  1        2
siesta:      6.25965   2.79870   1.83207  2        3
siesta:     -6.25965  -2.79870  -1.83207  2        4
siesta:      7.25136   0.58061   1.83207  3        5
siesta:      6.25965   4.12944  -0.20079  3        6
siesta:      5.26794   3.68605   3.86493  3        7
siesta:     -7.25136  -0.58061  -1.83207  3        8
siesta:     -6.25965  -4.12944   0.20079  3        9
siesta:     -5.26794  -3.68605  -3.86493  3       10

siesta: System type = bulk      

initatomlists: Number of atoms, orbitals, and projectors:     10    34    80

siesta: ******************** Simulation parameters ****************************
siesta:
siesta: The following are some of the parameters of the simulation.
siesta: A complete list of the parameters used, including default values,
siesta: can be found in file out.fdf
siesta:
redata: Non-Collinear-spin run           =     F
redata: SpinPolarized (Up/Down) run      =     F
redata: Number of spin components        =     1
redata: Long output                      =     F
redata: Number of Atomic Species         =        3
redata: Charge density info will appear in .RHO file
redata: Write Mulliken Pop.              =     NO
redata: Mesh Cutoff                      =   100.0000  Ry
redata: Net charge of the system         =     0.0000 |e|
redata: Max. number of SCF Iter          =       20
redata: Broyden mixing with     4 saved histories.
redata: Mix DM in first SCF step ?       =     F
redata: Write Pulay info on disk?        =     F
redata: New DM Mixing Weight             =     0.1000
redata: New DM Occupancy tolerance       = 0.000000000001
redata: No kicks to SCF
redata: DM Mixing Weight for Kicks       =     0.5000
redata: DM Tolerance for SCF             =     0.001000
redata: Require Energy convergence for SCF =     F
redata: DM Energy tolerance for SCF      =     0.000100 eV
redata: Require Harris convergence for SCF =     F
redata: DM Harris energy tolerance for SCF =     0.000100 eV
redata: Using Saved Data (generic)   =     F
redata: Use continuation files for DM    =     T
redata: Neglect nonoverlap interactions  =     F
redata: Method of Calculation            =     Diagonalization
redata: Divide and Conquer               =     F
redata: Electronic Temperature           =     0.0019  Ry
redata: Fix the spin of the system       =     F
redata: Dynamics option                  =     Broyden coord. optimization
redata: Variable cell                    =     T
redata: Maximum number of CG moves       =       30
redata: Force tolerance                  =     0.0016  Ry/Bohr
redata: Stress tolerance                 =     2.0000  GPa
redata: ***********************************************************************
Total number of electrons:    48.000000
Total ionic charge:    48.000000

* ProcessorY, Blocksize:    2   9

 Kpoints in:          154 . Kpoints trimmed:          154

siesta: k-grid: Number of k-points =   154
siesta: k-grid: Cutoff (effective) =    16.222 Ang
siesta: k-grid: Supercell and displacements
siesta: k-grid:   -7   0   7      0.500
siesta: k-grid:    0  -7   7      0.000
siesta: k-grid:    0   0   6      0.000
Naive supercell factors:     4    4    4
Auxiliary supercell needs to be larger than naive one...
Auxiliary supercell needs to be larger than naive one...
Auxiliary supercell needs to be larger than naive one...
Auxiliary supercell needs to be larger than naive one...

superc: Internal auxiliary supercell:     5 x     5 x     4  =     100
superc: Number of atoms, orbitals, and projectors:   1000  3400  8000

* Maximum dynamic memory allocated =     3 MB

siesta:                 ==============================
                            Begin CG move =      0
                        ==============================

outcoor: Atomic coordinates (fractional):                   
    0.00000000    0.00000000    0.00000000   1       1  Mg
    0.50000000    0.50000000    0.50000000   1       2  Mg
    0.25000000    0.25000000    0.25000000   2       3  C
   -0.25000000   -0.25000000   -0.25000000   2       4  C
    0.52740000   -0.02740000    0.25000000   3       5  O
    0.25000000    0.52740000   -0.02740000   3       6  O
   -0.02740000    0.25000000    0.52740000   3       7  O
   -0.52740000    0.02740000   -0.25000000   3       8  O
   -0.25000000   -0.52740000    0.02740000   3       9  O
    0.02740000   -0.25000000   -0.52740000   3      10  O

superc: Internal auxiliary supercell:     5 x     5 x     4  =     100
superc: Number of atoms, orbitals, and projectors:   1000  3400  8000

outcell: Unit cell vectors (Ang):
        5.677830    0.000000    0.000000
        3.786009    4.231299    0.000000
        3.786009    1.692731    3.877957

outcell: Cell vector modules (Ang)   :    5.677830    5.677830    5.677830
outcell: Cell angles (23,13,12) (deg):     48.1790     48.1790     48.1790
outcell: Cell volume (Ang**3)        :     93.1663
New_DM. Step:     1
Initializing Density Matrix...

InitMesh: MESH =    32 x    32 x    32 =       32768
InitMesh: Mesh cutoff (required, used) =   100.000   112.857 Ry

* Maximum dynamic memory allocated =     8 MB

stepf: Fermi-Dirac step function
 Broyden: No of relevant DM elements:         9610
 maxit for broyden:            4
 cycle on maxit:  T
 variable weight:  T
 initial alpha:   0.100000000000000     

siesta: Program's energy decomposition (eV):
siesta: Eions   =      5228.674091
siesta: Ena     =      1092.429444
siesta: Ekin    =      2100.835149
siesta: Enl     =      -258.044678
siesta: DEna    =        -0.000015
siesta: DUscf   =         0.000000
siesta: DUext   =         0.000000
siesta: Exc     =      -683.847183
siesta: eta*DQ  =         0.000000
siesta: Emadel  =         0.000000
siesta: Emeta   =         0.000000
siesta: Emolmec =         0.000000
siesta: Ekinion =         0.000000
siesta: Eharris =     -2966.326649
siesta: Etot    =     -2977.301374
siesta: FreeEng =     -2977.301374

siesta: Eharris(eV) =   -2966.326649


siesta: Eharris(eV) =   -2966.326649

timer: Routine,Calls,Time,% = IterSCF        1       7.598  79.07
elaps: Routine,Calls,Wall,% = IterSCF        1       1.899  78.94

siesta: E_KS - E_eggbox =     -2949.8288

siesta: Atomic forces (eV/Ang):
     1    0.000000    0.000000    0.000000
     2    0.000000    0.000000    0.000000
     3   -0.000003   -0.000001    0.000001
     4    0.000004    0.000000    0.000000
     5    2.760278   -6.173725   -0.000003
     6    0.000004    3.703923   -5.658186
     7   -2.760270    2.469807    5.658181
     8   -2.760279    6.173722    0.000003
     9    0.000000   -3.703924    5.658181
    10    2.760284   -2.469810   -5.658182
----------------------------------------
   Tot    0.000018   -0.000008   -0.000005
----------------------------------------
   Max    6.173725
   Res    3.024370    sqrt( Sum f_i^2 / 3N )
----------------------------------------
   Max    6.173725    constrained

Stress-tensor-Voigt (kbar):      567.99      382.08      355.54      103.89       30.41       68.01
(Free)E + p*V (eV/cell)    -2975.1357
Target enthalpy (eV/cell)    -2891.6795

siesta: Stress tensor (static) (eV/Ang**3):
         0.354510    0.064841    0.042446
         0.064841    0.238476    0.018978
         0.042446    0.018978    0.221909

siesta: Pressure (static):       -435.20668299  kBar

siesta: Stress tensor (total) (eV/Ang**3):
         0.354510    0.064841    0.042446
         0.064841    0.238476    0.018978
         0.042446    0.018978    0.221909

siesta: Pressure (total):       -435.20668299  kBar
 
Broyden_optim: max_history for broyden:   6
Broyden_optim: cycle on maxit: T
Broyden_optim: initial inverse jacobian:   1.0000
 
Broyden_optim: No of elements:     36

Broyden_optim: No target stress found, assuming hydrostatic MD.TargetPressure.

Broyden_optim: Target stress (kBar)
Broyden_optim:     -1000.000       0.000       0.000
Broyden_optim:         0.000   -1000.000       0.000
Broyden_optim:         0.000       0.000   -1000.000

* Maximum dynamic memory allocated =     9 MB

siesta:                 ==============================
                            Begin CG move =      1
                        ==============================

outcoor: Atomic coordinates (fractional):                   
    0.00000000    0.00000000    0.00000000   1       1  Mg
    0.50000000    0.50000000    0.50000000   1       2  Mg
    0.24999999    0.24999999    0.24999999   2       3  C
   -0.24999998   -0.24999999   -0.24999999   2       4  C
    0.53740572   -0.03740575    0.24999998   3       5  O
    0.25000001    0.53740574   -0.03740575   3       6  O
   -0.03740569    0.25000005    0.53740579   3       7  O
   -0.53740572    0.03740574   -0.24999999   3       8  O
   -0.25000000   -0.53740573    0.03740575   3       9  O
    0.03740574   -0.25000003   -0.53740576   3      10  O
 Kpoints in:          168 . Kpoints trimmed:          168
Auxiliary supercell needs to be larger than naive one...
Auxiliary supercell needs to be larger than naive one...
Auxiliary supercell needs to be larger than naive one...

siesta: k-grid: Number of k-points =   168
siesta: k-grid: Cutoff (effective) =    15.185 Ang
siesta: k-grid: Supercell and displacements
siesta: k-grid:   -7   0   7      0.500
siesta: k-grid:   -7   7   0      0.000
siesta: k-grid:    0   0   6      0.000
Naive supercell factors:     4    4    4
Auxiliary supercell needs to be larger than naive one...

superc: Internal auxiliary supercell:     5 x     5 x     4  =     100
superc: Number of atoms, orbitals, and projectors:   1000  3400  8000

outcell: Unit cell vectors (Ang):
        5.251635   -0.028238   -0.018485
        3.480776    3.932513   -0.018485
        3.480776    1.556261    3.611517

outcell: Cell vector modules (Ang)   :    5.251743    5.251743    5.251743
outcell: Cell angles (23,13,12) (deg):     48.7948     48.7948     48.7948
outcell: Cell volume (Ang**3)        :     75.2462
New_DM. Step:     2
Initializing Density Matrix...

InitMesh: MESH =    30 x    30 x    30 =       27000
InitMesh: Mesh cutoff (required, used) =   100.000   116.744 Ry

siesta: Eharris(eV) =   -2965.796805


siesta: Eharris(eV) =   -2965.796805


siesta: Atomic forces (eV/Ang):
     1    0.000001    0.000000    0.000002
     2    0.000002   -0.000001    0.000000
     3    0.000003    0.000002   -0.000004
     4    0.000002   -0.000002    0.000000
     5    3.774817   -8.442865    0.000002
     6   -0.000008    5.065273   -7.737811
     7   -3.774792    3.377582    7.737832
     8   -3.774813    8.442858    0.000000
     9    0.000008   -5.065280    7.737815
    10    3.774813   -3.377564   -7.737810
----------------------------------------
   Tot    0.000032    0.000003    0.000026
----------------------------------------
   Max    8.442865
   Res    4.135964    sqrt( Sum f_i^2 / 3N )
----------------------------------------
   Max    8.442865    constrained

Stress-tensor-Voigt (kbar):      453.52       49.24       -8.48      225.91       66.12      147.88
(Free)E + p*V (eV/cell)    -2956.5877
Target enthalpy (eV/cell)    -2901.8854

siesta: Stress tensor (static) (eV/Ang**3):
         0.283059    0.141001    0.092301
         0.141001    0.030734    0.041268
         0.092301    0.041268   -0.005293

siesta: Pressure (static):       -164.75932986  kBar

siesta: Stress tensor (total) (eV/Ang**3):
         0.283059    0.141001    0.092301
         0.141001    0.030734    0.041268
         0.092301    0.041268   -0.005293

siesta: Pressure (total):       -164.75932986  kBar

* Maximum dynamic memory allocated =     9 MB

siesta:                 ==============================
                            Begin CG move =      2
                        ==============================

outcoor: Atomic coordinates (fractional):                   
    0.00000000    0.00000000    0.00000001   1       1  Mg
    0.50000001    0.50000000    0.50000001   1       2  Mg
    0.25000001    0.25000002    0.24999999   2       3  C
   -0.24999997   -0.24999999   -0.24999998   2       4  C
    0.56751366   -0.06751372    0.24999997   3       5  O
    0.24999995    0.56751352   -0.06751371   3       6  O
   -0.06751343    0.25000028    0.56751394   3       7  O
   -0.56751364    0.06751369   -0.24999997   3       8  O
   -0.24999994   -0.56751355    0.06751371   3       9  O
    0.06751365   -0.25000003   -0.56751364   3      10  O
 Kpoints in:          280 . Kpoints trimmed:          280

siesta: k-grid: Number of k-points =   280
siesta: k-grid: Cutoff (effective) =    15.757 Ang
siesta: k-grid: Supercell and displacements
siesta: k-grid:    8  -8   0      0.500
siesta: k-grid:    8   0  -8      0.500
siesta: k-grid:    7   0   0      0.000
Naive supercell factors:     5    5    5

superc: Internal auxiliary supercell:     5 x     5 x     5  =     125
superc: Number of atoms, orbitals, and projectors:   1250  4250 10000

outcell: Unit cell vectors (Ang):
        4.501576   -0.144814   -0.094798
        2.893756    3.451280   -0.094798
        2.893756    1.293803    3.200999

outcell: Cell vector modules (Ang)   :    4.504902    4.504902    4.504902
outcell: Cell angles (23,13,12) (deg):     51.8518     51.8518     51.8518
outcell: Cell volume (Ang**3)        :     52.2564
New_DM. Step:     3
DM reset as supercell changed.
Initializing Density Matrix...

InitMesh: MESH =    24 x    24 x    24 =       13824
InitMesh: Mesh cutoff (required, used) =   100.000   105.274 Ry

siesta: Eharris(eV) =   -2956.021881


siesta: Eharris(eV) =   -2956.021881


siesta: Atomic forces (eV/Ang):
     1    0.000021   -0.000018    0.000050
     2    0.000042   -0.000036    0.000003
     3    0.000003   -0.000011    0.000025
     4   -0.000003    0.000012   -0.000005
     5    1.024349   -2.291061    0.000025
     6    0.000015    1.374515   -2.099721
     7   -1.024435    0.916552    2.099628
     8   -1.024305    2.291027   -0.000012
     9    0.000017   -1.374539    2.099706
    10    1.024323   -0.916495   -2.099695
----------------------------------------
   Tot    0.000028   -0.000052    0.000004
----------------------------------------
   Max    2.291061
   Res    1.122325    sqrt( Sum f_i^2 / 3N )
----------------------------------------
   Max    2.291061    constrained

Stress-tensor-Voigt (kbar):     -908.64    -1196.61    -1237.73      160.92       47.10      105.34
(Free)E + p*V (eV/cell)    -2897.9860
Target enthalpy (eV/cell)    -2901.7149

siesta: Stress tensor (static) (eV/Ang**3):
        -0.567120    0.100438    0.065748
         0.100438   -0.746858    0.029397
         0.065748    0.029397   -0.772525

siesta: Pressure (static):       1114.32719903  kBar

siesta: Stress tensor (total) (eV/Ang**3):
        -0.567120    0.100438    0.065748
         0.100438   -0.746858    0.029397
         0.065748    0.029397   -0.772525

siesta: Pressure (total):       1114.32719903  kBar

* Maximum dynamic memory allocated =     9 MB

siesta:                 ==============================
                            Begin CG move =      3
                        ==============================

outcoor: Atomic coordinates (fractional):                   
    0.00000008    0.00000000    0.00000016   1       1  Mg
    0.50000016    0.50000000    0.50000007   1       2  Mg
    0.25000002    0.24999999    0.25000005   2       3  C
   -0.24999998   -0.24999997   -0.24999999   2       4  C
    0.56782843   -0.06782843    0.25000006   3       5  O
    0.25000001    0.56782828   -0.06782836   3       6  O
   -0.06782852    0.25000008    0.56782816   3       7  O
   -0.56782825    0.06782840   -0.24999996   3       8  O
   -0.24999988   -0.56782830    0.06782837   3       9  O
    0.06782833   -0.24999995   -0.56782825   3      10  O
 Kpoints in:          280 . Kpoints trimmed:          280

siesta: k-grid: Number of k-points =   280
siesta: k-grid: Cutoff (effective) =    16.014 Ang
siesta: k-grid: Supercell and displacements
siesta: k-grid:    8  -8   0      0.500
siesta: k-grid:    8   0  -8      0.500
siesta: k-grid:    7   0   0      0.000
Naive supercell factors:     5    5    5

superc: Internal auxiliary supercell:     5 x     5 x     5  =     125
superc: Number of atoms, orbitals, and projectors:   1250  4250 10000

outcell: Unit cell vectors (Ang):
        4.571326   -0.160804   -0.105265
        2.928350    3.513923   -0.105265
        2.928350    1.309270    3.262599

outcell: Cell vector modules (Ang)   :    4.575365    4.575365    4.575366
outcell: Cell angles (23,13,12) (deg):     52.1934     52.1934     52.1934
outcell: Cell volume (Ang**3)        :     55.3036
New_DM. Step:     4
Initializing Density Matrix...

InitMesh: MESH =    24 x    24 x    24 =       13824
InitMesh: Mesh cutoff (required, used) =   100.000   102.487 Ry

siesta: Eharris(eV) =   -2959.934747


siesta: Eharris(eV) =   -2959.934747


siesta: Atomic forces (eV/Ang):
     1   -0.000035   -0.000008   -0.000053
     2   -0.000066    0.000018   -0.000017
     3    0.000011   -0.000004   -0.000014
     4    0.000001   -0.000013    0.000021
     5    0.428569   -0.958425   -0.000012
     6    0.000012    0.575037   -0.878394
     7   -0.428432    0.383428    0.878464
     8   -0.428545    0.958431   -0.000002
     9   -0.000015   -0.575028    0.878403
    10    0.428537   -0.383448   -0.878419
----------------------------------------
   Tot    0.000037   -0.000011   -0.000024
----------------------------------------
   Max    0.958431
   Res    0.469523    sqrt( Sum f_i^2 / 3N )
----------------------------------------
   Max    0.958431    constrained

Stress-tensor-Voigt (kbar):     -493.82     -616.44     -633.95       68.52       20.05       44.86
(Free)E + p*V (eV/cell)    -2918.4393
Target enthalpy (eV/cell)    -2903.9904

siesta: Stress tensor (static) (eV/Ang**3):
        -0.308216    0.042768    0.027997
         0.042768   -0.384748    0.012517
         0.027997    0.012517   -0.395675

siesta: Pressure (static):        581.40356559  kBar

siesta: Stress tensor (total) (eV/Ang**3):
        -0.308216    0.042768    0.027997
         0.042768   -0.384748    0.012517
         0.027997    0.012517   -0.395675

siesta: Pressure (total):        581.40356559  kBar

* Maximum dynamic memory allocated =     9 MB

siesta:                 ==============================
                            Begin CG move =      4
                        ==============================

outcoor: Atomic coordinates (fractional):                   
    0.00000010    0.00000002    0.00000020   1       1  Mg
    0.50000020    0.50000002    0.50000010   1       2  Mg
    0.25000001    0.24999998    0.25000005   2       3  C
   -0.24999999   -0.24999996   -0.25000000   2       4  C
    0.55966770   -0.05966776    0.25000004   3       5  O
    0.25000002    0.55966762   -0.05966769   3       6  O
   -0.05966793    0.24999999    0.55966737   3       7  O
   -0.55966756    0.05966773   -0.24999995   3       8  O
   -0.24999989   -0.55966763    0.05966769   3       9  O
    0.05966764   -0.24999995   -0.55966758   3      10  O
 Kpoints in:          280 . Kpoints trimmed:          280

siesta: k-grid: Number of k-points =   280
siesta: k-grid: Cutoff (effective) =    16.548 Ang
siesta: k-grid: Supercell and displacements
siesta: k-grid:    8  -8   0      0.500
siesta: k-grid:    8   0  -8      0.500
siesta: k-grid:    7   0   0      0.000
Naive supercell factors:     5    5    5

superc: Internal auxiliary supercell:     5 x     5 x     5  =     125
superc: Number of atoms, orbitals, and projectors:   1250  4250 10000

outcell: Unit cell vectors (Ang):
        4.783380   -0.127187   -0.083258
        3.094801    3.649536   -0.083258
        3.094802    1.383691    3.378083

outcell: Cell vector modules (Ang)   :    4.785795    4.785795    4.785796
outcell: Cell angles (23,13,12) (deg):     51.2169     51.2169     51.2169
outcell: Cell volume (Ang**3)        :     61.4689
New_DM. Step:     5
Initializing Density Matrix...

InitMesh: MESH =    30 x    30 x    30 =       27000
InitMesh: Mesh cutoff (required, used) =   100.000   144.625 Ry

siesta: Eharris(eV) =   -2964.344265


siesta: Eharris(eV) =   -2964.344265


siesta: Atomic forces (eV/Ang):
     1   -0.000045   -0.000006   -0.000053
     2   -0.000071    0.000014   -0.000016
     3    0.000007   -0.000002   -0.000018
     4    0.000001   -0.000020    0.000026
     5    1.254935   -2.806790    0.000001
     6    0.000011    1.683929   -2.572410
     7   -1.254870    1.122832    2.572469
     8   -1.254938    2.806814    0.000005
     9   -0.000002   -1.683917    2.572399
    10    1.254943   -1.122890   -2.572421
----------------------------------------
   Tot   -0.000030   -0.000037   -0.000016
----------------------------------------
   Max    2.806814
   Res    1.374990    sqrt( Sum f_i^2 / 3N )
----------------------------------------
   Max    2.806814    constrained

Stress-tensor-Voigt (kbar):       20.90     -171.19     -198.62      107.34       31.42       70.27
(Free)E + p*V (eV/cell)    -2940.2587
Target enthalpy (eV/cell)    -2906.3552

siesta: Stress tensor (static) (eV/Ang**3):
         0.013044    0.066997    0.043858
         0.066997   -0.106848    0.019608
         0.043858    0.019608   -0.123965

siesta: Pressure (static):        116.30237581  kBar

siesta: Stress tensor (total) (eV/Ang**3):
         0.013044    0.066997    0.043858
         0.066997   -0.106848    0.019608
         0.043858    0.019608   -0.123965

siesta: Pressure (total):        116.30237581  kBar

* Maximum dynamic memory allocated =    10 MB

siesta:                 ==============================
                            Begin CG move =      5
                        ==============================

outcoor: Atomic coordinates (fractional):                   
    0.00000001   -0.00000003   -0.00000010   1       1  Mg
    0.49999989    0.49999997    0.49999990   1       2  Mg
    0.25000009    0.25000004    0.25000004   2       3  C
   -0.24999998   -0.24999997   -0.24999996   2       4  C
    0.56240681   -0.06240585    0.25000026   3       5  O
    0.25000000    0.56240643   -0.06240606   3       6  O
   -0.06240549    0.25000088    0.56240705   3       7  O
   -0.56240637    0.06240594   -0.25000023   3       8  O
   -0.25000008   -0.56240654    0.06240614   3       9  O
    0.06240626   -0.25000000   -0.56240625   3      10  O
 Kpoints in:          280 . Kpoints trimmed:          280

siesta: k-grid: Number of k-points =   280
siesta: k-grid: Cutoff (effective) =    16.402 Ang
siesta: k-grid: Supercell and displacements
siesta: k-grid:   -8   8   0      0.500
siesta: k-grid:    0   8  -8      0.500
siesta: k-grid:    0   7   0      0.000
Naive supercell factors:     5    5    5

superc: Internal auxiliary supercell:     5 x     5 x     5  =     125
superc: Number of atoms, orbitals, and projectors:   1250  4250 10000

outcell: Unit cell vectors (Ang):
        4.699884   -0.144524   -0.094608
        3.026205    3.598871   -0.094608
        3.026205    1.353021    3.336190

outcell: Cell vector modules (Ang)   :    4.703057    4.703057    4.703057
outcell: Cell angles (23,13,12) (deg):     51.6904     51.6904     51.6904
outcell: Cell volume (Ang**3)        :     59.1743
New_DM. Step:     6
Initializing Density Matrix...

InitMesh: MESH =    30 x    30 x    30 =       27000
InitMesh: Mesh cutoff (required, used) =   100.000   150.623 Ry

siesta: Eharris(eV) =   -2963.011802


siesta: Eharris(eV) =   -2963.011802


siesta: Atomic forces (eV/Ang):
     1    0.000063   -0.000016    0.000064
     2    0.000099   -0.000024    0.000002
     3   -0.000007    0.000011    0.000010
     4    0.000024   -0.000037    0.000010
     5    0.986631   -2.206878    0.000055
     6   -0.000047    1.323948   -2.022593
     7   -0.986742    0.882936    2.022493
     8   -0.986658    2.206885    0.000016
     9    0.000016   -1.323967    2.022584
    10    0.986730   -0.882797   -2.022558
----------------------------------------
   Tot    0.000109    0.000062    0.000082
----------------------------------------
   Max    2.206885
   Res    1.081087    sqrt( Sum f_i^2 / 3N )
----------------------------------------
   Max    2.206885    constrained

Stress-tensor-Voigt (kbar):     -131.98     -308.12     -333.27       98.43       28.81       64.43
(Free)E + p*V (eV/cell)    -2933.2791
Target enthalpy (eV/cell)    -2905.8670

siesta: Stress tensor (static) (eV/Ang**3):
        -0.082376    0.061434    0.040215
         0.061434   -0.192314    0.017980
         0.040215    0.017980   -0.208011

siesta: Pressure (static):        257.79366727  kBar

siesta: Stress tensor (total) (eV/Ang**3):
        -0.082376    0.061434    0.040215
         0.061434   -0.192314    0.017980
         0.040215    0.017980   -0.208011

siesta: Pressure (total):        257.79366727  kBar

* Maximum dynamic memory allocated =    10 MB

siesta:                 ==============================
                            Begin CG move =      6
                        ==============================

outcoor: Atomic coordinates (fractional):                   
    0.00000022    0.00000009   -0.00000002   1       1  Mg
    0.50000002    0.50000016    0.50000000   1       2  Mg
    0.25000015    0.25000010    0.25000007   2       3  C
   -0.24999990   -0.24999998   -0.24999992   2       4  C
    0.56313818   -0.06313638    0.25000049   3       5  O
    0.24999981    0.56313744   -0.06313695   3       6  O
   -0.06313549    0.25000204    0.56313897   3       7  O
   -0.56313746    0.06313653   -0.25000045   3       8  O
   -0.25000028   -0.56313781    0.06313701   3       9  O
    0.06313731   -0.24999983   -0.56313715   3      10  O
 Kpoints in:          280 . Kpoints trimmed:          280

siesta: k-grid: Number of k-points =   280
siesta: k-grid: Cutoff (effective) =    16.364 Ang
siesta: k-grid: Supercell and displacements
siesta: k-grid:   -8   8   0      0.500
siesta: k-grid:    0   8  -8      0.500
siesta: k-grid:    0   7   0      0.000
Naive supercell factors:     5    5    5

superc: Internal auxiliary supercell:     5 x     5 x     5  =     125
superc: Number of atoms, orbitals, and projectors:   1250  4250 10000

outcell: Unit cell vectors (Ang):
        4.671848   -0.155914   -0.102064
        2.999023    3.585571   -0.102064
        2.999023    1.340868    3.326984

outcell: Cell vector modules (Ang)   :    4.675563    4.675562    4.675563
outcell: Cell angles (23,13,12) (deg):     51.9885     51.9885     51.9885
outcell: Cell volume (Ang**3)        :     58.6610
New_DM. Step:     7
Initializing Density Matrix...

InitMesh: MESH =    30 x    30 x    30 =       27000
InitMesh: Mesh cutoff (required, used) =   100.000   152.959 Ry

siesta: Eharris(eV) =   -2962.719458


siesta: Eharris(eV) =   -2962.719458


siesta: Atomic forces (eV/Ang):
     1    0.000128   -0.000113    0.000215
     2    0.000238   -0.000156   -0.000019
     3   -0.000005    0.000027    0.000027
     4    0.000044   -0.000052    0.000019
     5    0.842800   -1.885412    0.000095
     6   -0.000085    1.131067   -1.727931
     7   -0.843179    0.754488    1.727664
     8   -0.842786    1.885407   -0.000064
     9    0.000067   -1.130961    1.727981
    10    0.843067   -0.754093   -1.727897
----------------------------------------
   Tot    0.000290    0.000202    0.000090
----------------------------------------
   Max    1.885412
   Res    0.923585    sqrt( Sum f_i^2 / 3N )
----------------------------------------
   Max    1.885412    constrained

Stress-tensor-Voigt (kbar):     -176.67     -328.70     -350.41       84.95       24.86       55.61
(Free)E + p*V (eV/cell)    -2931.8740
Target enthalpy (eV/cell)    -2905.7052

siesta: Stress tensor (static) (eV/Ang**3):
        -0.110265    0.053024    0.034709
         0.053024   -0.205153    0.015518
         0.034709    0.015518   -0.218705

siesta: Pressure (static):        285.25658429  kBar

siesta: Stress tensor (total) (eV/Ang**3):
        -0.110265    0.053024    0.034709
         0.053024   -0.205153    0.015518
         0.034709    0.015518   -0.218705

siesta: Pressure (total):        285.25658429  kBar

* Maximum dynamic memory allocated =    10 MB

siesta:                 ==============================
                            Begin CG move =      7
                        ==============================

outcoor: Atomic coordinates (fractional):                   
    0.00000581    0.00000020    0.00000629   1       1  Mg
    0.50000798    0.50000215    0.50000283   1       2  Mg
    0.25000086    0.25000151    0.25000119   2       3  C
   -0.24999795   -0.25000007   -0.24999874   2       4  C
    0.56990236   -0.06989731    0.25000175   3       5  O
    0.24999570    0.56989967   -0.06989963   3       6  O
   -0.06989370    0.25001762    0.56990567   3       7  O
   -0.56989635    0.06989893   -0.25000179   3       8  O
   -0.25000080   -0.56989914    0.06990315   3       9  O
    0.06990448   -0.24999252   -0.56989561   3      10  O
 Kpoints in:          280 . Kpoints trimmed:          280

siesta: k-grid: Number of k-points =   280
siesta: k-grid: Cutoff (effective) =    15.046 Ang
siesta: k-grid: Supercell and displacements
siesta: k-grid:   -8   8   0      0.500
siesta: k-grid:    0   8  -8      0.500
siesta: k-grid:    0   7   0      0.000
Naive supercell factors:     5    5    5

superc: Internal auxiliary supercell:     5 x     5 x     5  =     125
superc: Number of atoms, orbitals, and projectors:   1250  4250 10000

outcell: Unit cell vectors (Ang):
        4.285754   -0.279848   -0.183192
        2.649213    3.380464   -0.183189
        2.649214    1.184463    3.171481

outcell: Cell vector modules (Ang)   :    4.298786    4.298771    4.298788
outcell: Cell angles (23,13,12) (deg):     55.5959     55.5960     55.5958
outcell: Cell volume (Ang**3)        :     50.4307
New_DM. Step:     8
Initializing Density Matrix...

InitMesh: MESH =    24 x    24 x    24 =       13824
InitMesh: Mesh cutoff (required, used) =   100.000   121.329 Ry

siesta: Eharris(eV) =   -2954.017342


siesta: Eharris(eV) =   -2954.017342


siesta: Atomic forces (eV/Ang):
     1   -0.000918   -0.000872    0.000387
     2   -0.000775   -0.001361   -0.000121
     3   -0.000031    0.000109    0.000084
     4    0.000333   -0.000291    0.000025
     5   -0.533584    1.195115   -0.000649
     6    0.000271   -0.715899    1.095667
     7    0.533921   -0.477644   -1.095211
     8    0.535340   -1.194246   -0.000521
     9    0.000133    0.717709   -1.094388
    10   -0.533301    0.478644    1.095066
----------------------------------------
   Tot    0.001390    0.001264    0.000340
----------------------------------------
   Max    1.195115
   Res    0.585292    sqrt( Sum f_i^2 / 3N )
----------------------------------------
   Max    1.195115    constrained

Stress-tensor-Voigt (kbar):    -1212.36    -1116.46    -1102.80      -53.59      -15.69      -35.09
(Free)E + p*V (eV/cell)    -2894.7522
Target enthalpy (eV/cell)    -2899.2807

siesta: Stress tensor (static) (eV/Ang**3):
        -0.756686   -0.033451   -0.021899
        -0.033451   -0.696833   -0.009795
        -0.021899   -0.009795   -0.688304

siesta: Pressure (static):       1143.87179567  kBar

siesta: Stress tensor (total) (eV/Ang**3):
        -0.756686   -0.033451   -0.021899
        -0.033451   -0.696833   -0.009795
        -0.021899   -0.009795   -0.688304

siesta: Pressure (total):       1143.87179567  kBar
Cycling the Broyden process...

* Maximum dynamic memory allocated =    10 MB

siesta:                 ==============================
                            Begin CG move =      8
                        ==============================

outcoor: Atomic coordinates (fractional):                   
    0.00000254   -0.00000318    0.00000389   1       1  Mg
    0.50000488    0.49999772    0.49999988   1       2  Mg
    0.25000061    0.25000143    0.25000119   2       3  C
   -0.24999737   -0.25000013   -0.24999857   2       4  C
    0.56707176   -0.06706430    0.25000140   3       5  O
    0.24999690    0.56707019   -0.06706555   3       6  O
   -0.06706379    0.25001492    0.56707230   3       7  O
   -0.56706217    0.06707043   -0.25000022   3       8  O
   -0.25000051   -0.56706547    0.06707294   3       9  O
    0.06707418   -0.24999094   -0.56706252   3      10  O
 Kpoints in:          280 . Kpoints trimmed:          280

siesta: k-grid: Number of k-points =   280
siesta: k-grid: Cutoff (effective) =    15.343 Ang
siesta: k-grid: Supercell and displacements
siesta: k-grid:   -8   8   0      0.500
siesta: k-grid:    0   8  -8      0.500
siesta: k-grid:    0   7   0      0.000
Naive supercell factors:     5    5    5

superc: Internal auxiliary supercell:     5 x     5 x     5  =     125
superc: Number of atoms, orbitals, and projectors:   1250  4250 10000

outcell: Unit cell vectors (Ang):
        4.373720   -0.247230   -0.161840
        2.732177    3.424275   -0.161836
        2.732178    1.221559    3.203091

outcell: Cell vector modules (Ang)   :    4.383691    4.383679    4.383697
outcell: Cell angles (23,13,12) (deg):     54.6092     54.6092     54.6091
outcell: Cell volume (Ang**3)        :     52.0837
New_DM. Step:     9
Initializing Density Matrix...

InitMesh: MESH =    24 x    24 x    24 =       13824
InitMesh: Mesh cutoff (required, used) =   100.000   115.147 Ry

siesta: Eharris(eV) =   -2956.394901


siesta: Eharris(eV) =   -2956.394901


siesta: Atomic forces (eV/Ang):
     1    0.001631    0.000660    0.000334
     2    0.001696    0.000813    0.000562
     3    0.000072    0.000119    0.000152
     4    0.000242   -0.000223    0.000038
     5    0.111621   -0.251206    0.000655
     6    0.000071    0.149909   -0.230596
     7   -0.112667    0.101052    0.229501
     8   -0.113068    0.250660    0.000891
     9   -0.000161   -0.151353    0.229348
    10    0.111416   -0.099438   -0.230832
----------------------------------------
   Tot    0.000852    0.000994    0.000053
----------------------------------------
   Max    0.251206
   Res    0.122950    sqrt( Sum f_i^2 / 3N )
----------------------------------------
   Max    0.251206    constrained

Stress-tensor-Voigt (kbar):     -916.41     -935.10     -937.74       10.44        3.05        6.83
(Free)E + p*V (eV/cell)    -2903.8843
Target enthalpy (eV/cell)    -2901.6008

siesta: Stress tensor (static) (eV/Ang**3):
        -0.571975    0.006515    0.004264
         0.006515   -0.583638    0.001905
         0.004264    0.001905   -0.585288

siesta: Pressure (static):        929.75385476  kBar

siesta: Stress tensor (total) (eV/Ang**3):
        -0.571975    0.006515    0.004264
         0.006515   -0.583638    0.001905
         0.004264    0.001905   -0.585288

siesta: Pressure (total):        929.75385476  kBar
Cycling the Broyden process...

* Maximum dynamic memory allocated =    10 MB

siesta:                 ==============================
                            Begin CG move =      9
                        ==============================

outcoor: Atomic coordinates (fractional):                   
    0.00000698    0.00000074    0.00000804   1       1  Mg
    0.50000960    0.50000214    0.50000445   1       2  Mg
    0.25000081    0.25000187    0.25000176   2       3  C
   -0.24999655   -0.25000020   -0.24999818   2       4  C
    0.56778913   -0.06778436    0.25000162   3       5  O
    0.24999700    0.56778781   -0.06778571   3       6  O
   -0.06778344    0.25001662    0.56779012   3       7  O
   -0.56778292    0.06778708   -0.25000022   3       8  O
   -0.25000080   -0.56778593    0.06778984   3       9  O
    0.06779112   -0.24998965   -0.56778313   3      10  O
 Kpoints in:          280 . Kpoints trimmed:          280

siesta: k-grid: Number of k-points =   280
siesta: k-grid: Cutoff (effective) =    15.238 Ang
siesta: k-grid: Supercell and displacements
siesta: k-grid:   -8   8   0      0.500
siesta: k-grid:    0   8  -8      0.500
siesta: k-grid:    0   7   0      0.000
Naive supercell factors:     5    5    5

superc: Internal auxiliary supercell:     5 x     5 x     5  =     125
superc: Number of atoms, orbitals, and projectors:   1250  4250 10000

outcell: Unit cell vectors (Ang):
        4.342890   -0.256826   -0.168121
        2.704469    3.407698   -0.168117
        2.704470    1.209171    3.190411

outcell: Cell vector modules (Ang)   :    4.353725    4.353713    4.353730
outcell: Cell angles (23,13,12) (deg):     54.9033     54.9033     54.9032
outcell: Cell volume (Ang**3)        :     51.4309
New_DM. Step:    10
Initializing Density Matrix...

InitMesh: MESH =    24 x    24 x    24 =       13824
InitMesh: Mesh cutoff (required, used) =   100.000   117.193 Ry

siesta: Eharris(eV) =   -2955.520095


siesta: Eharris(eV) =   -2955.520095


siesta: Atomic forces (eV/Ang):
     1   -0.002180   -0.000976   -0.000651
     2   -0.002307   -0.001072   -0.000565
     3    0.000256    0.000152    0.000113
     4    0.000354    0.000051    0.000047
     5   -0.057112    0.130181   -0.000747
     6    0.000228   -0.076889    0.119383
     7    0.058300   -0.052414   -0.118686
     8    0.058897   -0.129306   -0.000585
     9    0.000117    0.078800   -0.118117
    10   -0.057750    0.051748    0.119180
----------------------------------------
   Tot   -0.001196    0.000274   -0.000630
----------------------------------------
   Max    0.130181
   Res    0.063557    sqrt( Sum f_i^2 / 3N )
----------------------------------------
   Max    0.130181    constrained

Stress-tensor-Voigt (kbar):    -1005.76    -1015.22    -1016.58        5.30        1.54        3.46
(Free)E + p*V (eV/cell)    -2900.4481
Target enthalpy (eV/cell)    -2900.8500

siesta: Stress tensor (static) (eV/Ang**3):
        -0.627739    0.003306    0.002160
         0.003306   -0.633647    0.000964
         0.002160    0.000964   -0.634491

siesta: Pressure (static):       1012.52070915  kBar

siesta: Stress tensor (total) (eV/Ang**3):
        -0.627739    0.003306    0.002160
         0.003306   -0.633647    0.000964
         0.002160    0.000964   -0.634491

siesta: Pressure (total):       1012.52070915  kBar
Cycling the Broyden process...

* Maximum dynamic memory allocated =    10 MB

siesta:                 ==============================
                            Begin CG move =     10
                        ==============================

outcoor: Atomic coordinates (fractional):                   
    0.00000611   -0.00000048    0.00000726   1       1  Mg
    0.50000883    0.50000091    0.50000342   1       2  Mg
    0.25000098    0.25000212    0.25000201   2       3  C
   -0.24999619   -0.25000005   -0.24999793   2       4  C
    0.56684719   -0.06684134    0.25000172   3       5  O
    0.24999693    0.56684588   -0.06684278   3       6  O
   -0.06684083    0.25001718    0.56684774   3       7  O
   -0.56683967    0.06684526   -0.25000006   3       8  O
   -0.25000078   -0.56684285    0.06684813   3       9  O
    0.06684906   -0.24998910   -0.56684027   3      10  O
 Kpoints in:          280 . Kpoints trimmed:          280

siesta: k-grid: Number of k-points =   280
siesta: k-grid: Cutoff (effective) =    15.285 Ang
siesta: k-grid: Supercell and displacements
siesta: k-grid:   -8   8   0      0.500
siesta: k-grid:    0   8  -8      0.500
siesta: k-grid:    0   7   0      0.000
Naive supercell factors:     5    5    5

superc: Internal auxiliary supercell:     5 x     5 x     5  =     125
superc: Number of atoms, orbitals, and projectors:   1250  4250 10000

outcell: Unit cell vectors (Ang):
        4.356331   -0.255999   -0.167579
        2.714048    3.417162   -0.167575
        2.714049    1.213453    3.198869

outcell: Cell vector modules (Ang)   :    4.367063    4.367051    4.367069
outcell: Cell angles (23,13,12) (deg):     54.8613     54.8614     54.8612
outcell: Cell volume (Ang**3)        :     51.8464
New_DM. Step:    11
Initializing Density Matrix...

InitMesh: MESH =    24 x    24 x    24 =       13824
InitMesh: Mesh cutoff (required, used) =   100.000   116.413 Ry

siesta: Eharris(eV) =   -2956.097398


siesta: Eharris(eV) =   -2956.097398


siesta: Atomic forces (eV/Ang):
     1   -0.000807   -0.000275   -0.000396
     2   -0.000968   -0.000288   -0.000148
     3    0.000217    0.000123    0.000082
     4    0.000298    0.000018    0.000042
     5    0.085017   -0.188886   -0.000327
     6    0.000176    0.113908   -0.173121
     7   -0.085880    0.074210    0.172233
     8   -0.084153    0.189331   -0.000163
     9    0.000059   -0.112988    0.173695
    10    0.083712   -0.076152   -0.173105
----------------------------------------
   Tot   -0.002328   -0.001000   -0.001208
----------------------------------------
   Max    0.189331
   Res    0.092563    sqrt( Sum f_i^2 / 3N )
----------------------------------------
   Max    0.189331    constrained

Stress-tensor-Voigt (kbar):     -949.54     -958.69     -959.99        5.16        1.52        3.36
(Free)E + p*V (eV/cell)    -2902.8112
Target enthalpy (eV/cell)    -2901.3897

siesta: Stress tensor (static) (eV/Ang**3):
        -0.592649    0.003219    0.002100
         0.003219   -0.598363    0.000947
         0.002100    0.000947   -0.599170

siesta: Pressure (static):        956.07287069  kBar

siesta: Stress tensor (total) (eV/Ang**3):
        -0.592649    0.003219    0.002100
         0.003219   -0.598363    0.000947
         0.002100    0.000947   -0.599170

siesta: Pressure (total):        956.07287069  kBar
Cycling the Broyden process...

* Maximum dynamic memory allocated =    10 MB

siesta:                 ==============================
                            Begin CG move =     11
                        ==============================

outcoor: Atomic coordinates (fractional):                   
    0.00000391   -0.00000252    0.00000483   1       1  Mg
    0.50000621    0.49999857    0.50000115   1       2  Mg
    0.25000151    0.25000271    0.25000259   2       3  C
   -0.24999544   -0.24999955   -0.24999737   2       4  C
    0.56752476   -0.06751625    0.25000203   3       5  O
    0.24999726    0.56752336   -0.06751800   3       6  O
   -0.06751966    0.25001285    0.56751950   3       7  O
   -0.56751485    0.06752264   -0.24999961   3       8  O
   -0.25000075   -0.56751808    0.06752560   3       9  O
    0.06752351   -0.24999121   -0.56751760   3      10  O
 Kpoints in:          280 . Kpoints trimmed:          280

siesta: k-grid: Number of k-points =   280
siesta: k-grid: Cutoff (effective) =    15.223 Ang
siesta: k-grid: Supercell and displacements
siesta: k-grid:   -8   8   0      0.500
siesta: k-grid:    0   8  -8      0.500
siesta: k-grid:    0   7   0      0.000
Naive supercell factors:     5    5    5

superc: Internal auxiliary supercell:     5 x     5 x     5  =     125
superc: Number of atoms, orbitals, and projectors:   1250  4250 10000

outcell: Unit cell vectors (Ang):
        4.338380   -0.259991   -0.170191
        2.699103    3.406439   -0.170188
        2.699105    1.206768    3.190085

outcell: Cell vector modules (Ang)   :    4.349494    4.349476    4.349494
outcell: Cell angles (23,13,12) (deg):     54.9923     54.9923     54.9922
outcell: Cell volume (Ang**3)        :     51.4039
New_DM. Step:    12
Initializing Density Matrix...

InitMesh: MESH =    24 x    24 x    24 =       13824
InitMesh: Mesh cutoff (required, used) =   100.000   117.560 Ry

siesta: Eharris(eV) =   -2955.491100


siesta: Eharris(eV) =   -2955.491100


siesta: Atomic forces (eV/Ang):
     1    0.000521    0.000953   -0.001187
     2   -0.000063    0.001545    0.000285
     3    0.000211   -0.000097   -0.000155
     4    0.000054   -0.000022    0.000150
     5   -0.019056    0.040710    0.000410
     6    0.000064   -0.025521    0.037557
     7   -0.022930   -0.054913   -0.020170
     8    0.017332   -0.041224    0.000673
     9   -0.000146    0.024405   -0.038692
    10   -0.046278   -0.034424    0.025507
----------------------------------------
   Tot   -0.070292   -0.088588    0.004379
----------------------------------------
   Max    0.054913
   Res    0.023170    sqrt( Sum f_i^2 / 3N )
----------------------------------------
   Max    0.054913    constrained

Stress-tensor-Voigt (kbar):    -1035.38    -1027.51    -1022.12       -8.63       -1.57       -3.06
(Free)E + p*V (eV/cell)    -2899.9440
Target enthalpy (eV/cell)    -2900.8532

siesta: Stress tensor (static) (eV/Ang**3):
        -0.646227   -0.005385   -0.001910
        -0.005385   -0.641317   -0.000977
        -0.001910   -0.000977   -0.637952

siesta: Pressure (static):       1028.33880399  kBar

siesta: Stress tensor (total) (eV/Ang**3):
        -0.646227   -0.005385   -0.001910
        -0.005385   -0.641317   -0.000977
        -0.001910   -0.000977   -0.637952

siesta: Pressure (total):       1028.33880399  kBar
Cycling the Broyden process...

* Maximum dynamic memory allocated =    10 MB

siesta:                 ==============================
                            Begin CG move =     12
                        ==============================

outcoor: Atomic coordinates (fractional):                   
    0.00000420   -0.00000227    0.00000514   1       1  Mg
    0.50000655    0.49999886    0.50000144   1       2  Mg
    0.25000146    0.25000265    0.25000254   2       3  C
   -0.24999550   -0.24999960   -0.24999742   2       4  C
    0.56749131   -0.06748303    0.25000201   3       5  O
    0.24999722    0.56748991   -0.06748477   3       6  O
   -0.06748558    0.25001402    0.56748683   3       7  O
   -0.56748163    0.06748917   -0.24999965   3       8  O
   -0.25000077   -0.56748487    0.06749214   3       9  O
    0.06749063   -0.24999025   -0.56748364   3      10  O
 Kpoints in:          280 . Kpoints trimmed:          280

siesta: k-grid: Number of k-points =   280
siesta: k-grid: Cutoff (effective) =    15.223 Ang
siesta: k-grid: Supercell and displacements
siesta: k-grid:   -8   8   0      0.500
siesta: k-grid:    0   8  -8      0.500
siesta: k-grid:    0   7   0      0.000
Naive supercell factors:     5    5    5

superc: Internal auxiliary supercell:     5 x     5 x     5  =     125
superc: Number of atoms, orbitals, and projectors:   1250  4250 10000

outcell: Unit cell vectors (Ang):
        4.338430   -0.260177   -0.170311
        2.698998    3.406596   -0.170308
        2.699001    1.206720    3.190282

outcell: Cell vector modules (Ang)   :    4.349560    4.349539    4.349560
outcell: Cell angles (23,13,12) (deg):     54.9970     54.9970     54.9969
outcell: Cell volume (Ang**3)        :     51.4127
New_DM. Step:    13
Initializing Density Matrix...

InitMesh: MESH =    24 x    24 x    24 =       13824
InitMesh: Mesh cutoff (required, used) =   100.000   117.564 Ry

siesta: Eharris(eV) =   -2955.504257


siesta: Eharris(eV) =   -2955.504257


siesta: Atomic forces (eV/Ang):
     1    0.000414    0.000764   -0.000974
     2   -0.000062    0.001239    0.000243
     3    0.000229   -0.000070   -0.000145
     4    0.000080    0.000004    0.000154
     5   -0.016421    0.036124    0.000391
     6    0.000090   -0.022169    0.032637
     7   -0.025214   -0.052594   -0.015538
     8    0.015638   -0.036250    0.000655
     9   -0.000095    0.021282   -0.033515
    10   -0.043899   -0.036212    0.020680
----------------------------------------
   Tot   -0.069240   -0.087883    0.004588
----------------------------------------
   Max    0.052594
   Res    0.021276    sqrt( Sum f_i^2 / 3N )
----------------------------------------
   Max    0.052594    constrained

Stress-tensor-Voigt (kbar):    -1034.55    -1026.80    -1021.48       -8.56       -1.52       -3.01
(Free)E + p*V (eV/cell)    -2899.9803
Target enthalpy (eV/cell)    -2900.8663

siesta: Stress tensor (static) (eV/Ang**3):
        -0.645705   -0.005342   -0.001879
        -0.005342   -0.640874   -0.000952
        -0.001879   -0.000952   -0.637553

siesta: Pressure (static):       1027.61065381  kBar

siesta: Stress tensor (total) (eV/Ang**3):
        -0.645705   -0.005342   -0.001879
        -0.005342   -0.640874   -0.000952
        -0.001879   -0.000952   -0.637553

siesta: Pressure (total):       1027.61065381  kBar
Cycling the Broyden process...

* Maximum dynamic memory allocated =    10 MB

siesta:                 ==============================
                            Begin CG move =     13
                        ==============================

outcoor: Atomic coordinates (fractional):                   
    0.00000381   -0.00000230    0.00000430   1       1  Mg
    0.50000572    0.49999881    0.50000105   1       2  Mg
    0.25000148    0.25000264    0.25000256   2       3  C
   -0.24999545   -0.24999964   -0.24999742   2       4  C
    0.56735924   -0.06735360    0.25000083   3       5  O
    0.24999719    0.56735810   -0.06735291   3       6  O
   -0.06735315    0.25001469    0.56735597   3       7  O
   -0.56735201    0.06735739   -0.25000065   3       8  O
   -0.25000086   -0.56735311    0.06735995   3       9  O
    0.06735984   -0.24998955   -0.56735117   3      10  O
 Kpoints in:          280 . Kpoints trimmed:          280

siesta: k-grid: Number of k-points =   280
siesta: k-grid: Cutoff (effective) =    15.232 Ang
siesta: k-grid: Supercell and displacements
siesta: k-grid:    0   8  -8      0.500
siesta: k-grid:   -8   8   0      0.500
siesta: k-grid:    0   7   0      0.000
Naive supercell factors:     5    5    5

superc: Internal auxiliary supercell:     5 x     5 x     5  =     125
superc: Number of atoms, orbitals, and projectors:   1250  4250 10000

outcell: Unit cell vectors (Ang):
        4.341019   -0.259730   -0.170014
        2.701057    3.408219   -0.170008
        2.701064    1.207641    3.191653

outcell: Cell vector modules (Ang)   :    4.352105    4.352076    4.352102
outcell: Cell angles (23,13,12) (deg):     54.9812     54.9812     54.9812
outcell: Cell volume (Ang**3)        :     51.4811
New_DM. Step:    14
Initializing Density Matrix...

InitMesh: MESH =    24 x    24 x    24 =       13824
InitMesh: Mesh cutoff (required, used) =   100.000   117.402 Ry

siesta: Eharris(eV) =   -2955.600673


siesta: Eharris(eV) =   -2955.600673


siesta: Atomic forces (eV/Ang):
     1    0.000391    0.000785   -0.000191
     2    0.000308    0.000656    0.000583
     3    0.000296   -0.000369   -0.000066
     4   -0.000073    0.000378   -0.000055
     5   -0.003771    0.008935    0.000069
     6    0.000069   -0.005733    0.007235
     7    0.004251   -0.003038   -0.007293
     8    0.003602   -0.008926    0.000473
     9   -0.000095    0.004595   -0.008029
    10   -0.003754    0.003904    0.007348
----------------------------------------
   Tot    0.001225    0.001188    0.000073
----------------------------------------
   Max    0.008935
   Res    0.004178    sqrt( Sum f_i^2 / 3N )
----------------------------------------
   Max    0.008935    constrained

Stress-tensor-Voigt (kbar):    -1015.32    -1005.32    -1003.88       -5.60       -1.64       -3.64
(Free)E + p*V (eV/cell)    -2900.6927
Target enthalpy (eV/cell)    -2900.9554

siesta: Stress tensor (static) (eV/Ang**3):
        -0.633708   -0.003498   -0.002274
        -0.003498   -0.627467   -0.001022
        -0.002274   -0.001022   -0.626567

siesta: Pressure (static):       1008.17581289  kBar

siesta: Stress tensor (total) (eV/Ang**3):
        -0.633708   -0.003498   -0.002274
        -0.003498   -0.627467   -0.001022
        -0.002274   -0.001022   -0.626567

siesta: Pressure (total):       1008.17581289  kBar

* Maximum dynamic memory allocated =    10 MB

outcoor: Relaxed atomic coordinates (fractional):           
    0.00000381   -0.00000230    0.00000430   1       1  Mg
    0.50000572    0.49999881    0.50000105   1       2  Mg
    0.25000148    0.25000264    0.25000256   2       3  C
   -0.24999545   -0.24999964   -0.24999742   2       4  C
    0.56735924   -0.06735360    0.25000083   3       5  O
    0.24999719    0.56735810   -0.06735291   3       6  O
   -0.06735315    0.25001469    0.56735597   3       7  O
   -0.56735201    0.06735739   -0.25000065   3       8  O
   -0.25000086   -0.56735311    0.06735995   3       9  O
    0.06735984   -0.24998955   -0.56735117   3      10  O

outcell: Unit cell vectors (Ang):
        4.341019   -0.259730   -0.170014
        2.701057    3.408219   -0.170008
        2.701064    1.207641    3.191653

outcell: Cell vector modules (Ang)   :    4.352105    4.352076    4.352102
outcell: Cell angles (23,13,12) (deg):     54.9812     54.9812     54.9812
outcell: Cell volume (Ang**3)        :     51.4811

siesta: Program's energy decomposition (eV):
siesta: Eions   =      5228.674091
siesta: Ena     =      1067.411929
siesta: Ekin    =      2502.716723
siesta: Enl     =      -410.855852
siesta: DEna    =      -141.871240
siesta: DUscf   =        27.613166
siesta: DUext   =         0.000000
siesta: Exc     =      -749.427667
siesta: eta*DQ  =         0.000000
siesta: Emadel  =         0.000000
siesta: Emeta   =         0.000000
siesta: Emolmec =         0.000000
siesta: Ekinion =         0.000000
siesta: Eharris =     -2955.600673
siesta: Etot    =     -2933.087033
siesta: FreeEng =     -2933.087033

siesta: Final energy (eV):
siesta:       Kinetic =    2502.716723
siesta:       Hartree =     684.247466
siesta:    Ext. field =       0.000000
siesta:   Exch.-corr. =    -749.427667
siesta:  Ion-electron =   -3545.276701
siesta:       Ion-ion =   -1825.346854
siesta:       Ekinion =       0.000000
siesta:         Total =   -2933.087033

siesta: Stress tensor (static) (eV/Ang**3):
siesta:    -0.633708   -0.003498   -0.002274
siesta:    -0.003498   -0.627467   -0.001022
siesta:    -0.002274   -0.001022   -0.626567

siesta: Constrained stress tensor (static) (eV/Ang**3):
siesta:    -0.633708   -0.003498   -0.002274
siesta:    -0.003498   -0.627467   -0.001022
siesta:    -0.002274   -0.001022   -0.626567

siesta: Cell volume =         51.481135 Ang**3

siesta: Pressure (static):
siesta:                Solid            Molecule  Units
siesta:           0.00685330          0.00685792  Ry/Bohr**3
siesta:           0.62924705          0.62967071  eV/Ang**3
siesta:        1008.17581289       1008.85459984  kBar
(Free)E+ p_basis*V_orbitals  =       -2931.892736
(Free)Eharris+ p_basis*V_orbitals  =       -2877.158595

* Maximum dynamic memory allocated : Node    0 =    10 MB
* Maximum dynamic memory allocated : Node    1 =    10 MB
* Maximum dynamic memory allocated : Node    2 =    10 MB
* Maximum dynamic memory allocated : Node    3 =     9 MB

* Maximum memory occured during ranger                        

timer: CPU execution times:
timer:  Routine       Calls   Time/call    Tot.time        %
timer:  siesta            1     196.341     196.341   100.00
timer:  Setup             1       1.268       1.268     0.65
timer:  bands             1       0.000       0.000     0.00
timer:  writewave         1       0.004       0.004     0.00
timer:  KSV_init          1       0.000       0.000     0.00
timer:  IterMD           14      13.917     194.841    99.24
timer:  hsparse          14       0.078       1.094     0.56
timer:  overlap          14       0.019       0.269     0.14
timer:  IterSCF          14      10.788     151.038    76.93
timer:  kinefsm          28       0.013       0.361     0.18
timer:  nlefsm           28       0.941      26.342    13.42
timer:  DHSCF            28       1.292      36.187    18.43
timer:  DHSCF1           14       0.397       5.563     2.83
timer:  DHSCF2           14       1.330      18.617     9.48
timer:  REORD           252       0.000       0.011     0.01
timer:  POISON           42       0.006       0.273     0.14
timer:  DHSCF3           28       0.182       5.104     2.60
timer:  rhoofd           28       0.083       2.337     1.19
timer:  cellXC           42       0.008       0.328     0.17
timer:  vmat             28       0.078       2.195     1.12
timer:  MolMec           28       0.000       0.000     0.00
timer:  diagon           14       7.341     102.771    52.34
timer:  c-eigval       3682       0.012      42.349    21.57
timer:  c-buildHS      3682       0.001       3.140     1.60
timer:  cdiag          7364       0.012      87.661    44.65
timer:  cdiag1         7364       0.001       4.625     2.36
timer:  cdiag2         7364       0.002      11.231     5.72
timer:  cdiag3         7364       0.009      62.847    32.01
timer:  cdiag4         7364       0.000       2.728     1.39
timer:  c-eigvec       3682       0.014      51.481    26.22
timer:  c-buildD       3682       0.002       8.773     4.47
timer:  DHSCF4           14       0.492       6.884     3.51
timer:  dfscf            14       0.220       3.081     1.57
timer:  overfsm          14       0.010       0.141     0.07
timer:  optical           1       0.173       0.173     0.09
  

elaps: ELAPSED times:
elaps:  Routine       Calls   Time/call    Tot.time        %
elaps:  siesta            1      49.232      49.232   100.00
elaps:  Setup             1       0.319       0.319     0.65
elaps:  bands             1       0.000       0.000     0.00
elaps:  writewave         1       0.001       0.001     0.00
elaps:  KSV_init          1       0.000       0.000     0.00
elaps:  IterMD           14       3.490      48.855    99.23
elaps:  hsparse          14       0.024       0.338     0.69
elaps:  overlap          14       0.005       0.074     0.15
elaps:  IterSCF          14       2.687      37.618    76.41
elaps:  kinefsm          28       0.004       0.103     0.21
elaps:  nlefsm           28       0.350       9.811    19.93
elaps:  DHSCF            28       0.325       9.088    18.46
elaps:  DHSCF1           14       0.099       1.391     2.83
elaps:  DHSCF2           14       0.333       4.656     9.46
elaps:  REORD           252       0.000       0.003     0.01
elaps:  POISON           42       0.002       0.068     0.14
elaps:  DHSCF3           28       0.046       1.276     2.59
elaps:  rhoofd           28       0.022       0.612     1.24
elaps:  cellXC           42       0.002       0.086     0.17
elaps:  vmat             28       0.020       0.547     1.11
elaps:  MolMec           28       0.000       0.000     0.00
elaps:  diagon           14       1.840      25.762    52.33
elaps:  c-eigval       3682       0.003      10.588    21.51
elaps:  c-buildHS      3682       0.000       1.036     2.10
elaps:  cdiag          7364       0.003      20.859    42.37
elaps:  cdiag1         7364       0.000       1.172     2.38
elaps:  cdiag2         7364       0.000       2.620     5.32
elaps:  cdiag3         7364       0.002      15.893    32.28
elaps:  cdiag4         7364       0.000       0.707     1.44
elaps:  c-eigvec       3682       0.003      12.365    25.12
elaps:  c-buildD       3682       0.001       2.475     5.03
elaps:  DHSCF4           14       0.126       1.762     3.58
elaps:  dfscf            14       0.057       0.796     1.62
elaps:  overfsm          14       0.003       0.042     0.08
elaps:  optical           1       0.000       0.000     0.00
  
>> End of run:  29-SEP-2009  17:12:01
