Siesta Version  : siesta-4.0--578
Architecture    : x86_64-linux-n-62-25-35
Compiler version: GNU Fortran (GCC) 7.3.0
Compiler flags  : mpif90 -m64 -fPIC -O3 -march=native -ftree-vectorize -fexpensive-optimizationns -funroll-loops -fprefetch-loop-arrays -fno-second-underscore
PP flags        : -I/zdata/groups/common/nicpa/2018-feb/generic/build-tools/1.0/include -I/zdatta/groups/common/nicpa/2018-feb/generic/gcc/7.3.0/include -I/zdata/groups/common/nicpa/2018-feb/generic/gcc/7.3.0/include -I/zdata/groups/common/nicpa/2018-feb/XeonE5-2660v3/zlib/1.2.11/gnu-7.3.0/include -I/zdata/groups/common/nicpa/2018-feb/generic/numactl/2.0.11/include -I/zdata/groups/common/nicpa/2018-feb/XeonE5-2660v3/libxml2/2.9.7/gnu-7.3.0/include -I/zdata/groups/common/nicpa/2018-feb/XeonE5-2660v3/hwloc/1.11.9/gnu-7.3.0/include -I/zdata/groups/common/nicpa/2018-feb/XeonE5-2660v3/openmpi/3.0.0/gnu-7.3.0/include -I/zdata/groups/common/nicpa/2018-feb/XeonE5-2660v3/szip/2.1.1/gnu-7.3.0/include -I/zdata/groups/common/nicpa/2018-feb/XeonE5-2660v3/hdf5-serial/1.8.18/gnu-7.3.0/include -I/zdata/groups/common/nicpa/2018-feb/XeonE5-2660v3/netcdf-serial/4.6.0/gnu-7.3.0/include -I/zdata/groups/common/nicpa/2018-feb/XeonE5-2660v3/scalapack/204/gnu-7.3.0/include -I/zdata/groups/common/nicpa/2018-feb/XeonE5-2660v3/openblas/0.2.20/gnu-7.3.0/include -I/zdata/groups/common/nicpa/2018-feb/XeonE5-2660v3/elpa/2017.05.003/gnu-7.3.0/include -DSIESTA__ELPA -DMPI -D1 -DFC_HAVE_ABORT -DCDF -DSIESTA__MRRR 
PARALLEL version
NetCDF support

* Running on    8 nodes in parallel
>> Start of run:  10-JUN-2018  22:08:57

                           ***********************       
                           *  WELCOME TO SIESTA  *       
                           ***********************       

reinit: Reading from standard input
************************** Dump of input data file ****************************
SystemName  silicon: occupied bonding wannier functions
SystemLabel wannier
NumberOfAtoms 2
NumberOfSpecies 1
%block ChemicalSpeciesLabel
 1 14 Si
%endblock ChemicalSpeciesLabel
LatticeConstant 5.150 Bohr
%block LatticeVectors
  1.0 0.0 1.0
  0.0 1.0 1.0
  1.0 1.0 0.0
%endblock LatticeVectors
AtomicCoordinatesFormat Fractional
%block AtomicCoordinatesAndAtomicSpecies
 0.75000  0.75000   0.75000 1 Si
 0.00000  0.00000   0.00000 1 Si
%endblock AtomicCoordinatesAndAtomicSpecies
PAO.BasisSize dzp
PAO.EnergyShift 0.25 eV
#PAO.SplitNorm   0.15
XC.functional LDA
XC.authors CA
SpinPolarized          F
SaveHS                 T
AtomCoorFormatOut     Ang
%block kgrid_Monkhorst_Pack
   4  0  0  0.5
   0  4  0  0.5
   0  0  4  0.5
%endblock Kgrid_Monkhorst_Pack
Diag.ParallelOverK	F
MeshCutoff        100 Ry
MaxSCFIterations     20
DM.MixingWeight      0.20
DM.NumberPulay       10
DM.Tolerance         1.d-4
SolutionMethod       diagon
DivideAndConquer     false
#LongOutput .true.
BandLinesScale ReciprocalLatticeVectors
%block BandLines
1   0.500  0.500  0.500 L       # Begin at L
20  0.000  0.000  0.000 \Gamma  # 20 points from L to gamma
20  0.500  0.500  0.000 X
 1  0.000  0.500 -0.500 K
20  0.000  0.000  0.000 \Gamma  # 30 points from X to gamma
%endblock BandLines
Siesta2Wannier90.WriteMmn       .true.
Siesta2Wannier90.WriteAmn       .true.
Siesta2Wannier90.WriteEig       .true.
Siesta2Wannier90.WriteUnk       .true.
Siesta2Wannier90.NumberOfBands  4
************************** End of input data file *****************************

reinit: -----------------------------------------------------------------------
reinit: System Name: silicon: occupied bonding wannier functions
reinit: -----------------------------------------------------------------------
reinit: System Label: wannier                                                     
reinit: -----------------------------------------------------------------------

initatom: Reading input for the pseudopotentials and atomic orbitals ----------
 Species number:            1  Label: Si Atomic number:          14
Ground state valence configuration:   3s02  3p02
Reading pseudopotential information in formatted form from Si.psf

Valence configuration for pseudopotential generation:
3s( 2.00) rc: 1.89
3p( 2.00) rc: 1.89
3d( 0.00) rc: 1.89
4f( 0.00) rc: 1.89
For Si, standard SIESTA heuristics set lmxkb to 3
 (one more than the basis l, including polarization orbitals).
Use PS.lmax or PS.KBprojectors blocks to override.

<basis_specs>
===============================================================================
Si                   Z=  14    Mass=  28.090        Charge= 0.17977+309
Lmxo=1 Lmxkb= 3    BasisType=split      Semic=F
L=0  Nsemic=0  Cnfigmx=3
          n=1  nzeta=2  polorb=0
            splnorm:   0.15000    
               vcte:    0.0000    
               rinn:    0.0000    
               qcoe:    0.0000    
               qyuk:    0.0000    
               qwid:   0.10000E-01
                rcs:    0.0000      0.0000    
            lambdas:    1.0000      1.0000    
L=1  Nsemic=0  Cnfigmx=3
          n=1  nzeta=2  polorb=1
            splnorm:   0.15000    
               vcte:    0.0000    
               rinn:    0.0000    
               qcoe:    0.0000    
               qyuk:    0.0000    
               qwid:   0.10000E-01
                rcs:    0.0000      0.0000    
            lambdas:    1.0000      1.0000    
-------------------------------------------------------------------------------
L=0  Nkbl=1  erefs: 0.17977+309
L=1  Nkbl=1  erefs: 0.17977+309
L=2  Nkbl=1  erefs: 0.17977+309
L=3  Nkbl=1  erefs: 0.17977+309
===============================================================================
</basis_specs>

atom: Called for Si                    (Z =  14)

read_vps: Pseudopotential generation method:
read_vps: ATM3      Troullier-Martins                       
Total valence charge:    4.00000

xc_check: Exchange-correlation functional:
xc_check: Ceperley-Alder
V l=0 = -2*Zval/r beyond r=  2.5494
V l=1 = -2*Zval/r beyond r=  2.5494
V l=2 = -2*Zval/r beyond r=  2.5494
V l=3 = -2*Zval/r beyond r=  2.5494
All V_l potentials equal beyond r=  1.8652
This should be close to max(r_c) in ps generation
All pots = -2*Zval/r beyond r=  2.5494
Using large-core scheme for Vlocal

atom: Estimated core radius    2.54944

atom: Including non-local core corrections could be a good idea
atom: Maximum radius for 4*pi*r*r*local-pseudopot. charge    2.85303
atom: Maximum radius for r*vlocal+2*Zval:    2.58151
GHOST: No ghost state for L =  0
GHOST: No ghost state for L =  1
GHOST: No ghost state for L =  2
GHOST: No ghost state for L =  3

KBgen: Kleinman-Bylander projectors: 
   l= 0   rc=  1.936440   el= -0.796617   Ekb=  4.661340   kbcos=  0.299756
   l= 1   rc=  1.936440   el= -0.307040   Ekb=  1.494238   kbcos=  0.301471
   l= 2   rc=  1.936440   el=  0.002313   Ekb= -2.808672   kbcos= -0.054903
   l= 3   rc=  1.936440   el=  0.003402   Ekb= -0.959059   kbcos= -0.005513

KBgen: Total number of  Kleinman-Bylander projectors:   16
atom: -------------------------------------------------------------------------

atom: SANKEY-TYPE ORBITALS:
atom: Selected multiple-zeta basis: split     

SPLIT: Orbitals with angular momentum L= 0

SPLIT: Basis orbitals for state 3s

SPLIT: PAO cut-off radius determined from an
SPLIT: energy shift=  0.018374 Ry

   izeta = 1
                 lambda =    1.000000
                     rc =    5.007352
                 energy =   -0.777669
                kinetic =    0.573829
    potential(screened) =   -1.351499
       potential(ionic) =   -3.827441

   izeta = 2
                 rmatch =    4.418952
              splitnorm =    0.150000
                 energy =   -0.680439
                kinetic =    0.874546
    potential(screened) =   -1.554985
       potential(ionic) =   -4.135799

SPLIT: Orbitals with angular momentum L= 1

SPLIT: Basis orbitals for state 3p

SPLIT: PAO cut-off radius determined from an
SPLIT: energy shift=  0.018374 Ry

   izeta = 1
                 lambda =    1.000000
                     rc =    6.270866
                 energy =   -0.288955
                kinetic =    0.877930
    potential(screened) =   -1.166885
       potential(ionic) =   -3.426998

   izeta = 2
                 rmatch =    5.007352
              splitnorm =    0.150000
                 energy =   -0.194156
                kinetic =    1.273806
    potential(screened) =   -1.467962
       potential(ionic) =   -3.922332

POLgen: Perturbative polarization orbital with L=  2

POLgen: Polarization orbital for state 3p

   izeta = 1
                     rc =    6.270866
                 energy =    0.431831
                kinetic =    1.297098
    potential(screened) =   -0.865267
       potential(ionic) =   -2.930588
atom: Total number of Sankey-type orbitals: 13

atm_pop: Valence configuration (for local Pseudopot. screening):
 3s( 2.00)                                                            
 3p( 2.00)                                                            
Vna: chval, zval:    4.00000   4.00000

Vna:  Cut-off radius for the neutral-atom potential:   6.270866

atom: _________________________________________________________________________

prinput: Basis input ----------------------------------------------------------

PAO.BasisType split     

%block ChemicalSpeciesLabel
    1   14 Si                      # Species index, atomic number, species label
%endblock ChemicalSpeciesLabel

%block PAO.Basis                 # Define Basis set
Si                    2                    # Species label, number of l-shells
 n=3   0   2                         # n, l, Nzeta 
   5.007      4.419   
   1.000      1.000   
 n=3   1   2 P   1                   # n, l, Nzeta, Polarization, NzetaPol
   6.271      5.007   
   1.000      1.000   
%endblock PAO.Basis

prinput: ----------------------------------------------------------------------

Dumping basis to NetCDF file Si.ion.nc
coor:   Atomic-coordinates input format  =     Fractional

siesta: Atomic coordinates (Bohr) and species
siesta:      7.72500   7.72500   7.72500  1        1
siesta:      0.00000   0.00000   0.00000  1        2

siesta: System type = bulk      

initatomlists: Number of atoms, orbitals, and projectors:      2    26    32

siesta: ******************** Simulation parameters ****************************
siesta:
siesta: The following are some of the parameters of the simulation.
siesta: A complete list of the parameters used, including default values,
siesta: can be found in file out.fdf
siesta:
redata: Non-Collinear-spin run           =     F
redata: SpinPolarized (Up/Down) run      =     F
redata: Number of spin components        =     1
redata: Long output                      =     F
redata: Number of Atomic Species         =        1
redata: Charge density info will appear in .RHO file
redata: Write Mulliken Pop.              =     NO
redata: Matel table size (NRTAB)         =     1024
redata: Mesh Cutoff                      =   100.0000 Ry
redata: Net charge of the system         =     0.0000 |e|
redata: Min. number of SCF Iter          =        0
redata: Max. number of SCF Iter          =       20
redata: Mix DM or H after convergence    =     F
redata: Recompute H after scf cycle      =     F
redata: Performing Pulay mixing using    =    10 iterations
redata: Mix DM in first SCF step ?       =     F
redata: Write Pulay info on disk?        =     F
redata: Discard 1st Pulay DM after  kick =     F
redata: New DM Mixing Weight             =     0.2000
redata: New DM Occupancy tolerance       = 0.000000000001
redata: No kicks to SCF
redata: DM Mixing Weight for Kicks       =     0.5000
redata: DM Tolerance for SCF             =     0.000100
redata: Require (free) Energy convergence in SCF =     F
redata: DM (free)Energy tolerance for SCF =     0.000010 eV
redata: Require Harris convergence for SCF =     F
redata: DM Harris energy tolerance for SCF =     0.000010 eV
redata: Using Saved Data (generic)   =     F
redata: Use continuation files for DM    =     F
redata: Neglect nonoverlap interactions  =     F
redata: Method of Calculation            =     Diagonalization
redata: Divide and Conquer               =     T
redata: Electronic Temperature           =     0.0019  Ry
redata: Fix the spin of the system       =     F
redata: Dynamics option                  =     Single-point calculation
redata: ***********************************************************************
Total number of electrons:     8.000000
Total ionic charge:     8.000000

* ProcessorY, Blocksize:    2   3


* Orbital distribution balance (max,min):     5     3

 Kpoints in:           32 . Kpoints trimmed:           32

siesta: k-grid: Number of k-points =    32
siesta: k-grid: Cutoff (effective) =     7.708 Ang
siesta: k-grid: Supercell and displacements
siesta: k-grid:    4   0   0      0.500
siesta: k-grid:    0   4   0      0.500
siesta: k-grid:    0   0   4      0.500
Using current reciprocal lattice vectors for BandLinesScale
Beware any cell changes by the end of the run
Using current reciprocal lattice vectors for BandLinesScale
Beware any cell changes by the end of the run
Naive supercell factors:     5    5    5

superc: Internal auxiliary supercell:     5 x     5 x     5  =     125
superc: Number of atoms, orbitals, and projectors:    250   3250   4000

                     ====================================
                        Single-point calculation
                     ====================================

superc: Internal auxiliary supercell:     5 x     5 x     5  =     125
superc: Number of atoms, orbitals, and projectors:    250   3250   4000

outcell: Unit cell vectors (Ang):
        2.725262    0.000000    2.725262
        0.000000    2.725262    2.725262
        2.725262    2.725262    0.000000

outcell: Cell vector modules (Ang)   :    3.854102    3.854102    3.854102
outcell: Cell angles (23,13,12) (deg):     60.0000     60.0000     60.0000
outcell: Cell volume (Ang**3)        :     40.4813
New_DM. Step:     1
Initializing Density Matrix...
New grid distribution:   1
           1       1:   10    1:    5    1:    3
           2       1:   10    1:    5    4:    6
           3       1:   10    1:    5    7:    8
           4       1:   10    1:    5    9:   10
           5       1:   10    6:   10    1:    3
           6       1:   10    6:   10    4:    6
           7       1:   10    6:   10    7:    8
           8       1:   10    6:   10    9:   10

InitMesh: MESH =    20 x    20 x    20 =        8000
InitMesh: (bp) =    10 x    10 x    10 =        1000
InitMesh: Mesh cutoff (required, used) =   100.000   111.637 Ry
ExtMesh (bp) on 0 =    54 x    49 x    47 =      124362
New grid distribution:   2
           1       1:    5    6:   10    6:   10
           2       6:   10    1:    5    1:    5
           3       6:   10    1:    5    6:   10
           4       6:   10    6:   10    1:    5
           5       1:    5    1:    5    6:   10
           6       1:    5    1:    5    1:    5
           7       6:   10    6:   10    6:   10
           8       1:    5    6:   10    1:    5
New grid distribution:   3
           1       1:    5    6:   10    6:   10
           2       6:   10    1:    5    1:    5
           3       6:   10    1:    5    6:   10
           4       6:   10    6:   10    1:    5
           5       1:    5    1:    5    6:   10
           6       1:    5    1:    5    1:    5
           7       6:   10    6:   10    6:   10
           8       1:    5    6:   10    1:    5
Setting up quadratic distribution...
ExtMesh (bp) on 0 =    49 x    49 x    49 =      117649
PhiOnMesh: Number of (b)points on node 0 =                  125
PhiOnMesh: nlist on node 0 =                10956

stepf: Fermi-Dirac step function

siesta: Program's energy decomposition (eV):
siesta: Ebs     =       -76.114923
siesta: Eions   =       380.802124
siesta: Ena     =       115.661113
siesta: Ekin    =        78.997045
siesta: Enl     =        35.729615
siesta: DEna    =        -0.000000
siesta: DUscf   =         0.000000
siesta: DUext   =         0.000000
siesta: Exc     =       -64.416978
siesta: eta*DQ  =         0.000000
siesta: Emadel  =         0.000000
siesta: Emeta   =         0.000000
siesta: Emolmec =         0.000000
siesta: Ekinion =         0.000000
siesta: Eharris =      -215.508999
siesta: Etot    =      -214.831328
siesta: FreeEng =      -214.831328

   scf: iscf   Eharris(eV)      E_KS(eV)   FreeEng(eV)    dDmax  Ef(eV)
   scf:    1     -215.5090     -214.8313     -214.8313  1.81680 -4.1206
timer: Routine,Calls,Time,% =    IterSCF     1       0.217  17.46
   scf:    2     -215.4699     -215.4654     -215.4654  0.01613 -3.9846
   scf:    3     -215.4695     -215.4613     -215.4613  0.00966 -3.9930
   scf:    4     -215.4690     -215.4686     -215.4686  0.00038 -4.0125
   scf:    5     -215.4690     -215.4689     -215.4689  0.00032 -4.0128
   scf:    6     -215.4690     -215.4690     -215.4690  0.00002 -4.0126

SCF Convergence by dMax criterion
max |DM_out - DM_in|:     0.00001942
SCF cycle converged after    6 iterations

Using DM_out to compute the final energy and forces

siesta: E_KS(eV) =             -215.4690

siesta: E_KS - E_eggbox =      -215.4690

siesta: Atomic forces (eV/Ang):
----------------------------------------
   Tot    0.000000    0.000000    0.000000
----------------------------------------
   Max    0.020993
   Res    0.020993    sqrt( Sum f_i^2 / 3N )
----------------------------------------
   Max    0.020993    constrained

Stress-tensor-Voigt (kbar):       20.15       20.15       20.15       10.25       10.25       10.25
(Free)E + p*V (eV/cell)     -215.9781
Target enthalpy (eV/cell)     -215.4690
Computing bands...

siesta: Program's energy decomposition (eV):
siesta: Ebs     =       -75.097054
siesta: Eions   =       380.802124
siesta: Ena     =       115.661113
siesta: Ekin    =        81.227816
siesta: Enl     =        29.186258
siesta: DEna    =         3.921390
siesta: DUscf   =         0.266874
siesta: DUext   =         0.000000
siesta: Exc     =       -64.930335
siesta: eta*DQ  =         0.000000
siesta: Emadel  =         0.000000
siesta: Emeta   =         0.000000
siesta: Emolmec =         0.000000
siesta: Ekinion =         0.000000
siesta: Eharris =      -215.469008
siesta: Etot    =      -215.469008
siesta: FreeEng =      -215.469008

siesta: Final energy (eV):
siesta:  Band Struct. =     -75.097054
siesta:       Kinetic =      81.227816
siesta:       Hartree =      14.880968
siesta:    Ext. field =       0.000000
siesta:   Exch.-corr. =     -64.930335
siesta:  Ion-electron =    -101.424943
siesta:       Ion-ion =    -145.222515
siesta:       Ekinion =       0.000000
siesta:         Total =    -215.469008

siesta: Stress tensor (static) (eV/Ang**3):
siesta:     0.012575    0.006398    0.006398
siesta:     0.006398    0.012575    0.006398
siesta:     0.006398    0.006398    0.012575

siesta: Cell volume =         40.481310 Ang**3

siesta: Pressure (static):
siesta:                Solid            Molecule  Units
siesta:          -0.00013696         -0.00011387  Ry/Bohr**3
siesta:          -0.01257529         -0.01045538  eV/Ang**3
siesta:         -20.14804572        -16.75154054  kBar
(Free)E+ p_basis*V_orbitals  =        -214.181888
(Free)Eharris+ p_basis*V_orbitals  =        -214.181888

siesta2wannier90: Reading the wannier.nnkp file

read_nnkp: Checking info from the wannier.nnkp file
read_nnkp: Reading data about real lattice
read_nnkp:      - Real lattice is ok
read_nnkp: Reading data about reciprocal lattice
read_nnkp:      - Reciprocal lattice is ok
read_nnkp: Reading data about k-points
read_nnkp: Reading data about projection centers 
read_nnkp: Reading data about k-point neighbours 
read_nnkp: Reading data about excluded bands 

noccbands: Total number of electrons     8
noccbands: Number of occupied bands     4
number_bands_wannier: Number of bands for wannierization   
number_bands_wannier: before excluding bands             =     4    0

Number of bands for wannierization after excluding bands:    4    0
Bands to be wannierized: 
    1    2    3    4

compute_pw_matrix: Computing the matrix elements of a plane wave

mmn: Overlap matrices between periodic part of wavefunctions
mmn: written in wannier.mmn file


amn: Overlap matrices between trial projection functions and wavefunctions
amn: written in wannier.amn file

eig: Eigenvalues of the Hamiltonian 
eig: written in wannier.eigW file

siesta2wannier90: All the information dumped in the corresponding files
siesta2wannier90: End of the interface between Siesta and Wannier90
>> End of run:  10-JUN-2018  22:09:08
Job completed
