Siesta Version: siesta-4.0--527
Architecture  : x86_64-linux-n-62-18-14
Compiler flags: mpifort -m64 -fPIC -O3 -march=native -ftree-vectorize -fexpensive-optimizatioons -funroll-loops -fprefetch-loop-arrays -fno-second-underscore 
PP flags      : -I/zdata/groups/common/nicpa/2016-oct/generic/build-tools/1.0/include -I/zdatta/groups/common/nicpa/2016-oct/generic/gmp/6.1.0/include -I/zdata/groups/common/nicpa/2016-oct/generic/mpfr/3.1.4/include -I/zdata/groups/common/nicpa/2016-oct/generic/mpc/1.0.3/include -I/zdata/groups/common/nicpa/2016-oct/generic/isl/0.16.1/include -I/zdata/groups/common/nicpa/2016-oct/generic/gcc/6.2.0/include -I/zdata/groups/common/nicpa/2016-oct/generic/numactl/2.0.11/include -I/zdata/groups/common/nicpa/2016-oct/XeonE5-2665/zlib/1.2.8/gnu-6.2.0/include -I/zdata/groups/common/nicpa/2016-oct/XeonE5-2665/libxml2/2.9.4/gnu-6.2.0/include -I/zdata/groups/common/nicpa/2016-oct/XeonE5-2665/hwloc/1.11.4/gnu-6.2.0/include -I/zdata/groups/common/nicpa/2016-oct/XeonE5-2665/openmpi/2.0.1/gnu-6.2.0/include -I/zdata/groups/common/nicpa/2016-oct/XeonE5-2665/hdf5/1.8.17/gnu-6.2.0/include -I/zdata/groups/common/nicpa/2016-oct/XeonE5-2665/pnetcdf/1.7.0/gnu-6.2.0/include -I/zdata/groups/common/nicpa/2016-oct/XeonE5-2665/netcdf/4.4.1/gnu-6.2.0/include -I/zdata/groups/common/nicpa/2016-oct/XeonE5-2665/flook/0.7.0/gnu-6.2.0/include -I/zdata/groups/common/nicpa/2016-oct/XeonE5-2665/parmetis/4.0.3/gnu-6.2.0/include -I/zdata/groups/common/nicpa/2016-oct/XeonE5-2665/scalapack/204/gnu-6.2.0/include -I/zdata/groups/common/nicpa/2016-oct/XeonE5-2665/openblas/0.2.19/gnu-6.2.0/include -I/zdata/groups/common/nicpa/2016-oct/XeonE5-2665/mumps/5.0.2/gnu-6.2.0/include -I/zdata/groups/common/nicpa/2016-oct/XeonE5-2665/fftw/3.3.5/gnu-6.2.0/include -DMPI -DFC_HAVE_FLUSH -DFC_HAVE_ABORT -DCDF  -DSIESTA__METIS -DSIESTA__MUMPS -DTS_NOCHECKS -DSIESTA__FLOOK  
PARALLEL version
NetCDF support

* Running on    8 nodes in parallel
>> Start of run:   2-JUL-2017  11:56:15

                           ***********************       
                           *  WELCOME TO SIESTA  *       
                           ***********************       

reinit: Reading from standard input
************************** Dump of input data file ****************************
# A convoluted example of zmatrix input, for testing
SystemName zmatrix
SystemLabel zmatrix
NumberOfSpecies 3
NumberOfAtoms   8
%block ChemicalSpeciesLabel
1    8 O
2    1 H
3   14 Si
%endblock ChemicalSpeciesLabel
WriteCoor T
WriteForces T
LatticeConstant 1.0 Ang
%block LatticeVectors
8.0 2.0 1.0
0.5 8 0.9
1 2.5 8
%endblock LatticeVectors
ZM.ForceTolLength 0.04 eV/Ang
ZM.ForceTolAngle 0.0001 eV/deg
ZM.MaxDisplLength 0.5 Ang
ZM.MaxDisplAngle 20.0 deg
ZM.UnitsLength Ang
ZM.UnitsAngle deg
%block Zmatrix < Zmatrix.data
xc.functional LDA
xc.authors PZ
HarrisFunctional T
MD.TypeOfRun CG
MD.NumCGsteps 4
MD.VariableCell T
MeshCutoff 60 Ry
PAO.EnergyShift 0.01 Ry
DM.NumberPulay 5
DM.MixingWeight 0.3
************************** End of input data file *****************************

reinit: -----------------------------------------------------------------------
reinit: System Name: zmatrix
reinit: -----------------------------------------------------------------------
reinit: System Label: zmatrix                                                     
reinit: -----------------------------------------------------------------------

initatom: Reading input for the pseudopotentials and atomic orbitals ----------
 Species number:            1  Label: O Atomic number:           8
 Species number:            2  Label: H Atomic number:           1
 Species number:            3  Label: Si Atomic number:          14
Ground state valence configuration:   2s02  2p04
Reading pseudopotential information in formatted form from O.psf

Valence configuration for pseudopotential generation:
2s( 2.00) rc: 1.14
2p( 4.00) rc: 1.14
3d( 0.00) rc: 1.14
4f( 0.00) rc: 1.14
Ground state valence configuration:   1s01
Reading pseudopotential information in formatted form from H.psf

Valence configuration for pseudopotential generation:
1s( 1.00) rc: 1.25
2p( 0.00) rc: 1.25
3d( 0.00) rc: 1.25
4f( 0.00) rc: 1.25
Ground state valence configuration:   3s02  3p02
Reading pseudopotential information in formatted form from Si.psf

Valence configuration for pseudopotential generation:
3s( 2.00) rc: 1.89
3p( 2.00) rc: 1.89
3d( 0.00) rc: 1.89
4f( 0.00) rc: 1.89
For O, standard SIESTA heuristics set lmxkb to 3
 (one more than the basis l, including polarization orbitals).
Use PS.lmax or PS.KBprojectors blocks to override.
For H, standard SIESTA heuristics set lmxkb to 2
 (one more than the basis l, including polarization orbitals).
Use PS.lmax or PS.KBprojectors blocks to override.
For Si, standard SIESTA heuristics set lmxkb to 3
 (one more than the basis l, including polarization orbitals).
Use PS.lmax or PS.KBprojectors blocks to override.

<basis_specs>
===============================================================================
O                    Z=   8    Mass=  16.000        Charge= 0.17977+309
Lmxo=1 Lmxkb= 3    BasisType=split      Semic=F
L=0  Nsemic=0  Cnfigmx=2
          n=1  nzeta=2  polorb=0
            splnorm:   0.15000    
               vcte:    0.0000    
               rinn:    0.0000    
               qcoe:    0.0000    
               qyuk:    0.0000    
               qwid:   0.10000E-01
                rcs:    0.0000      0.0000    
            lambdas:    1.0000      1.0000    
L=1  Nsemic=0  Cnfigmx=2
          n=1  nzeta=2  polorb=1
            splnorm:   0.15000    
               vcte:    0.0000    
               rinn:    0.0000    
               qcoe:    0.0000    
               qyuk:    0.0000    
               qwid:   0.10000E-01
                rcs:    0.0000      0.0000    
            lambdas:    1.0000      1.0000    
-------------------------------------------------------------------------------
L=0  Nkbl=1  erefs: 0.17977+309
L=1  Nkbl=1  erefs: 0.17977+309
L=2  Nkbl=1  erefs: 0.17977+309
L=3  Nkbl=1  erefs: 0.17977+309
===============================================================================
</basis_specs>

atom: Called for O                     (Z =   8)

read_vps: Pseudopotential generation method:
read_vps: ATM3      Troullier-Martins                       
Total valence charge:    6.00000

xc_check: Exchange-correlation functional:
xc_check: Ceperley-Alder
V l=0 = -2*Zval/r beyond r=  1.1278
V l=1 = -2*Zval/r beyond r=  1.1278
V l=2 = -2*Zval/r beyond r=  1.1278
V l=3 = -2*Zval/r beyond r=  1.1138
All V_l potentials equal beyond r=  1.1278
This should be close to max(r_c) in ps generation
All pots = -2*Zval/r beyond r=  1.1278

VLOCAL1: 99.0% of the norm of Vloc inside     34.126 Ry
VLOCAL1: 99.9% of the norm of Vloc inside     77.774 Ry
atom: Maximum radius for 4*pi*r*r*local-pseudopot. charge    1.37759
atom: Maximum radius for r*vlocal+2*Zval:    1.18566
GHOST: No ghost state for L =  0
GHOST: No ghost state for L =  1
GHOST: No ghost state for L =  2
GHOST: No ghost state for L =  3

KBgen: Kleinman-Bylander projectors: 
   l= 0   rc=  1.294105   el= -1.742414   Ekb=  9.135903   kbcos=  0.326910
   l= 1   rc=  1.294105   el= -0.676589   Ekb= -8.124878   kbcos= -0.395047
   l= 2   rc=  1.448233   el=  0.002386   Ekb= -2.039267   kbcos= -0.003484
   l= 3   rc=  1.561052   el=  0.003508   Ekb= -0.799141   kbcos= -0.000344

KBgen: Total number of  Kleinman-Bylander projectors:   16
atom: -------------------------------------------------------------------------

atom: SANKEY-TYPE ORBITALS:
atom: Selected multiple-zeta basis: split     

SPLIT: Orbitals with angular momentum L= 0

SPLIT: Basis orbitals for state 2s

SPLIT: PAO cut-off radius determined from an
SPLIT: energy shift=  0.010000 Ry

   izeta = 1
                 lambda =    1.000000
                     rc =    3.562532
                 energy =   -1.732600
                kinetic =    1.577294
    potential(screened) =   -3.309894
       potential(ionic) =  -11.240760

   izeta = 2
                 rmatch =    2.541963
              splitnorm =    0.150000
                 energy =   -1.504672
                kinetic =    2.374987
    potential(screened) =   -3.879659
       potential(ionic) =  -12.401042

SPLIT: Orbitals with angular momentum L= 1

SPLIT: Basis orbitals for state 2p

SPLIT: PAO cut-off radius determined from an
SPLIT: energy shift=  0.010000 Ry

   izeta = 1
                 lambda =    1.000000
                     rc =    4.351355
                 energy =   -0.667669
                kinetic =    4.894715
    potential(screened) =   -5.562384
       potential(ionic) =  -13.283144

   izeta = 2
                 rmatch =    2.606321
              splitnorm =    0.150000
                 energy =   -0.413426
                kinetic =    7.271280
    potential(screened) =   -7.684706
       potential(ionic) =  -16.331022

POLgen: Perturbative polarization orbital with L=  2

POLgen: Polarization orbital for state 2p

   izeta = 1
                     rc =    4.351355
                 energy =    2.201853
                kinetic =    4.360449
    potential(screened) =   -2.158596
       potential(ionic) =   -8.257377
atom: Total number of Sankey-type orbitals: 13

atm_pop: Valence configuration (for local Pseudopot. screening):
 2s( 2.00)                                                            
 2p( 4.00)                                                            
Vna: chval, zval:    6.00000   6.00000

Vna:  Cut-off radius for the neutral-atom potential:   4.351355

atom: _________________________________________________________________________

<basis_specs>
===============================================================================
H                    Z=   1    Mass=  1.0100        Charge= 0.17977+309
Lmxo=0 Lmxkb= 2    BasisType=split      Semic=F
L=0  Nsemic=0  Cnfigmx=1
          n=1  nzeta=2  polorb=1
            splnorm:   0.15000    
               vcte:    0.0000    
               rinn:    0.0000    
               qcoe:    0.0000    
               qyuk:    0.0000    
               qwid:   0.10000E-01
                rcs:    0.0000      0.0000    
            lambdas:    1.0000      1.0000    
-------------------------------------------------------------------------------
L=0  Nkbl=1  erefs: 0.17977+309
L=1  Nkbl=1  erefs: 0.17977+309
L=2  Nkbl=1  erefs: 0.17977+309
===============================================================================
</basis_specs>

atom: Called for H                     (Z =   1)

read_vps: Pseudopotential generation method:
read_vps: ATM3      Troullier-Martins                       
Total valence charge:    1.00000

xc_check: Exchange-correlation functional:
xc_check: Ceperley-Alder
V l=0 = -2*Zval/r beyond r=  1.2343
V l=1 = -2*Zval/r beyond r=  1.2189
V l=2 = -2*Zval/r beyond r=  1.2189
All V_l potentials equal beyond r=  1.2343
This should be close to max(r_c) in ps generation
All pots = -2*Zval/r beyond r=  1.2343

VLOCAL1: 99.0% of the norm of Vloc inside     28.493 Ry
VLOCAL1: 99.9% of the norm of Vloc inside     64.935 Ry
atom: Maximum radius for 4*pi*r*r*local-pseudopot. charge    1.45251
atom: Maximum radius for r*vlocal+2*Zval:    1.21892
GHOST: No ghost state for L =  0
GHOST: No ghost state for L =  1
GHOST: No ghost state for L =  2

KBgen: Kleinman-Bylander projectors: 
   l= 0   rc=  1.364359   el= -0.467325   Ekb= -2.005361   kbcos= -0.336422
   l= 1   rc=  1.434438   el=  0.001430   Ekb= -0.501708   kbcos= -0.021697
   l= 2   rc=  1.470814   el=  0.002365   Ekb= -0.190555   kbcos= -0.002281

KBgen: Total number of  Kleinman-Bylander projectors:    9
atom: -------------------------------------------------------------------------

atom: SANKEY-TYPE ORBITALS:
atom: Selected multiple-zeta basis: split     

SPLIT: Orbitals with angular momentum L= 0

SPLIT: Basis orbitals for state 1s

SPLIT: PAO cut-off radius determined from an
SPLIT: energy shift=  0.010000 Ry

   izeta = 1
                 lambda =    1.000000
                     rc =    5.336316
                 energy =   -0.457946
                kinetic =    0.886710
    potential(screened) =   -1.344656
       potential(ionic) =   -1.876618

   izeta = 2
                 rmatch =    4.002347
              splitnorm =    0.150000
                 energy =   -0.355904
                kinetic =    1.439488
    potential(screened) =   -1.795392
       potential(ionic) =   -2.364690

POLgen: Perturbative polarization orbital with L=  1

POLgen: Polarization orbital for state 1s

   izeta = 1
                     rc =    5.336316
                 energy =    0.616245
                kinetic =    1.262150
    potential(screened) =   -0.645906
       potential(ionic) =   -1.116519
atom: Total number of Sankey-type orbitals:  5

atm_pop: Valence configuration (for local Pseudopot. screening):
 1s( 1.00)                                                            
Vna: chval, zval:    1.00000   1.00000

Vna:  Cut-off radius for the neutral-atom potential:   5.336316

atom: _________________________________________________________________________

<basis_specs>
===============================================================================
Si                   Z=  14    Mass=  28.090        Charge= 0.17977+309
Lmxo=1 Lmxkb= 3    BasisType=split      Semic=F
L=0  Nsemic=0  Cnfigmx=3
          n=1  nzeta=2  polorb=0
            splnorm:   0.15000    
               vcte:    0.0000    
               rinn:    0.0000    
               qcoe:    0.0000    
               qyuk:    0.0000    
               qwid:   0.10000E-01
                rcs:    0.0000      0.0000    
            lambdas:    1.0000      1.0000    
L=1  Nsemic=0  Cnfigmx=3
          n=1  nzeta=2  polorb=1
            splnorm:   0.15000    
               vcte:    0.0000    
               rinn:    0.0000    
               qcoe:    0.0000    
               qyuk:    0.0000    
               qwid:   0.10000E-01
                rcs:    0.0000      0.0000    
            lambdas:    1.0000      1.0000    
-------------------------------------------------------------------------------
L=0  Nkbl=1  erefs: 0.17977+309
L=1  Nkbl=1  erefs: 0.17977+309
L=2  Nkbl=1  erefs: 0.17977+309
L=3  Nkbl=1  erefs: 0.17977+309
===============================================================================
</basis_specs>

atom: Called for Si                    (Z =  14)

read_vps: Pseudopotential generation method:
read_vps: ATM3      Troullier-Martins                       
Total valence charge:    4.00000

xc_check: Exchange-correlation functional:
xc_check: Ceperley-Alder
V l=0 = -2*Zval/r beyond r=  2.5494
V l=1 = -2*Zval/r beyond r=  2.5494
V l=2 = -2*Zval/r beyond r=  2.5494
V l=3 = -2*Zval/r beyond r=  2.5494
All V_l potentials equal beyond r=  1.8652
This should be close to max(r_c) in ps generation
All pots = -2*Zval/r beyond r=  2.5494
Using large-core scheme for Vlocal

atom: Estimated core radius    2.54944

atom: Including non-local core corrections could be a good idea
atom: Maximum radius for 4*pi*r*r*local-pseudopot. charge    2.85303
atom: Maximum radius for r*vlocal+2*Zval:    2.58151
GHOST: No ghost state for L =  0
GHOST: No ghost state for L =  1
GHOST: No ghost state for L =  2
GHOST: No ghost state for L =  3

KBgen: Kleinman-Bylander projectors: 
   l= 0   rc=  1.936440   el= -0.796617   Ekb=  4.661340   kbcos=  0.299756
   l= 1   rc=  1.936440   el= -0.307040   Ekb=  1.494238   kbcos=  0.301471
   l= 2   rc=  1.936440   el=  0.002313   Ekb= -2.808672   kbcos= -0.054903
   l= 3   rc=  1.936440   el=  0.003402   Ekb= -0.959059   kbcos= -0.005513

KBgen: Total number of  Kleinman-Bylander projectors:   16
atom: -------------------------------------------------------------------------

atom: SANKEY-TYPE ORBITALS:
atom: Selected multiple-zeta basis: split     

SPLIT: Orbitals with angular momentum L= 0

SPLIT: Basis orbitals for state 3s

SPLIT: PAO cut-off radius determined from an
SPLIT: energy shift=  0.010000 Ry

   izeta = 1
                 lambda =    1.000000
                     rc =    5.397360
                 energy =   -0.786473
                kinetic =    0.546491
    potential(screened) =   -1.332964
       potential(ionic) =   -3.793893

   izeta = 2
                 rmatch =    4.474538
              splitnorm =    0.150000
                 energy =   -0.690041
                kinetic =    0.854339
    potential(screened) =   -1.544380
       potential(ionic) =   -4.120474

SPLIT: Orbitals with angular momentum L= 1

SPLIT: Basis orbitals for state 3p

SPLIT: PAO cut-off radius determined from an
SPLIT: energy shift=  0.010000 Ry

   izeta = 1
                 lambda =    1.000000
                     rc =    6.930397
                 energy =   -0.298036
                kinetic =    0.832892
    potential(screened) =   -1.130928
       potential(ionic) =   -3.361641

   izeta = 2
                 rmatch =    5.198700
              splitnorm =    0.150000
                 energy =   -0.218749
                kinetic =    1.203229
    potential(screened) =   -1.421978
       potential(ionic) =   -3.849753

POLgen: Perturbative polarization orbital with L=  2

POLgen: Polarization orbital for state 3p

   izeta = 1
                     rc =    6.930397
                 energy =    0.377307
                kinetic =    1.185358
    potential(screened) =   -0.808051
       potential(ionic) =   -2.819307
atom: Total number of Sankey-type orbitals: 13

atm_pop: Valence configuration (for local Pseudopot. screening):
 3s( 2.00)                                                            
 3p( 2.00)                                                            
Vna: chval, zval:    4.00000   4.00000

Vna:  Cut-off radius for the neutral-atom potential:   6.930397

atom: _________________________________________________________________________

prinput: Basis input ----------------------------------------------------------

PAO.BasisType split     

%block ChemicalSpeciesLabel
    1    8 O                       # Species index, atomic number, species label
    2    1 H                       # Species index, atomic number, species label
    3   14 Si                      # Species index, atomic number, species label
%endblock ChemicalSpeciesLabel

%block PAO.Basis                 # Define Basis set
O                     2                    # Species label, number of l-shells
 n=2   0   2                         # n, l, Nzeta 
   3.563      2.542   
   1.000      1.000   
 n=2   1   2 P   1                   # n, l, Nzeta, Polarization, NzetaPol
   4.351      2.606   
   1.000      1.000   
H                     1                    # Species label, number of l-shells
 n=1   0   2 P   1                   # n, l, Nzeta, Polarization, NzetaPol
   5.336      4.002   
   1.000      1.000   
Si                    2                    # Species label, number of l-shells
 n=3   0   2                         # n, l, Nzeta 
   5.397      4.475   
   1.000      1.000   
 n=3   1   2 P   1                   # n, l, Nzeta, Polarization, NzetaPol
   6.930      5.199   
   1.000      1.000   
%endblock PAO.Basis

prinput: ----------------------------------------------------------------------

Dumping basis to NetCDF file O.ion.nc
Dumping basis to NetCDF file H.ion.nc
Dumping basis to NetCDF file Si.ion.nc
coor:   Atomic-coordinates input format  =     Cartesian coordinates
coor:                                            (in Bohr units)
read_Zmatrix: Length units: Ang       
read_Zmatrix: Angle  units: deg       
read_Zmatrix: Force tolerances:
read_Zmatrix:    for lengths =     0.001556 Ry/Bohr
read_Zmatrix:    for angles  =     0.000421 Ry/rad

read_Zmatrix: Maximum displacements:
read_Zmatrix:    for lengths =     0.944863 Bohr
read_Zmatrix:    for angles  =     0.349066 rad
%block Zmatrix
molecule_cartesian
  1 0 0 0   X Y Z 0 0 0
  2 1 0 0   HO1 THETA PHI 0 0 0
  2 1 2 0   HO2 HOH TAU 0 0 0
molecule_fractional
  1 0 0 0   X2 Y2 Z2 0 0 0
  2 1 0 0   HO1 THETA PHI 0 0 0
  2 1 2 0   HO2 HOH TAU 0 0 0
fractional
 3  0.8 SiX 0.8   0 0 0
 3  0.75  0.75 SiZ  0 0 0
variables
    X   0.1
    Y   0.11
    Z   0.12
    X2   0.5
    Y2   0.5
    Z2   0.5
    THETA  90.0
    PHI    37.0
    TAU    90.0
    SiX    0.85
constants
    HO1 0.956997
    HO2 0.956997
    HOH 104.0
    SiZ 0.75
%endblock Zmatrix
 nZmol:            2
 nSpecies:            1           2           2           1           2           2           3           3

zmatrix: Z-matrix coordinates: (Ang ; deg )
zmatrix: (Fractional coordinates have been converted to cartesian)
molecule    1 (     3 atoms)
      0.10000000      0.11000000      0.12000000
      0.95699700     90.00000000     37.00000000
      0.95699700    104.00000000     90.00000000
molecule    2 (     3 atoms)
      4.75000000      6.25000000      4.95000000
      0.95699700     90.00000000     37.00000000
      0.95699700    104.00000000     90.00000000
cartesian block    1 (     2 atoms)
      7.62500000     10.40000000      7.96500000
      7.12500000      9.37500000      7.42500000


Z-matrix Symbol Section -------
Variables
 X           0.10000000000000001     
 Y           0.11000000000000000     
 Z           0.12000000000000000     
 THETA        90.000000000000128     
 PHI          37.000000000000050     
 TAU          90.000000000000128     
 X2           0.0000000000000000     
 Y2           0.0000000000000000     
 Z2           0.0000000000000000     
 SiX          0.0000000000000000     
Constants
 HO1         0.95699699999999988     
 HO2         0.95699699999999988     
 HOH          104.00000000000014     
 SiZ          0.0000000000000000     
------------ End of Z-matrix Information


siesta: Atomic coordinates (Bohr) and species
siesta:      0.18897   0.20787   0.22677  1        1
siesta:      1.63328   1.29623   0.22677  2        2
siesta:     -1.21647   1.34597   0.22677  2        3
siesta:      8.97620  11.81079   9.35415  1        4
siesta:     10.42051  12.89915   9.35415  2        5
siesta:      7.57076  12.94890   9.35415  2        6
siesta:     14.40917  19.65316  15.05167  3        7
siesta:     13.46430  17.71619  14.03122  3        8

siesta: System type = bulk      

initatomlists: Number of atoms, orbitals, and projectors:      8    72   100

siesta: ******************** Simulation parameters ****************************
siesta:
siesta: The following are some of the parameters of the simulation.
siesta: A complete list of the parameters used, including default values,
siesta: can be found in file out.fdf
siesta:
redata: Non-Collinear-spin run           =     F
redata: SpinPolarized (Up/Down) run      =     F
redata: Number of spin components        =     1
redata: Long output                      =     F
redata: Number of Atomic Species         =        3
redata: Charge density info will appear in .RHO file
redata: Write Mulliken Pop.              =     NO
redata: Mesh Cutoff                      =    60.0000  Ry
redata: Net charge of the system         =     0.0000 |e|
redata: Min. number of SCF Iter          =        0
redata: Max. number of SCF Iter          =       50
redata: Mix DM or H after convergence    =     F
redata: Recompute H after scf cycle      =     F
redata: Performing Pulay mixing using    =     5 iterations
redata: Mix DM in first SCF step ?       =     F
redata: Write Pulay info on disk?        =     F
redata: Discard 1st Pulay DM after  kick =     F
redata: New DM Mixing Weight             =     0.3000
redata: New DM Occupancy tolerance       = 0.000000000001
redata: No kicks to SCF
redata: DM Mixing Weight for Kicks       =     0.5000
redata: DM Tolerance for SCF             =     0.000100
redata: Require (free) Energy convergence in SCF =     F
redata: DM (free)Energy tolerance for SCF =     0.000010 eV
redata: Require Harris convergence for SCF =     F
redata: DM Harris energy tolerance for SCF =     0.000010 eV
redata: Using Saved Data (generic)   =     F
redata: Use continuation files for DM    =     F
redata: Neglect nonoverlap interactions  =     F
redata: Method of Calculation            =     Diagonalization
redata: Divide and Conquer               =     T
redata: Electronic Temperature           =     0.0019  Ry
redata: Fix the spin of the system       =     F
redata: Dynamics option                  =     CG coord. optimization
redata: Variable cell                    =     T
redata: Use continuation files for CG    =     F
redata: Max atomic displ per move        =     0.2000  Bohr
redata: Maximum number of CG moves       =        4
redata: Force tolerance                  =     0.0016  Ry/Bohr
redata: Stress tolerance                 =     1.0000  GPa
redata: ***********************************************************************
Total number of electrons:    24.000000
Total ionic charge:    24.000000

* ProcessorY, Blocksize:    2   9


* Orbital distribution balance (max,min):     9     9

 Kpoints in:            1 . Kpoints trimmed:            1

siesta: k-grid: Number of k-points =     1
siesta: k-grid: Cutoff (effective) =     4.033 Ang
siesta: k-grid: Supercell and displacements
siesta: k-grid:    1   0   0      0.000
siesta: k-grid:    0   1   0      0.000
siesta: k-grid:    0   0   1      0.000

                     ====================================
                        Begin CG opt. move =      0

zmatrix: Z-matrix coordinates: (Ang ; deg )
zmatrix: (Fractional coordinates have been converted to cartesian)
molecule    1 (     3 atoms)
      0.10000000      0.11000000      0.12000000
      0.95699700     90.00000000     37.00000000
      0.95699700    104.00000000     90.00000000
molecule    2 (     3 atoms)
      4.75000000      6.25000000      4.95000000
      0.95699700     90.00000000     37.00000000
      0.95699700    104.00000000     90.00000000
cartesian block    1 (     2 atoms)
      7.62500000     10.40000000      7.96500000
      7.12500000      9.37500000      7.42500000


Z-matrix Symbol Section -------
Variables
 X           0.10000000000000001     
 Y           0.11000000000000000     
 Z           0.12000000000000000     
 THETA        90.000000000000128     
 PHI          37.000000000000050     
 TAU          90.000000000000128     
 X2          0.50000000000000000     
 Y2          0.50000000000000022     
 Z2          0.50000000000000000     
 SiX         0.85000000000000009     
Constants
 HO1         0.95699699999999988     
 HO2         0.95699699999999988     
 HOH          104.00000000000014     
 SiZ         0.75000000000000000     
------------ End of Z-matrix Information

                     ====================================

outcell: Unit cell vectors (Ang):
        8.000000    2.000000    1.000000
        0.500000    8.000000    0.900000
        1.000000    2.500000    8.000000

outcell: Cell vector modules (Ang)   :    8.306624    8.065978    8.440972
outcell: Cell angles (23,13,12) (deg):     65.9931     72.5722     71.8241
outcell: Cell volume (Ang**3)        :    481.0500
 Folding of H and S is implicitly performed
New_DM. Step:     1
Initializing Density Matrix...
New grid distribution:   1
           1       1:   20    1:    9    1:    5
           2       1:   20    1:    9    6:   10
           3       1:   20    1:    9   11:   14
           4       1:   20    1:    9   15:   18
           5       1:   20   10:   18    1:    5
           6       1:   20   10:   18    6:   10
           7       1:   20   10:   18   11:   14
           8       1:   20   10:   18   15:   18

InitMesh: MESH =    40 x    36 x    36 =       51840
InitMesh: (bp) =    20 x    18 x    18 =        6480
InitMesh: Mesh cutoff (required, used) =    60.000    62.724 Ry
ExtMesh (bp) on 0 =    60 x    49 x    41 =      120540
New grid distribution:   2
           1       1:   13    1:   12    1:   12
           2      14:   20   12:   18    1:   11
           3      14:   20    1:   10   12:   18
           4       1:   13    1:   11   13:   18
           5       1:   13   13:   18    1:   12
           6      14:   20    1:   11    1:   11
           7      14:   20   11:   18   12:   18
           8       1:   13   12:   18   13:   18
New grid distribution:   3
           1       1:   11    1:   12    1:   10
           2      12:   20   10:   18    1:    9
           3      12:   20    1:    9   10:   18
           4      12:   20    1:    9    1:    9
           5       1:   11    1:    9   11:   18
           6       1:   11   13:   18    1:   10
           7       1:   11   10:   18   11:   18
           8      12:   20   10:   18   10:   18
Setting up quadratic distribution...
ExtMesh (bp) on 0 =    53 x    52 x    48 =      132288
PhiOnMesh: Number of (b)points on node 0 =                 1872
PhiOnMesh: nlist on node 0 =                17518

stepf: Fermi-Dirac step function

siesta: Program's energy decomposition (eV):
siesta: Ebs     =      -352.891094
siesta: Eions   =      2012.511081
siesta: Ena     =       487.794817
siesta: Ekin    =       741.932135
siesta: Enl     =       -51.165545
siesta: DEna    =         0.000002
siesta: DUscf   =         0.000000
siesta: DUext   =         0.000000
siesta: Exc     =      -278.752525
siesta: eta*DQ  =         0.000000
siesta: Emadel  =         0.000000
siesta: Emeta   =         0.000000
siesta: Emolmec =         0.000000
siesta: Ekinion =         0.000000
siesta: Eharris =     -1122.280183
siesta: Etot    =     -1112.702197
siesta: FreeEng =     -1112.702197

siesta: Eharris(eV) =   -1122.280183


siesta: Eharris(eV) =   -1122.280183

timer: Routine,Calls,Time,% =    IterSCF     1       0.032   1.15
SCF_NOT_CONV: SCF did not converge in maximum number of steps.
Geom step, scf iteration, dmax:   0  1    1.830275

Using DM_out to compute the final energy and forces

siesta: E_KS - E_eggbox =     -1115.2952

zmatrix: Atomic forces (eV/Ang ; eV/deg )
zmatrix: (No information if symbols are used)
molecule    1 (     3 atoms)
     1    0.000000    0.000000    0.000000
     2    0.000000    0.000000    0.000000
     3    0.000000    0.000000    0.000000
molecule    2 (     3 atoms)
     4    0.000000    0.000000    0.000000
     5    0.000000    0.000000    0.000000
     6    0.000000    0.000000    0.000000
cartesian    1 (     2 atoms)
     7    0.000000    0.000000    0.000000
     8    0.000000    0.000000    0.000000


Variable forces (eV/Ang ; eV/deg )
 X          -0.44555831187648781     
 Y          -0.34525771118297499     
 Z           0.72530084353066848     
 THETA       -2.2508615084606716E-004
 PHI         -2.2738441398560669E-004
 TAU         -3.6769798639249839E-004
 X2          -4.5193960307628275E-002
 Y2          0.22118575873290061     
 Z2          -4.0684949780112778E-002
 SiX          66.804969249212760     

siesta: Atomic forces (eV/Ang):
     1   -0.436979    0.585094    0.700241
     2   -0.061192   -0.503468   -0.000422
     3    0.052612   -0.426884    0.025482
     4   -0.017598    1.198825   -0.057278
     5   -0.066878   -0.458369    0.019387
     6    0.039282   -0.519271   -0.002793
     7   32.601962   66.804969   35.168439
     8  -32.537748  -66.770293  -35.130355
----------------------------------------
   Tot   -0.426539   -0.089396    0.722700
----------------------------------------
   Max   66.804969
   Res   23.732119    sqrt( Sum f_i^2 / 3N )
----------------------------------------
   Max   66.804969    constrained

Stress-tensor-Voigt (kbar):       -7.65     -176.64      -25.13     -107.78     -116.52      -56.68
(Free)E + p*V (eV/cell)    -1094.3368
Target enthalpy (eV/cell)    -1115.2952

siesta: Stress tensor (static) (eV/Ang**3):
        -0.004773   -0.067269   -0.035375
        -0.067269   -0.110249   -0.072726
        -0.035375   -0.072726   -0.015682

siesta: Pressure (static):         69.80465829  kBar

siesta: Stress tensor (total) (eV/Ang**3):
        -0.004773   -0.067269   -0.035375
        -0.067269   -0.110249   -0.072726
        -0.035375   -0.072726   -0.015682

siesta: Pressure (total):         69.80465829  kBar

cgvc_zmatrix: No target stress found, assuming hydrostatic MD.TargetPressure.

cgvc_zmatrix: Target stress (kBar)
cgvc_zmatrix:        -0.000       0.000       0.000
cgvc_zmatrix:        -0.000       0.000       0.000
cgvc_zmatrix:        -0.000       0.000       0.000

                     ====================================
                        Begin CG opt. move =      1

zmatrix: Z-matrix coordinates: (Ang ; deg )
zmatrix: (Fractional coordinates have been converted to cartesian)
molecule    1 (     3 atoms)
      0.09909815      0.11218851      0.12616360
      0.95699700     89.98008775     36.97988443
      0.95699700    104.00000000     89.96747159
molecule    2 (     3 atoms)
      4.83953149      6.45021953      5.05155482
      0.95699700     89.98008775     36.97988443
      0.95699700    104.00000000     89.96747159
cartesian block    1 (     2 atoms)
      7.62500000     10.06475274      7.96500000
      7.12500000      9.37500000      7.42500000


Z-matrix Symbol Section -------
Variables
 X            9.9098151096490311E-002
 Y           0.11218851214804434     
 Z           0.12616359679929959     
 THETA        89.980087747172234     
 PHI          36.979884431257226     
 TAU          89.967471587026537     
 X2          0.49996045882464568     
 Y2          0.50020523969825825     
 Z2          0.49996552794444693     
 SiX         0.77517925092150053     
Constants
 HO1         0.95699699999999988     
 HO2         0.95699699999999988     
 HOH          104.00000000000014     
 SiZ         0.73629645965151103     
------------ End of Z-matrix Information

                     ====================================

outcell: Unit cell vectors (Ang):
        8.030216    2.120719    1.064490
        0.583111    8.142457    0.989099
        1.066205    2.634270    8.049754

outcell: Cell vector modules (Ang)   :    8.373468    8.223013    8.536669
outcell: Cell angles (23,13,12) (deg):     64.6694     71.4697     70.4833
outcell: Cell volume (Ang**3)        :    490.0913
 Folding of H and S is implicitly performed
New_DM. Step:     2
Initializing Density Matrix...
New grid distribution:   1
           1       1:   18    1:    9    1:    5
           2       1:   18    1:    9    6:   10
           3       1:   18    1:    9   11:   14
           4       1:   18    1:    9   15:   18
           5       1:   18   10:   18    1:    5
           6       1:   18   10:   18    6:   10
           7       1:   18   10:   18   11:   14
           8       1:   18   10:   18   15:   18

InitMesh: MESH =    36 x    36 x    36 =       46656
InitMesh: (bp) =    18 x    18 x    18 =        5832
InitMesh: Mesh cutoff (required, used) =    60.000    60.033 Ry
ExtMesh (bp) on 0 =    54 x    49 x    41 =      108486
New grid distribution:   2
           1       1:   12    1:   12    1:   11
           2      13:   18    1:   12    1:   11
           3      12:   18   12:   18   12:   18
           4      13:   18    1:   11   12:   18
           5       1:   11   13:   18    1:   11
           6      12:   18   13:   18    1:   11
           7       1:   11   12:   18   12:   18
           8       1:   12    1:   11   12:   18
New grid distribution:   3
           1       1:   11    1:   11    1:   10
           2      10:   18   12:   18    1:   10
           3       1:   10    1:    9   11:   18
           4      11:   18    1:    9   11:   18
           5      12:   18    1:   11    1:   10
           6       1:    9   12:   18    1:   10
           7       1:    9   10:   18   11:   18
           8      10:   18   10:   18   11:   18
Setting up quadratic distribution...
ExtMesh (bp) on 0 =    48 x    52 x    47 =      117312
PhiOnMesh: Number of (b)points on node 0 =                 1584
PhiOnMesh: nlist on node 0 =                13919

siesta: Eharris(eV) =   -1092.063888


siesta: Eharris(eV) =   -1092.063888

SCF_NOT_CONV: SCF did not converge in maximum number of steps.
Geom step, scf iteration, dmax:   1  1    1.832143

Using DM_out to compute the final energy and forces

zmatrix: Atomic forces (eV/Ang ; eV/deg )
zmatrix: (No information if symbols are used)
molecule    1 (     3 atoms)
     1    0.000000    0.000000    0.000000
     2    0.000000    0.000000    0.000000
     3    0.000000    0.000000    0.000000
molecule    2 (     3 atoms)
     4    0.000000    0.000000    0.000000
     5    0.000000    0.000000    0.000000
     6    0.000000    0.000000    0.000000
cartesian    1 (     2 atoms)
     7    0.000000    0.000000    0.000000
     8    0.000000    0.000000    0.000000


Variable forces (eV/Ang ; eV/deg )
 X           -1.0916331968888611     
 Y          -0.14894826975311223     
 Z           0.90291960660682746     
 THETA        1.0026837275408922E-003
 PHI         -1.8898423530899053E-004
 TAU         -2.6887080285082807E-004
 X2          -1.6871828112229630E-002
 Y2          0.14710878635539834     
 Z2          -5.3067937914478891E-002
 SiX          112.85328847826382     

siesta: Atomic forces (eV/Ang):
     1   -0.985442    0.829921    0.947805
     2   -0.184384   -0.534416   -0.041414
     3    0.078193   -0.444452   -0.003471
     4   -0.045521    1.141099   -0.057230
     5   -0.041191   -0.472435   -0.015249
     6    0.069840   -0.521555    0.019412
     7   81.817640  112.853288   88.309826
     8  -81.805862 -112.878110  -88.309200
----------------------------------------
   Tot   -1.096727   -0.026661    0.850478
----------------------------------------
   Max  112.878110
   Res   47.638260    sqrt( Sum f_i^2 / 3N )
----------------------------------------
   Max  112.878110    constrained

Stress-tensor-Voigt (kbar):      -90.35     -207.80     -120.04     -181.92     -196.77     -142.73
(Free)E + p*V (eV/cell)    -1042.8048
Target enthalpy (eV/cell)    -1085.4444

siesta: Stress tensor (static) (eV/Ang**3):
        -0.056390   -0.113542   -0.089086
        -0.113542   -0.129697   -0.122810
        -0.089086   -0.122810   -0.074923

siesta: Pressure (static):        139.39624221  kBar

siesta: Stress tensor (total) (eV/Ang**3):
        -0.056390   -0.113542   -0.089086
        -0.113542   -0.129697   -0.122810
        -0.089086   -0.122810   -0.074923

siesta: Pressure (total):        139.39624221  kBar

                     ====================================
                        Begin CG opt. move =      2

zmatrix: Z-matrix coordinates: (Ang ; deg )
zmatrix: (Fractional coordinates have been converted to cartesian)
molecule    1 (     3 atoms)
      0.09820086      0.11435666      0.13228098
      0.95699700     89.96017549     36.95976886
      0.95699700    104.00000000     89.93494317
molecule    2 (     3 atoms)
      4.92909014      6.65047874      5.15313769
      0.95699700     89.96017549     36.95976886
      0.95699700    104.00000000     89.93494317
cartesian block    1 (     2 atoms)
      7.62500000      9.71676793      7.96500000
      7.12500000      9.37500000      7.42500000


Z-matrix Symbol Section -------
Variables
 X            9.8200863355122459E-002
 Y           0.11435665768479222     
 Z           0.13228097632864608     
 THETA        89.960175494344327     
 PHI          36.959768862514395     
 TAU          89.934943174052961     
 X2          0.49992091764929103     
 Y2          0.50041047939651639     
 Z2          0.49993105588889397     
 SiX         0.70110178943411117     
Constants
 HO1         0.95699699999999988     
 HO2         0.95699699999999988     
 HOH          104.00000000000014     
 SiZ         0.72331919148683399     
------------ End of Z-matrix Information

                     ====================================

outcell: Unit cell vectors (Ang):
        8.060433    2.241437    1.128980
        0.666221    8.284914    1.078198
        1.132410    2.768541    8.099508

outcell: Cell vector modules (Ang)   :    8.442110    8.381298    8.634187
outcell: Cell angles (23,13,12) (deg):     63.3805     70.3782     69.1727
outcell: Cell volume (Ang**3)        :    498.9565
 Folding of H and S is implicitly performed
New_DM. Step:     3
Initializing Density Matrix...
New grid distribution:   1
           1       1:   18    1:    9    1:    5
           2       1:   18    1:    9    6:   10
           3       1:   18    1:    9   11:   14
           4       1:   18    1:    9   15:   18
           5       1:   18   10:   18    1:    5
           6       1:   18   10:   18    6:   10
           7       1:   18   10:   18   11:   14
           8       1:   18   10:   18   15:   18

InitMesh: MESH =    36 x    36 x    36 =       46656
InitMesh: (bp) =    18 x    18 x    18 =        5832
InitMesh: Mesh cutoff (required, used) =    60.000    60.218 Ry
ExtMesh (bp) on 0 =    54 x    49 x    41 =      108486
New grid distribution:   2
           1       1:   12    1:   11    1:   11
           2      12:   18   12:   18    1:   11
           3      13:   18    1:   10   12:   18
           4       1:   12    1:   10   12:   18
           5       1:   11   12:   18    1:   11
           6      13:   18    1:   11    1:   11
           7      12:   18   11:   18   12:   18
           8       1:   11   11:   18   12:   18
New grid distribution:   3
           1       1:   11    1:   11    1:   10
           2      10:   18   12:   18    1:   10
           3       1:   10    1:    9   11:   18
           4      11:   18    1:    9   11:   18
           5      12:   18    1:   11    1:   10
           6       1:    9   12:   18    1:   10
           7       1:    9   10:   18   11:   18
           8      10:   18   10:   18   11:   18
Setting up quadratic distribution...
ExtMesh (bp) on 0 =    48 x    51 x    47 =      115056
PhiOnMesh: Number of (b)points on node 0 =                 1452
PhiOnMesh: nlist on node 0 =                11798

siesta: Eharris(eV) =   -1048.785528


siesta: Eharris(eV) =   -1048.785528

SCF_NOT_CONV: SCF did not converge in maximum number of steps.
Geom step, scf iteration, dmax:   2  1    1.861787

Using DM_out to compute the final energy and forces

zmatrix: Atomic forces (eV/Ang ; eV/deg )
zmatrix: (No information if symbols are used)
molecule    1 (     3 atoms)
     1    0.000000    0.000000    0.000000
     2    0.000000    0.000000    0.000000
     3    0.000000    0.000000    0.000000
molecule    2 (     3 atoms)
     4    0.000000    0.000000    0.000000
     5    0.000000    0.000000    0.000000
     6    0.000000    0.000000    0.000000
cartesian    1 (     2 atoms)
     7    0.000000    0.000000    0.000000
     8    0.000000    0.000000    0.000000


Variable forces (eV/Ang ; eV/deg )
 X           -1.2189130088684432     
 Y           -8.6012904629965595E-002
 Z           0.94101880914952729     
 THETA        5.8816412617494270E-005
 PHI         -2.0393636010168390E-004
 TAU         -8.4802437806406558E-005
 X2           5.1128475972811248E-002
 Y2           8.4455050762490283E-002
 Z2          -1.2412053586206818E-002
 SiX          120.88334850245884     

siesta: Atomic forces (eV/Ang):
     1   -1.098291    0.932194    0.994575
     2   -0.208637   -0.550501   -0.039198
     3    0.088014   -0.467706   -0.014358
     4   -0.023741    1.050517   -0.066335
     5   -0.003646   -0.449741    0.035658
     6    0.078516   -0.516321    0.018265
     7  177.113797  120.883349  191.191357
     8 -177.188495 -120.966325 -191.279762
----------------------------------------
   Tot   -1.242483   -0.084535    0.840202
----------------------------------------
   Max  191.279762
   Res   82.955310    sqrt( Sum f_i^2 / 3N )
----------------------------------------
   Max  191.279762    constrained

Stress-tensor-Voigt (kbar):     -241.89      -88.85     -295.99     -192.48     -208.13     -305.04
(Free)E + p*V (eV/cell)     -977.2717
Target enthalpy (eV/cell)    -1042.3304

siesta: Stress tensor (static) (eV/Ang**3):
        -0.150974   -0.120136   -0.190386
        -0.120136   -0.055455   -0.129905
        -0.190386   -0.129905   -0.184740

siesta: Pressure (static):        208.90953235  kBar

siesta: Stress tensor (total) (eV/Ang**3):
        -0.150974   -0.120136   -0.190386
        -0.120136   -0.055455   -0.129905
        -0.190386   -0.129905   -0.184740

siesta: Pressure (total):        208.90953235  kBar

                     ====================================
                        Begin CG opt. move =      3

zmatrix: Z-matrix coordinates: (Ang ; deg )
zmatrix: (Fractional coordinates have been converted to cartesian)
molecule    1 (     3 atoms)
      0.09730814      0.11650444      0.13835214
      0.95699700     89.94026324     36.93965329
      0.95699700    104.00000000     89.90241476
molecule    2 (     3 atoms)
      5.01867595      6.85077762      5.25474860
      0.95699700     89.94026324     36.93965329
      0.95699700    104.00000000     89.90241476
cartesian block    1 (     2 atoms)
      7.62500000      9.35383138      7.96500000
      7.12500000      9.37500000      7.42500000


Z-matrix Symbol Section -------
Variables
 X            9.7308136775896503E-002
 Y           0.11650443661024368     
 Z           0.13835213858803946     
 THETA        89.940263241516433     
 PHI          36.939653293771570     
 TAU          89.902414761079370     
 X2          0.49988137647393649     
 Y2          0.50061571909477454     
 Z2          0.49989658383334079     
 SiX         0.62734259754729393     
Constants
 HO1         0.95699699999999988     
 HO2         0.95699699999999988     
 HOH          104.00000000000014     
 SiZ         0.71101515012378180     
------------ End of Z-matrix Information

                     ====================================

outcell: Unit cell vectors (Ang):
        8.090649    2.362156    1.193471
        0.749332    8.427371    1.167297
        1.198615    2.902811    8.149261

outcell: Cell vector modules (Ang)   :    8.512506    8.540765    8.733467
outcell: Cell angles (23,13,12) (deg):     62.1254     69.2986     67.8917
outcell: Cell volume (Ang**3)        :    507.6466
 Folding of H and S is implicitly performed
New_DM. Step:     4
Initializing Density Matrix...
New grid distribution:   1
           1       1:   18    1:    9    1:    5
           2       1:   18    1:    9    6:   10
           3       1:   18    1:    9   11:   14
           4       1:   18    1:    9   15:   18
           5       1:   18   10:   18    1:    5
           6       1:   18   10:   18    6:   10
           7       1:   18   10:   18   11:   14
           8       1:   18   10:   18   15:   18

InitMesh: MESH =    36 x    36 x    36 =       46656
InitMesh: (bp) =    18 x    18 x    18 =        5832
InitMesh: Mesh cutoff (required, used) =    60.000    60.427 Ry
ExtMesh (bp) on 0 =    54 x    49 x    41 =      108486
New grid distribution:   2
           1       1:   12    1:   11    1:   11
           2      12:   18   12:   18    1:   11
           3      13:   18    1:   10   12:   18
           4       1:   12    1:   10   12:   18
           5       1:   11   12:   18    1:   11
           6      13:   18    1:   11    1:   11
           7      12:   18   11:   18   12:   18
           8       1:   11   11:   18   12:   18
New grid distribution:   3
           1       1:   11    1:   11    1:   10
           2       1:    9   10:   18   11:   18
           3       1:    9    1:    9   11:   18
           4       1:    9   12:   18    1:   10
           5      12:   18    1:   11    1:   10
           6      10:   18    1:    9   11:   18
           7      10:   18   10:   18   11:   18
           8      10:   18   12:   18    1:   10
Setting up quadratic distribution...
ExtMesh (bp) on 0 =    48 x    51 x    47 =      115056
PhiOnMesh: Number of (b)points on node 0 =                 1452
PhiOnMesh: nlist on node 0 =                12249

siesta: Eharris(eV) =   -1024.615930


siesta: Eharris(eV) =   -1024.615930

SCF_NOT_CONV: SCF did not converge in maximum number of steps.
Geom step, scf iteration, dmax:   3  1    1.878126

Using DM_out to compute the final energy and forces

zmatrix: Atomic forces (eV/Ang ; eV/deg )
zmatrix: (No information if symbols are used)
molecule    1 (     3 atoms)
     1    0.000000    0.000000    0.000000
     2    0.000000    0.000000    0.000000
     3    0.000000    0.000000    0.000000
molecule    2 (     3 atoms)
     4    0.000000    0.000000    0.000000
     5    0.000000    0.000000    0.000000
     6    0.000000    0.000000    0.000000
cartesian    1 (     2 atoms)
     7    0.000000    0.000000    0.000000
     8    0.000000    0.000000    0.000000


Variable forces (eV/Ang ; eV/deg )
 X           -1.3502377000546646     
 Y            2.1762067855224769E-002
 Z           0.99092072680321763     
 THETA        8.2826097540614348E-005
 PHI          2.1578695778093040E-004
 TAU          1.4835951837447272E-004
 X2           5.2761176743083636E-002
 Y2           6.4472633383299074E-002
 Z2          -1.8157652131402198E-002
 SiX         -10.459179809855511     

siesta: Atomic forces (eV/Ang):
     1   -1.230139    1.000904    1.055502
     2   -0.218984   -0.548532   -0.038359
     3    0.098885   -0.430610   -0.026222
     4    0.004711    0.966651   -0.062663
     5   -0.030065   -0.394531    0.029336
     6    0.078115   -0.507648    0.015169
     7  246.229074  -10.459180  265.967031
     8 -246.271446   10.280396 -266.048033
----------------------------------------
   Tot   -1.339849   -0.092549    0.891761
----------------------------------------
   Max  266.048033
   Res  104.685843    sqrt( Sum f_i^2 / 3N )
----------------------------------------
   Max  266.048033    constrained

Stress-tensor-Voigt (kbar):     -346.54       42.54     -417.60       16.76       17.97     -417.54
(Free)E + p*V (eV/cell)     -941.9268
Target enthalpy (eV/cell)    -1018.1389

siesta: Stress tensor (static) (eV/Ang**3):
        -0.216290    0.010461   -0.260604
         0.010461    0.026549    0.011219
        -0.260604    0.011219   -0.260644

siesta: Pressure (static):        240.53463410  kBar

siesta: Stress tensor (total) (eV/Ang**3):
        -0.216290    0.010461   -0.260604
         0.010461    0.026549    0.011219
        -0.260604    0.011219   -0.260644

siesta: Pressure (total):        240.53463410  kBar

                     ====================================
                        Begin CG opt. move =      4

zmatrix: Z-matrix coordinates: (Ang ; deg )
zmatrix: (Fractional coordinates have been converted to cartesian)
molecule    1 (     3 atoms)
      0.09736888      0.11635859      0.13793950
      0.95699700     89.94162143     36.94102535
      0.95699700    104.00000000     89.90463349
molecule    2 (     3 atoms)
      5.01256455      6.83711421      5.24781695
      0.95699700     89.94162143     36.94102535
      0.95699700    104.00000000     89.90463349
cartesian block    1 (     2 atoms)
      7.62500000      8.15845140      7.96500000
      7.12500000      9.37500000      7.42500000


Z-matrix Symbol Section -------
Variables
 X            9.7368883667457135E-002
 Y           0.11635858633296581     
 Z           0.13793950040422348     
 THETA        89.941621433019620     
 PHI          36.941025353215792     
 TAU          89.904633486127437     
 X2          0.49988407353131403     
 Y2          0.50060171993472458     
 Z2          0.49989893513197864     
 SiX         0.47717486706745638     
Constants
 HO1         0.95699699999999988     
 HO2         0.95699699999999988     
 HOH          104.00000000000014     
 SiZ         0.71183400771380312     
------------ End of Z-matrix Information

                     ====================================

outcell: Unit cell vectors (Ang):
        8.088588    2.353922    1.189072
        0.743663    8.417654    1.161219
        1.194099    2.893653    8.145868

outcell: Cell vector modules (Ang)   :    8.507650    8.529852    8.726641
outcell: Cell angles (23,13,12) (deg):     62.2100     69.3718     67.9782
outcell: Cell volume (Ang**3)        :    507.0594
 Folding of H and S is implicitly performed
New_DM. Step:     5
Initializing Density Matrix...
New grid distribution:   1
           1       1:   18    1:    9    1:    5
           2       1:   18    1:    9    6:   10
           3       1:   18    1:    9   11:   14
           4       1:   18    1:    9   15:   18
           5       1:   18   10:   18    1:    5
           6       1:   18   10:   18    6:   10
           7       1:   18   10:   18   11:   14
           8       1:   18   10:   18   15:   18

InitMesh: MESH =    36 x    36 x    36 =       46656
InitMesh: (bp) =    18 x    18 x    18 =        5832
InitMesh: Mesh cutoff (required, used) =    60.000    60.412 Ry
ExtMesh (bp) on 0 =    54 x    49 x    41 =      108486
New grid distribution:   2
           1       1:   13    1:   10    1:   11
           2      14:   18    1:   10    1:   11
           3      13:   18    1:    9   12:   18
           4       1:   12    1:    9   12:   18
           5       1:   11   11:   18    1:   11
           6      12:   18   11:   18    1:   11
           7      12:   18   10:   18   12:   18
           8       1:   11   10:   18   12:   18
New grid distribution:   3
           1       1:   11    1:   10    1:   10
           2      12:   18    1:   10    1:   10
           3      10:   18   10:   18   11:   18
           4       1:    9    1:    9   11:   18
           5       1:    9   11:   18    1:   10
           6      10:   18   11:   18    1:   10
           7       1:    9   10:   18   11:   18
           8      10:   18    1:    9   11:   18
Setting up quadratic distribution...
ExtMesh (bp) on 0 =    49 x    50 x    47 =      115150
PhiOnMesh: Number of (b)points on node 0 =                 1430
PhiOnMesh: nlist on node 0 =                13275

siesta: Eharris(eV) =   -1132.842147


siesta: Eharris(eV) =   -1132.842147

SCF_NOT_CONV: SCF did not converge in maximum number of steps.
Geom step, scf iteration, dmax:   4  1    1.819543

Using DM_out to compute the final energy and forces

zmatrix: Atomic forces (eV/Ang ; eV/deg )
zmatrix: (No information if symbols are used)
molecule    1 (     3 atoms)
     1    0.000000    0.000000    0.000000
     2    0.000000    0.000000    0.000000
     3    0.000000    0.000000    0.000000
molecule    2 (     3 atoms)
     4    0.000000    0.000000    0.000000
     5    0.000000    0.000000    0.000000
     6    0.000000    0.000000    0.000000
cartesian    1 (     2 atoms)
     7    0.000000    0.000000    0.000000
     8    0.000000    0.000000    0.000000


Variable forces (eV/Ang ; eV/deg )
 X           -1.3845384892543184     
 Y            4.8226740746683830E-002
 Z           0.98235353746354370     
 THETA       -6.4660979510079578E-004
 PHI         -3.0708641889606246E-004
 TAU          2.5402683907697611E-004
 X2           7.9348414898094896E-002
 Y2           2.0302333921617826E-002
 Z2           1.9434404486443093E-002
 SiX         -42.323542982349331     

siesta: Atomic forces (eV/Ang):
     1   -1.196623    0.919487    1.066337
     2   -0.213888   -0.513094   -0.044660
     3    0.025972   -0.358166   -0.039324
     4   -0.034803    0.946186   -0.080349
     5    0.027570   -0.410222    0.077852
     6    0.086582   -0.515662    0.021931
     7   17.324691  -42.323543   18.651021
     8  -17.387254   42.186936  -18.767792
----------------------------------------
   Tot   -1.367753   -0.068078    0.885017
----------------------------------------
   Max   42.323543
   Res   14.257717    sqrt( Sum f_i^2 / 3N )
----------------------------------------
   Max   42.323543    constrained

Stress-tensor-Voigt (kbar):       15.58     -111.68        4.94       63.66       68.74      -27.75
(Free)E + p*V (eV/cell)    -1116.0788
Target enthalpy (eV/cell)    -1125.6951

siesta: Stress tensor (static) (eV/Ang**3):
         0.009726    0.039732   -0.017321
         0.039732   -0.069702    0.042906
        -0.017321    0.042906    0.003082

siesta: Pressure (static):         30.38526259  kBar

siesta: Stress tensor (total) (eV/Ang**3):
         0.009726    0.039732   -0.017321
         0.039732   -0.069702    0.042906
        -0.017321    0.042906    0.003082

siesta: Pressure (total):         30.38526259  kBar

cgvc_zmatrix: Finished line minimization    1.  Mean atomic displacement =    0.4155

outcoor: Final (unrelaxed) atomic coordinates (Bohr):       
    0.18400060    0.21988595    0.26066798   1       1  O
    1.62942206    1.30675836    0.26251062   2       2  H
   -1.22026762    1.35943098    0.26314290   2       3  H
    9.47237795   12.92027848    9.91694074   1       4  O
   10.91779942   14.00715089    9.91878338   2       5  H
    8.06810973   14.05982352    9.91941566   2       6  H
   14.40916744   15.41724489   15.05167458   3       7  Si
   13.46430400   17.71618948   14.03122207   3       8  Si

zmatrix: Z-matrix coordinates: (Ang ; deg )
zmatrix: (Fractional coordinates have been converted to cartesian)
molecule    1 (     3 atoms)
      0.07267802      0.12081098      0.16569690
      0.95699700     89.74827708     36.82105849
      0.95699700    104.00000000     89.87404571
molecule    2 (     3 atoms)
      5.17197634      7.38044561      5.44098448
      0.95699700     89.74827708     36.82105849
      0.95699700    104.00000000     89.87404571
cartesian block    1 (     2 atoms)
      7.62500000      8.03571862      7.96500000
      7.12500000      9.37500000      7.42500000


Z-matrix Symbol Section -------
Variables
 X            7.2678015160308279E-002
 Y           0.12081098096513912     
 Z           0.16569689595787604     
 THETA        89.748277076277788     
 PHI          36.821058491140455     
 TAU          89.874045710269840     
 X2          0.51237004601862690     
 Y2          0.55688989771843400     
 Z2          0.51376583093513550     
 SiX         0.46157033978989082     
Constants
 HO1         0.95699699999999988     
 HO2         0.95699699999999988     
 HOH          104.00000000000014     
 SiZ         0.71183400771380312     
------------ End of Z-matrix Information


outcell: Unit cell vectors (Ang):
        8.088588    2.353922    1.189072
        0.743663    8.417654    1.161219
        1.194099    2.893653    8.145868

outcell: Cell vector modules (Ang)   :    8.507650    8.529852    8.726641
outcell: Cell angles (23,13,12) (deg):     62.2100     69.3718     67.9782
outcell: Cell volume (Ang**3)        :    507.0594

siesta: Program's energy decomposition (eV):
siesta: Ebs     =      -348.928287
siesta: Eions   =      2012.511081
siesta: Ena     =       482.519088
siesta: Ekin    =       856.055785
siesta: Enl     =       -98.755617
siesta: DEna    =       -60.986840
siesta: DUscf   =         9.332051
siesta: DUext   =         0.000000
siesta: Exc     =      -301.348456
siesta: eta*DQ  =         0.000000
siesta: Emadel  =         0.000000
siesta: Emeta   =         0.000000
siesta: Emolmec =         0.000000
siesta: Ekinion =         0.000000
siesta: Eharris =     -1132.842147
siesta: Etot    =     -1125.695069
siesta: FreeEng =     -1125.695069

siesta: Final energy (eV):
siesta:  Band Struct. =    -348.928287
siesta:       Kinetic =     856.055785
siesta:       Hartree =     919.562327
siesta:    Ext. field =       0.000000
siesta:   Exch.-corr. =    -301.348456
siesta:  Ion-electron =   -2521.994029
siesta:       Ion-ion =     -77.970697
siesta:       Ekinion =       0.000000
siesta:         Total =   -1125.695069

siesta: Atomic forces (eV/Ang):
siesta:      1   -1.196623    0.919487    1.066337
siesta:      2   -0.213888   -0.513094   -0.044660
siesta:      3    0.025972   -0.358166   -0.039324
siesta:      4   -0.034803    0.946186   -0.080349
siesta:      5    0.027570   -0.410222    0.077852
siesta:      6    0.086582   -0.515662    0.021931
siesta:      7   17.324691  -42.323543   18.651021
siesta:      8  -17.387254   42.186936  -18.767792
siesta: ----------------------------------------
siesta:    Tot   -1.367753   -0.068078    0.885017

siesta: Stress tensor (static) (eV/Ang**3):
siesta:     0.009726    0.039732   -0.017321
siesta:     0.039732   -0.069702    0.042906
siesta:    -0.017321    0.042906    0.003082

siesta: Constrained stress tensor (static) (eV/Ang**3):
siesta:     0.009726    0.039732   -0.017321
siesta:     0.039732   -0.069702    0.042906
siesta:    -0.017321    0.042906    0.003082

siesta: Cell volume =        507.059448 Ang**3

siesta: Pressure (static):
siesta:                Solid            Molecule  Units
siesta:           0.00020655          0.00021588  Ry/Bohr**3
siesta:           0.01896478          0.01982091  eV/Ang**3
siesta:          30.38526259         31.75694476  kBar
(Free)E+ p_basis*V_orbitals  =       -1122.544231
(Free)Eharris+ p_basis*V_orbitals  =       -1129.691309
>> End of run:   2-JUL-2017  11:56:19
Job completed
