Siesta Version: siesta-2.0.1
Architecture  : intel9-mkl8
Compiler flags: ifort -w -O2 -mp
SERIAL version

* Running in serial mode
>> Start of run:  19-DEC-2006  16:43:36

                           ***********************       
                           *  WELCOME TO SIESTA  *       
                           ***********************       

reinit: Reading from standard input
************************** Dump of input data file ****************************
# A convoluted example of zmatrix input, for testing
SystemName zmatrix
SystemLabel zmatrix
NumberOfSpecies 3
NumberOfAtoms   8
%block ChemicalSpeciesLabel
1    8 O
2    1 H
3   14 Si
%endblock ChemicalSpeciesLabel
WriteCoor T
WriteForces T
LatticeConstant 1.0 Ang
%block LatticeVectors
8.0 2.0 1.0
0.5 8 0.9
1 2.5 8
%endblock LatticeVectors
ZM.ForceTolLen 0.04 eV/Ang
ZM.ForceTolAng 0.0001 eV/deg
ZM.MaxDisplLen 0.5 Ang
ZM.MaxDisplAng 20.0 deg
ZM.UnitsLength Ang
ZM.UnitsAngle deg
%block Zmatrix < Zmatrix.data
xc.functional LDA
xc.authors PZ
HarrisFunctional T
MD.TypeOfRun CG
MD.NumCGsteps 4
MeshCutoff 60 Ry
PAO.EnergyShift 0.01 Ry
DM.NumberPulay 5
DM.MixingWeight 0.3
************************** End of input data file *****************************

reinit: -----------------------------------------------------------------------
reinit: System Name: zmatrix                                                    
reinit: -----------------------------------------------------------------------
reinit: System Label: zmatrix                                                     
reinit: -----------------------------------------------------------------------

initatom: Reading input for the pseudopotentials and atomic orbitals ----------
 Species number:            1  Label: O Atomic number:           8
 Species number:            2  Label: H Atomic number:           1
 Species number:            3  Label: Si Atomic number:          14
Ground state valence configuration:   2s02  2p04
Reading pseudopotential information in formatted form from O.psf
Ground state valence configuration:   1s01
Reading pseudopotential information in formatted form from H.psf
Ground state valence configuration:   3s02  3p02
Reading pseudopotential information in formatted form from Si.psf
For O, standard SIESTA heuristics set lmxkb to 3
 (one more than the basis l, including polarization orbitals).
Use PS.lmax or PS.KBprojectors blocks to override.
For H, standard SIESTA heuristics set lmxkb to 2
 (one more than the basis l, including polarization orbitals).
Use PS.lmax or PS.KBprojectors blocks to override.
For Si, standard SIESTA heuristics set lmxkb to 3
 (one more than the basis l, including polarization orbitals).
Use PS.lmax or PS.KBprojectors blocks to override.

<basis_specs>
===============================================================================
O                    Z=   8    Mass=  16.000        Charge=  0.0000    
Lmxo=1 Lmxkb=3     BasisType=split      Semic=F
L=0  Nsemic=0  Cnfigmx=2
          n=1  nzeta=2  polorb=0
               vcte:    0.0000    
               rinn:    0.0000    
                rcs:    0.0000      0.0000    
            lambdas:    1.0000      1.0000    
L=1  Nsemic=0  Cnfigmx=2
          n=1  nzeta=2  polorb=1
               vcte:    0.0000    
               rinn:    0.0000    
                rcs:    0.0000      0.0000    
            lambdas:    1.0000      1.0000    
-------------------------------------------------------------------------------
L=0  Nkbl=1  erefs: 0.17977+309
L=1  Nkbl=1  erefs: 0.17977+309
L=2  Nkbl=1  erefs: 0.17977+309
L=3  Nkbl=1  erefs: 0.17977+309
===============================================================================
</basis_specs>

atom: Called for O   (Z =   8)

read_vps: Pseudopotential generation method:
read_vps: ATM3      Troullier-Martins                       

read_vps: Valence configuration (pseudopotential and basis set generation):
2s( 2.00) rc: 1.14
2p( 4.00) rc: 1.14
3d( 0.00) rc: 1.14
4f( 0.00) rc: 1.14
Total valence charge:    6.00000

xc_check: Exchange-correlation functional:
xc_check: Ceperley-Alder
V l=0 = -2*Zval/r beyond r=  1.1278
V l=1 = -2*Zval/r beyond r=  1.1278
V l=2 = -2*Zval/r beyond r=  1.1278
V l=3 = -2*Zval/r beyond r=  1.1138
All V_l potentials equal beyond r=  1.1278
This should be close to max(r_c) in ps generation
All pots = -2*Zval/r beyond r=  1.1278

VLOCAL1: 99.0% of the norm of Vloc inside     34.126 Ry
VLOCAL1: 99.9% of the norm of Vloc inside     77.774 Ry
atom: Maximum radius for 4*pi*r*r*local-pseudopot. charge    1.37759
atom: Maximum radius for r*vlocal+2*Zval:    1.18566
GHOST: No ghost state for L =  0
GHOST: No ghost state for L =  1
GHOST: No ghost state for L =  2
GHOST: No ghost state for L =  3

KBgen: Kleinman-Bylander projectors: 
   l= 0   rc=  1.294105   el= -1.742414   Ekb=  9.135903   kbcos=  0.326910
   l= 1   rc=  1.294105   el= -0.676589   Ekb= -8.124878   kbcos= -0.395047
   l= 2   rc=  1.448233   el=  0.002386   Ekb= -2.039267   kbcos= -0.003484
   l= 3   rc=  1.561052   el=  0.003508   Ekb= -0.799141   kbcos= -0.000344

KBgen: Total number of  Kleinman-Bylander projectors:   16
atom: -------------------------------------------------------------------------

atom: SANKEY-TYPE ORBITALS:
atom: Selected multiple-zeta basis: split     

SPLIT: Orbitals with angular momentum L= 0

SPLIT: Basis orbitals for state 2s

SPLIT: PAO cut-off radius determined from an
SPLIT: energy shift=  0.010000 Ry

   izeta = 1
                 lambda =    1.000000
                     rc =    3.562532
                 energy =   -1.732600
                kinetic =    1.577294
    potential(screened) =   -3.309894
       potential(ionic) =  -11.240760

   izeta = 2
                 rmatch =    2.541963
              splitnorm =    0.150000
                 energy =   -1.504672
                kinetic =    2.374987
    potential(screened) =   -3.879659
       potential(ionic) =  -12.401042

SPLIT: Orbitals with angular momentum L= 1

SPLIT: Basis orbitals for state 2p

SPLIT: PAO cut-off radius determined from an
SPLIT: energy shift=  0.010000 Ry

   izeta = 1
                 lambda =    1.000000
                     rc =    4.351355
                 energy =   -0.667669
                kinetic =    4.894715
    potential(screened) =   -5.562384
       potential(ionic) =  -13.283144

   izeta = 2
                 rmatch =    2.606321
              splitnorm =    0.150000
                 energy =   -0.413426
                kinetic =    7.271280
    potential(screened) =   -7.684706
       potential(ionic) =  -16.331022

POLgen: Perturbative polarization orbital with L=  2

POLgen: Polarization orbital for state 2p

   izeta = 1
                     rc =    4.351355
                 energy =    2.201853
                kinetic =    4.360449
    potential(screened) =   -2.158596
       potential(ionic) =   -8.257377
atom: Total number of Sankey-type orbitals: 13

atm_pop: Valence configuration(local Pseudopot. screening):
 2s( 2.00)                                                            
 2p( 4.00)                                                            
Vna: chval, zval:    6.00000   6.00000

Vna:  Cut-off radius for the neutral-atom potential:   4.351355

atom: _________________________________________________________________________

<basis_specs>
===============================================================================
H                    Z=   1    Mass=  1.0100        Charge=  0.0000    
Lmxo=0 Lmxkb=2     BasisType=split      Semic=F
L=0  Nsemic=0  Cnfigmx=1
          n=1  nzeta=2  polorb=1
               vcte:    0.0000    
               rinn:    0.0000    
                rcs:    0.0000      0.0000    
            lambdas:    1.0000      1.0000    
-------------------------------------------------------------------------------
L=0  Nkbl=1  erefs: 0.17977+309
L=1  Nkbl=1  erefs: 0.17977+309
L=2  Nkbl=1  erefs: 0.17977+309
===============================================================================
</basis_specs>

atom: Called for H   (Z =   1)

read_vps: Pseudopotential generation method:
read_vps: ATM3      Troullier-Martins                       

read_vps: Valence configuration (pseudopotential and basis set generation):
1s( 1.00) rc: 1.25
2p( 0.00) rc: 1.25
3d( 0.00) rc: 1.25
Total valence charge:    1.00000

xc_check: Exchange-correlation functional:
xc_check: Ceperley-Alder
V l=0 = -2*Zval/r beyond r=  1.2343
V l=1 = -2*Zval/r beyond r=  1.2189
V l=2 = -2*Zval/r beyond r=  1.2189
All V_l potentials equal beyond r=  1.2343
This should be close to max(r_c) in ps generation
All pots = -2*Zval/r beyond r=  1.2343

VLOCAL1: 99.0% of the norm of Vloc inside     28.493 Ry
VLOCAL1: 99.9% of the norm of Vloc inside     64.935 Ry
atom: Maximum radius for 4*pi*r*r*local-pseudopot. charge    1.45251
atom: Maximum radius for r*vlocal+2*Zval:    1.21892
GHOST: No ghost state for L =  0
GHOST: No ghost state for L =  1
GHOST: No ghost state for L =  2

KBgen: Kleinman-Bylander projectors: 
   l= 0   rc=  1.364359   el= -0.467325   Ekb= -2.005361   kbcos= -0.336422
   l= 1   rc=  1.434438   el=  0.001430   Ekb= -0.501708   kbcos= -0.021697
   l= 2   rc=  1.470814   el=  0.002365   Ekb= -0.190555   kbcos= -0.002281

KBgen: Total number of  Kleinman-Bylander projectors:    9
atom: -------------------------------------------------------------------------

atom: SANKEY-TYPE ORBITALS:
atom: Selected multiple-zeta basis: split     

SPLIT: Orbitals with angular momentum L= 0

SPLIT: Basis orbitals for state 1s

SPLIT: PAO cut-off radius determined from an
SPLIT: energy shift=  0.010000 Ry

   izeta = 1
                 lambda =    1.000000
                     rc =    5.336316
                 energy =   -0.457946
                kinetic =    0.886710
    potential(screened) =   -1.344656
       potential(ionic) =   -1.876618

   izeta = 2
                 rmatch =    4.002347
              splitnorm =    0.150000
                 energy =   -0.355904
                kinetic =    1.439488
    potential(screened) =   -1.795392
       potential(ionic) =   -2.364690

POLgen: Perturbative polarization orbital with L=  1

POLgen: Polarization orbital for state 1s

   izeta = 1
                     rc =    5.336316
                 energy =    0.616245
                kinetic =    1.262150
    potential(screened) =   -0.645906
       potential(ionic) =   -1.116519
atom: Total number of Sankey-type orbitals:  5

atm_pop: Valence configuration(local Pseudopot. screening):
 1s( 1.00)                                                            
Vna: chval, zval:    1.00000   1.00000

Vna:  Cut-off radius for the neutral-atom potential:   5.336316

atom: _________________________________________________________________________

<basis_specs>
===============================================================================
Si                   Z=  14    Mass=  28.090        Charge=  0.0000    
Lmxo=1 Lmxkb=3     BasisType=split      Semic=F
L=0  Nsemic=0  Cnfigmx=3
          n=1  nzeta=2  polorb=0
               vcte:    0.0000    
               rinn:    0.0000    
                rcs:    0.0000      0.0000    
            lambdas:    1.0000      1.0000    
L=1  Nsemic=0  Cnfigmx=3
          n=1  nzeta=2  polorb=1
               vcte:    0.0000    
               rinn:    0.0000    
                rcs:    0.0000      0.0000    
            lambdas:    1.0000      1.0000    
-------------------------------------------------------------------------------
L=0  Nkbl=1  erefs: 0.17977+309
L=1  Nkbl=1  erefs: 0.17977+309
L=2  Nkbl=1  erefs: 0.17977+309
L=3  Nkbl=1  erefs: 0.17977+309
===============================================================================
</basis_specs>

atom: Called for Si  (Z =  14)

read_vps: Pseudopotential generation method:
read_vps: ATM3      Troullier-Martins                       

read_vps: Valence configuration (pseudopotential and basis set generation):
3s( 2.00) rc: 1.89
3p( 2.00) rc: 1.89
3d( 0.00) rc: 1.89
4f( 0.00) rc: 1.89
Total valence charge:    4.00000

xc_check: Exchange-correlation functional:
xc_check: Ceperley-Alder
V l=0 = -2*Zval/r beyond r=  2.5494
V l=1 = -2*Zval/r beyond r=  2.5494
V l=2 = -2*Zval/r beyond r=  2.5494
V l=3 = -2*Zval/r beyond r=  2.5494
All V_l potentials equal beyond r=  1.8652
This should be close to max(r_c) in ps generation
All pots = -2*Zval/r beyond r=  2.5494
Using large-core scheme for Vlocal

atom: Estimated core radius    2.54944

atom: Including non-local core corrections could be a good idea
atom: Maximum radius for 4*pi*r*r*local-pseudopot. charge    2.85303
atom: Maximum radius for r*vlocal+2*Zval:    2.58151
GHOST: No ghost state for L =  0
GHOST: No ghost state for L =  1
GHOST: No ghost state for L =  2
GHOST: No ghost state for L =  3

KBgen: Kleinman-Bylander projectors: 
   l= 0   rc=  1.936440   el= -0.796617   Ekb=  4.661340   kbcos=  0.299756
   l= 1   rc=  1.936440   el= -0.307040   Ekb=  1.494238   kbcos=  0.301471
   l= 2   rc=  1.936440   el=  0.002313   Ekb= -2.808672   kbcos= -0.054903
   l= 3   rc=  1.936440   el=  0.003402   Ekb= -0.959059   kbcos= -0.005513

KBgen: Total number of  Kleinman-Bylander projectors:   16
atom: -------------------------------------------------------------------------

atom: SANKEY-TYPE ORBITALS:
atom: Selected multiple-zeta basis: split     

SPLIT: Orbitals with angular momentum L= 0

SPLIT: Basis orbitals for state 3s

SPLIT: PAO cut-off radius determined from an
SPLIT: energy shift=  0.010000 Ry

   izeta = 1
                 lambda =    1.000000
                     rc =    5.397360
                 energy =   -0.786473
                kinetic =    0.546491
    potential(screened) =   -1.332964
       potential(ionic) =   -3.793893

   izeta = 2
                 rmatch =    4.474538
              splitnorm =    0.150000
                 energy =   -0.690041
                kinetic =    0.854339
    potential(screened) =   -1.544380
       potential(ionic) =   -4.120474

SPLIT: Orbitals with angular momentum L= 1

SPLIT: Basis orbitals for state 3p

SPLIT: PAO cut-off radius determined from an
SPLIT: energy shift=  0.010000 Ry

   izeta = 1
                 lambda =    1.000000
                     rc =    6.930397
                 energy =   -0.298036
                kinetic =    0.832892
    potential(screened) =   -1.130928
       potential(ionic) =   -3.361641

   izeta = 2
                 rmatch =    5.198700
              splitnorm =    0.150000
                 energy =   -0.218749
                kinetic =    1.203229
    potential(screened) =   -1.421978
       potential(ionic) =   -3.849753

POLgen: Perturbative polarization orbital with L=  2

POLgen: Polarization orbital for state 3p

   izeta = 1
                     rc =    6.930397
                 energy =    0.377307
                kinetic =    1.185358
    potential(screened) =   -0.808051
       potential(ionic) =   -2.819307
atom: Total number of Sankey-type orbitals: 13

atm_pop: Valence configuration(local Pseudopot. screening):
 3s( 2.00)                                                            
 3p( 2.00)                                                            
Vna: chval, zval:    4.00000   4.00000

Vna:  Cut-off radius for the neutral-atom potential:   6.930397

atom: _________________________________________________________________________

prinput: Basis input ----------------------------------------------------------

PAO.BasisType split     

%block ChemicalSpeciesLabel
    1    8 O                       # Species index, atomic number, species label
    2    1 H                       # Species index, atomic number, species label
    3   14 Si                      # Species index, atomic number, species label
%endblock ChemicalSpeciesLabel

%block PAO.Basis                 # Define Basis set
O           2                    # Species label, number of l-shells
 n=2   0   2                         # n, l, Nzeta 
   3.563      2.542   
   1.000      1.000   
 n=2   1   2 P   1                   # n, l, Nzeta, Polarization, NzetaPol
   4.351      2.606   
   1.000      1.000   
H           1                    # Species label, number of l-shells
 n=1   0   2 P   1                   # n, l, Nzeta, Polarization, NzetaPol
   5.336      4.002   
   1.000      1.000   
Si          2                    # Species label, number of l-shells
 n=3   0   2                         # n, l, Nzeta 
   5.397      4.475   
   1.000      1.000   
 n=3   1   2 P   1                   # n, l, Nzeta, Polarization, NzetaPol
   6.930      5.199   
   1.000      1.000   
%endblock PAO.Basis

prinput: ----------------------------------------------------------------------


siesta: ******************** Simulation parameters ****************************
siesta:
siesta: The following are some of the parameters of the simulation.
siesta: A complete list of the parameters used, including default values,
siesta: can be found in file out.fdf
siesta:
coor:   Atomic-coordinates input format  =     Cartesian coordinates
coor:                                            (in Bohr units)
read_Zmatrix: Length units: Ang       
read_Zmatrix: Angle  units: deg       
read_Zmatrix: Force tolerances:
read_Zmatrix:    for lengths =     0.001556 Ry/Bohr
read_Zmatrix:    for angles  =     0.003565 Ry/rad

read_Zmatrix: Maximum displacements:
read_Zmatrix:    for lengths =     0.200000 Bohr
read_Zmatrix:    for angles  =     0.003000 rad
%block Zmatrix
molecule_cartesian
  1 0 0 0   X Y Z 0 0 0
  2 1 0 0   HO1 THETA PHI 0 0 0
  2 1 2 0   HO2 HOH TAU 0 0 0
molecule_fractional
  1 0 0 0   X2 Y2 Z2 0 0 0
  2 1 0 0   HO1 THETA PHI 0 0 0
  2 1 2 0   HO2 HOH TAU 0 0 0
fractional
 3  0.8 SiX 0.8   0 0 0
 3  0.75  0.75 SiZ  0 0 0
variables
    X   0.1
    Y   0.11
    Z   0.12
    X2   0.5
    Y2   0.5
    Z2   0.5
    THETA  90.0
    PHI    37.0
    TAU    90.0
    SiX    0.85
constants
    HO1 0.956997
    HO2 0.956997
    HOH 104.0
    SiZ 0.75
%endblock Zmatrix

zmatrix: Z-matrix coordinates: (Ang ; deg )
zmatrix: (Fractional coordinates have been converted to cartesian)
molecule    1 (     3 atoms)
      0.10000000      0.11000000      0.12000000
      0.95699700     90.00000000     37.00000000
      0.95699700    104.00000000     90.00000000
molecule    2 (     3 atoms)
      4.75000000      6.25000000      4.95000000
      0.95699700     90.00000000     37.00000000
      0.95699700    104.00000000     90.00000000
cartesian block    1 (     2 atoms)
      7.62500000     10.40000000      7.96500000
      7.12500000      9.37500000      7.42500000


Z-matrix Symbol Section -------
Variables
 x           0.100000000000000     
 y           0.110000000000000     
 z           0.120000000000000     
 theta        90.0000000000001     
 phi          37.0000000000000     
 tau          90.0000000000001     
 x2          0.500000000000000     
 y2          0.500000000000000     
 z2          0.500000000000000     
 six         0.850000000000000     
Constants
 ho1         0.956997000000000     
 ho2         0.956997000000000     
 hoh          104.000000000000     
 siz         0.750000000000000     
------------ End of Z-matrix Information

redata: Number of spin components        =     1
redata: Long output                      =     F
redata: Number of Atomic Species         =     3
redata: Charge density info will appear in .RHO file
redata: Write Mulliken Pop.              =     NO
redata: Mesh Cutoff                      =    60.0000  Ry
redata: Net charge of the system         =     0.0000 |e|
redata: Max. number of SCF Iter          =    50
redata: Performing Pulay mixing using    =     5 iterations
redata: Mix DM in first SCF step ?       =     F
redata: Write Pulay info on disk?        =     F
redata: New DM Mixing Weight             =     0.3000
redata: New DM Occupancy tolerance       = 0.000000000001
redata: No kicks to SCF
redata: DM Mixing Weight for Kicks       =     0.5000
redata: DM Tolerance for SCF             =     0.000100
redata: Require Energy convergence for SCF =     F
redata: DM Energy tolerance for SCF      =     0.000100 eV
redata: Using Saved Data (generic)   =     F
redata: Use continuation files for DM    =     F
redata: Neglect nonoverlap interactions  =     F
redata: Method of Calculation            =     Diagonalization
redata: Divide and Conquer               =     T
redata: Electronic Temperature           =     0.0019  Ry
redata: Fix the spin of the system       =     F
redata: Dynamics option                  =     CG coord. optimization
redata: Variable cell                    =     F
redata: Use continuation files for CG    =     F
redata: Max atomic displ per move        =     0.2000  Bohr
redata: Maximum number of CG moves       =     4
redata: Force tolerance                  =     0.0016  Ry/Bohr
redata: ***********************************************************************

siesta: Atomic coordinates (Bohr) and species
siesta:      0.18897   0.20787   0.22677  1        1
siesta:      1.63328   1.29623   0.22677  2        2
siesta:     -1.21647   1.34597   0.22677  2        3
siesta:      8.97620  11.81079   9.35415  1        4
siesta:     10.42051  12.89915   9.35415  2        5
siesta:      7.57076  12.94890   9.35415  2        6
siesta:     14.40917  19.65316  15.05167  3        7
siesta:     13.46430  17.71619  14.03122  3        8

initatomlists: Number of atoms, orbitals, and projectors:      8    72   100

siesta: System type = bulk      

siesta: k-grid: Number of k-points =     1
siesta: k-grid: Cutoff (effective) =     4.033 Ang
siesta: k-grid: Supercell and displacements
siesta: k-grid:    0   1   0      0.000
siesta: k-grid:    1   0   0      0.000
siesta: k-grid:    0   0   1      0.000

* Maximum dynamic memory allocated =     1 MB

siesta:                 ==============================
                            Begin CG move =      0
                        ==============================

zmatrix: Z-matrix coordinates: (Ang ; deg )
zmatrix: (Fractional coordinates have been converted to cartesian)
molecule    1 (     3 atoms)
      0.10000000      0.11000000      0.12000000
      0.95699700     90.00000000     37.00000000
      0.95699700    104.00000000     90.00000000
molecule    2 (     3 atoms)
      4.75000000      6.25000000      4.95000000
      0.95699700     90.00000000     37.00000000
      0.95699700    104.00000000     90.00000000
cartesian block    1 (     2 atoms)
      7.62500000     10.40000000      7.96500000
      7.12500000      9.37500000      7.42500000


Z-matrix Symbol Section -------
Variables
 x           0.100000000000000     
 y           0.110000000000000     
 z           0.120000000000000     
 theta        90.0000000000001     
 phi          37.0000000000000     
 tau          90.0000000000001     
 x2          0.500000000000000     
 y2          0.500000000000000     
 z2          0.500000000000000     
 six         0.850000000000000     
Constants
 ho1         0.956997000000000     
 ho2         0.956997000000000     
 hoh          104.000000000000     
 siz         0.750000000000000     
------------ End of Z-matrix Information


outcell: Unit cell vectors (Ang):
        8.000000    2.000000    1.000000
        0.500000    8.000000    0.900000
        1.000000    2.500000    8.000000

outcell: Cell vector modules (Ang)   :    8.306624    8.065978    8.440972
outcell: Cell angles (23,13,12) (deg):     65.9931     72.5722     71.8241
outcell: Cell volume (Ang**3)        :    481.0500

InitMesh: MESH =    40 x    36 x    36 =       51840
InitMesh: Mesh cutoff (required, used) =    60.000    62.724 Ry

* Maximum dynamic memory allocated =    10 MB

stepf: Fermi-Dirac step function

siesta: Program's energy decomposition (eV):
siesta: Eions   =      2012.511081
siesta: Ena     =       487.794817
siesta: Ekin    =       741.932135
siesta: Enl     =       -51.165545
siesta: DEna    =         0.000004
siesta: DUscf   =         0.000000
siesta: DUext   =         0.000000
siesta: Exc     =      -278.752525
siesta: eta*DQ  =         0.000000
siesta: Emadel  =         0.000000
siesta: Ekinion =         0.000000
siesta: Eharris =     -1122.280180
siesta: Etot    =     -1112.702194
siesta: FreeEng =     -1112.702194

siesta: Eharris(eV) =   -1122.280180


siesta: Eharris(eV) =   -1122.280180

timer: Routine,Calls,Time,% = IterSCF        1       7.958  70.70
elaps: Routine,Calls,Wall,% = IterSCF        1       7.965  69.48

siesta: E_KS - E_eggbox =     -1115.2952

zmatrix: Atomic forces (eV/Ang ; eV/deg )
zmatrix: (No information if symbols are used)
molecule    1 (     3 atoms)
     1    0.000000    0.000000    0.000000
     2    0.000000    0.000000    0.000000
     3    0.000000    0.000000    0.000000
molecule    2 (     3 atoms)
     4    0.000000    0.000000    0.000000
     5    0.000000    0.000000    0.000000
     6    0.000000    0.000000    0.000000
cartesian    1 (     2 atoms)
     7    0.000000    0.000000    0.000000
     8    0.000000    0.000000    0.000000


Variable forces (eV/Ang ; eV/deg )
 x          -0.445584225732197     
 y          -0.345303148136733     
 z           0.725291629140223     
 theta      -2.250732163745101E-004
 phi        -2.274194723412195E-004
 tau        -3.677047683736867E-004
 x2         -4.718355216983228E-002
 y2          0.219656263596053     
 z2         -4.100721158271641E-002
 six          66.8049693228972     

siesta: Atomic forces (eV/Ang):
     1   -0.437007    0.585047    0.700233
     2   -0.061189   -0.503466   -0.000422
     3    0.052612   -0.426883    0.025481
     4   -0.019590    1.197295   -0.057601
     5   -0.066877   -0.458368    0.019386
     6    0.039283   -0.519270   -0.002793
     7   32.601963   66.804969   35.168437
     8  -32.537613  -66.770262  -35.130341
----------------------------------------
   Tot   -0.428418   -0.090940    0.722380
----------------------------------------
   Max   66.804969
   Res   23.732103    sqrt( Sum f_i^2 / 3N )
----------------------------------------
   Max   66.804969    constrained

Stress-tensor-Voigt (kbar):       -7.65     -176.64      -25.13     -107.78     -116.52      -56.68
Target enthalpy (eV/cell)    -1115.2952

* Maximum dynamic memory allocated =    10 MB

siesta:                 ==============================
                            Begin CG move =      1
                        ==============================

zmatrix: Z-matrix coordinates: (Ang ; deg )
zmatrix: (Fractional coordinates have been converted to cartesian)
molecule    1 (     3 atoms)
      0.09929409      0.10945296      0.12114904
      0.95699700     89.99581987     36.99577630
      0.95699700    104.00000000     89.99317088
molecule    2 (     3 atoms)
      4.74992525      6.25034799      4.94993503
      0.95699700     89.99581987     36.99577630
      0.95699700    104.00000000     89.99317088
cartesian block    1 (     2 atoms)
      7.62500000     10.50583540      7.96500000
      7.12500000      9.37500000      7.42500000


Z-matrix Symbol Section -------
Variables
 x           9.929408567593048E-002
 y           0.109452955413726     
 z           0.121149039217662     
 theta        89.9958198742296     
 phi          36.9957762988758     
 tau          89.9931708792234     
 x2          0.499989073735498     
 y2          0.500050102540386     
 z2          0.499987608566494     
 six         0.863860576239476     
Constants
 ho1         0.956997000000000     
 ho2         0.956997000000000     
 hoh          104.000000000000     
 siz         0.750000000000000     
------------ End of Z-matrix Information


outcell: Unit cell vectors (Ang):
        8.000000    2.000000    1.000000
        0.500000    8.000000    0.900000
        1.000000    2.500000    8.000000

outcell: Cell vector modules (Ang)   :    8.306624    8.065978    8.440972
outcell: Cell angles (23,13,12) (deg):     65.9931     72.5722     71.8241
outcell: Cell volume (Ang**3)        :    481.0500

siesta: Eharris(eV) =   -1128.597468


siesta: Eharris(eV) =   -1128.597468


zmatrix: Atomic forces (eV/Ang ; eV/deg )
zmatrix: (No information if symbols are used)
molecule    1 (     3 atoms)
     1    0.000000    0.000000    0.000000
     2    0.000000    0.000000    0.000000
     3    0.000000    0.000000    0.000000
molecule    2 (     3 atoms)
     4    0.000000    0.000000    0.000000
     5    0.000000    0.000000    0.000000
     6    0.000000    0.000000    0.000000
cartesian    1 (     2 atoms)
     7    0.000000    0.000000    0.000000
     8    0.000000    0.000000    0.000000


Variable forces (eV/Ang ; eV/deg )
 x          -0.473079824642362     
 y          -0.346286036100352     
 z           0.712400021443917     
 theta      -1.531283448180865E-004
 phi        -3.062683202106679E-004
 tau        -4.346123077076347E-004
 x2         -3.817545264630243E-002
 y2          0.192828618983893     
 z2         -4.071351018359579E-002
 six          52.6888560867808     

siesta: Atomic forces (eV/Ang):
     1   -0.466023    0.571998    0.687111
     2   -0.054164   -0.500991   -0.003400
     3    0.047107   -0.417294    0.028689
     4   -0.008499    1.170395   -0.057636
     5   -0.067631   -0.458126    0.018926
     6    0.037955   -0.519440   -0.002003
     7   23.316003   52.688856   25.146535
     8  -23.244010  -52.638366  -25.096436
----------------------------------------
   Tot   -0.439262   -0.102967    0.721786
----------------------------------------
   Max   52.688856
   Res   18.138724    sqrt( Sum f_i^2 / 3N )
----------------------------------------
   Max   52.688856    constrained

Stress-tensor-Voigt (kbar):        8.07     -145.97       -6.82      -84.12      -90.93      -39.93
Target enthalpy (eV/cell)    -1121.5300

* Maximum dynamic memory allocated =    10 MB

siesta:                 ==============================
                            Begin CG move =      2
                        ==============================

zmatrix: Z-matrix coordinates: (Ang ; deg )
zmatrix: (Fractional coordinates have been converted to cartesian)
molecule    1 (     3 atoms)
      0.09858817      0.10890591      0.12229808
      0.95699700     89.99163975     36.99155260
      0.95699700    104.00000000     89.98634176
molecule    2 (     3 atoms)
      4.74985050      6.25069598      4.94987007
      0.95699700     89.99163975     36.99155260
      0.95699700    104.00000000     89.98634176
cartesian block    1 (     2 atoms)
      7.62500000     10.61167080      7.96500000
      7.12500000      9.37500000      7.42500000


Z-matrix Symbol Section -------
Variables
 x           9.858817135186097E-002
 y           0.108905910827451     
 z           0.122298078435324     
 theta        89.9916397484591     
 phi          36.9915525977515     
 tau          89.9863417584468     
 x2          0.499978147470997     
 y2          0.500100205080773     
 z2          0.499975217132988     
 six         0.877721152478952     
Constants
 ho1         0.956997000000000     
 ho2         0.956997000000000     
 hoh          104.000000000000     
 siz         0.750000000000000     
------------ End of Z-matrix Information


outcell: Unit cell vectors (Ang):
        8.000000    2.000000    1.000000
        0.500000    8.000000    0.900000
        1.000000    2.500000    8.000000

outcell: Cell vector modules (Ang)   :    8.306624    8.065978    8.440972
outcell: Cell angles (23,13,12) (deg):     65.9931     72.5722     71.8241
outcell: Cell volume (Ang**3)        :    481.0500

siesta: Eharris(eV) =   -1133.484807


siesta: Eharris(eV) =   -1133.484807


zmatrix: Atomic forces (eV/Ang ; eV/deg )
zmatrix: (No information if symbols are used)
molecule    1 (     3 atoms)
     1    0.000000    0.000000    0.000000
     2    0.000000    0.000000    0.000000
     3    0.000000    0.000000    0.000000
molecule    2 (     3 atoms)
     4    0.000000    0.000000    0.000000
     5    0.000000    0.000000    0.000000
     6    0.000000    0.000000    0.000000
cartesian    1 (     2 atoms)
     7    0.000000    0.000000    0.000000
     8    0.000000    0.000000    0.000000


Variable forces (eV/Ang ; eV/deg )
 x          -0.502429354428797     
 y          -0.342054225017513     
 z           0.717524545760660     
 theta      -6.463971689008757E-005
 phi        -2.786637314864929E-004
 tau        -5.026464562233110E-004
 x2         -3.192259944428317E-002
 y2          0.166056349308186     
 z2         -4.150472060850874E-002
 six          39.9199688644729     

siesta: Atomic forces (eV/Ang):
     1   -0.497956    0.564555    0.692841
     2   -0.045138   -0.494235   -0.007122
     3    0.040664   -0.412374    0.031806
     4   -0.000086    1.143481   -0.058690
     5   -0.068252   -0.457922    0.018238
     6    0.036416   -0.519502   -0.001053
     7   16.171225   39.919969   17.425734
     8  -16.098097  -39.874472  -17.381258
----------------------------------------
   Tot   -0.461224   -0.130501    0.720496
----------------------------------------
   Max   39.919969
   Res   13.405940    sqrt( Sum f_i^2 / 3N )
----------------------------------------
   Max   39.919969    constrained

Stress-tensor-Voigt (kbar):       19.93     -111.61        6.93      -62.97      -68.07      -27.15
Target enthalpy (eV/cell)    -1126.3907

* Maximum dynamic memory allocated =    10 MB

siesta:                 ==============================
                            Begin CG move =      3
                        ==============================

zmatrix: Z-matrix coordinates: (Ang ; deg )
zmatrix: (Fractional coordinates have been converted to cartesian)
molecule    1 (     3 atoms)
      0.09788226      0.10835887      0.12344712
      0.95699700     89.98745962     36.98732890
      0.95699700    104.00000000     89.97951264
molecule    2 (     3 atoms)
      4.74977575      6.25104397      4.94980510
      0.95699700     89.98745962     36.98732890
      0.95699700    104.00000000     89.97951264
cartesian block    1 (     2 atoms)
      7.62500000     10.71750620      7.96500000
      7.12500000      9.37500000      7.42500000


Z-matrix Symbol Section -------
Variables
 x           9.788225702779145E-002
 y           0.108358866241177     
 z           0.123447117652986     
 theta        89.9874596226886     
 phi          36.9873288966272     
 tau          89.9795126376701     
 x2          0.499967221206495     
 y2          0.500150307621159     
 z2          0.499962825699481     
 six         0.891581728718428     
Constants
 ho1         0.956997000000000     
 ho2         0.956997000000000     
 hoh          104.000000000000     
 siz         0.750000000000000     
------------ End of Z-matrix Information


outcell: Unit cell vectors (Ang):
        8.000000    2.000000    1.000000
        0.500000    8.000000    0.900000
        1.000000    2.500000    8.000000

outcell: Cell vector modules (Ang)   :    8.306624    8.065978    8.440972
outcell: Cell angles (23,13,12) (deg):     65.9931     72.5722     71.8241
outcell: Cell volume (Ang**3)        :    481.0500

siesta: Eharris(eV) =   -1137.109828


siesta: Eharris(eV) =   -1137.109828


zmatrix: Atomic forces (eV/Ang ; eV/deg )
zmatrix: (No information if symbols are used)
molecule    1 (     3 atoms)
     1    0.000000    0.000000    0.000000
     2    0.000000    0.000000    0.000000
     3    0.000000    0.000000    0.000000
molecule    2 (     3 atoms)
     4    0.000000    0.000000    0.000000
     5    0.000000    0.000000    0.000000
     6    0.000000    0.000000    0.000000
cartesian    1 (     2 atoms)
     7    0.000000    0.000000    0.000000
     8    0.000000    0.000000    0.000000


Variable forces (eV/Ang ; eV/deg )
 x          -0.527895318339893     
 y          -0.335404248584003     
 z           0.709525460897116     
 theta       2.632787589484044E-005
 phi        -2.837450992406006E-004
 tau        -5.534684883688976E-004
 x2         -2.562169266477579E-002
 y2          0.140727873817095     
 z2         -4.188798961134016E-002
 six          28.8982757159112     

siesta: Atomic forces (eV/Ang):
     1   -0.525775    0.559195    0.686457
     2   -0.036182   -0.488638   -0.010691
     3    0.034062   -0.405961    0.033760
     4    0.008477    1.117866   -0.058882
     5   -0.068806   -0.457700    0.016992
     6    0.034708   -0.519438    0.000002
     7   10.807143   28.898276   11.634011
     8  -10.726318  -28.843457  -11.581114
----------------------------------------
   Tot   -0.472692   -0.139858    0.720534
----------------------------------------
   Max   28.898276
   Res    9.512234    sqrt( Sum f_i^2 / 3N )
----------------------------------------
   Max   28.898276    constrained

Stress-tensor-Voigt (kbar):       28.66      -76.40       17.08      -44.72      -48.35      -17.51
Target enthalpy (eV/cell)    -1130.0450

* Maximum dynamic memory allocated =    10 MB

siesta:                 ==============================
                            Begin CG move =      4
                        ==============================

zmatrix: Z-matrix coordinates: (Ang ; deg )
zmatrix: (Fractional coordinates have been converted to cartesian)
molecule    1 (     3 atoms)
      0.09717634      0.10781182      0.12459616
      0.95699700     89.98327950     36.98310520
      0.95699700    104.00000000     89.97268352
molecule    2 (     3 atoms)
      4.74970100      6.25139196      4.94974014
      0.95699700     89.98327950     36.98310520
      0.95699700    104.00000000     89.97268352
cartesian block    1 (     2 atoms)
      7.62500000     10.82334160      7.96500000
      7.12500000      9.37500000      7.42500000


Z-matrix Symbol Section -------
Variables
 x           9.717634270372193E-002
 y           0.107811821654903     
 z           0.124596156870647     
 theta        89.9832794969181     
 phi          36.9831051955029     
 tau          89.9726835168934     
 x2          0.499956294941993     
 y2          0.500200410161545     
 z2          0.499950434265975     
 six         0.905442304957904     
Constants
 ho1         0.956997000000000     
 ho2         0.956997000000000     
 hoh          104.000000000000     
 siz         0.750000000000000     
------------ End of Z-matrix Information


outcell: Unit cell vectors (Ang):
        8.000000    2.000000    1.000000
        0.500000    8.000000    0.900000
        1.000000    2.500000    8.000000

outcell: Cell vector modules (Ang)   :    8.306624    8.065978    8.440972
outcell: Cell angles (23,13,12) (deg):     65.9931     72.5722     71.8241
outcell: Cell volume (Ang**3)        :    481.0500

siesta: Eharris(eV) =   -1139.674377


siesta: Eharris(eV) =   -1139.674377


zmatrix: Atomic forces (eV/Ang ; eV/deg )
zmatrix: (No information if symbols are used)
molecule    1 (     3 atoms)
     1    0.000000    0.000000    0.000000
     2    0.000000    0.000000    0.000000
     3    0.000000    0.000000    0.000000
molecule    2 (     3 atoms)
     4    0.000000    0.000000    0.000000
     5    0.000000    0.000000    0.000000
     6    0.000000    0.000000    0.000000
cartesian    1 (     2 atoms)
     7    0.000000    0.000000    0.000000
     8    0.000000    0.000000    0.000000


Variable forces (eV/Ang ; eV/deg )
 x          -0.552055901641062     
 y          -0.324729176491899     
 z           0.704932304010680     
 theta       1.491771615831734E-004
 phi        -3.302157870934435E-004
 tau        -6.338035685020209E-004
 x2         -2.043533352089110E-002
 y2          0.115546695135671     
 z2         -4.335377970367846E-002
 six          19.8519467962123     

siesta: Atomic forces (eV/Ang):
     1   -0.552290    0.554449    0.682522
     2   -0.026704   -0.482919   -0.015035
     3    0.026938   -0.396258    0.037446
     4    0.015954    1.092199   -0.059560
     5   -0.069215   -0.457416    0.015056
     6    0.032826   -0.519237    0.001150
     7    6.907314   19.851947    7.418519
     8   -6.828221  -19.804880   -7.370781
----------------------------------------
   Tot   -0.493397   -0.162115    0.709316
----------------------------------------
   Max   19.851947
   Res    6.432938    sqrt( Sum f_i^2 / 3N )
----------------------------------------
   Max   19.851947    constrained

Stress-tensor-Voigt (kbar):       34.61      -43.59       24.08      -30.00      -32.42      -10.62
Target enthalpy (eV/cell)    -1132.6893

* Maximum dynamic memory allocated =    10 MB

outcoor: Final (unrelaxed) atomic coordinates (Bohr):       
    0.18230276    0.20270113    0.23762408   1  O          1
    1.62700646    1.29052881    0.23828378   2  H          2
   -1.22271743    1.34132123    0.23851023   2  H          3
    8.97549638   11.81408101    9.35353421   1  O          4
   10.42020008   12.90190868    9.35419391   2  H          5
    7.57047619   12.95270111    9.35442036   2  H          6
   14.40916744   20.65315953   15.05167458   3  Si         7
   13.46430400   17.71618948   14.03122207   3  Si         8

zmatrix: Z-matrix coordinates: (Ang ; deg )
zmatrix: (Fractional coordinates have been converted to cartesian)
molecule    1 (     3 atoms)
      0.09647043      0.10726478      0.12574520
      0.95699700     89.97909937     36.97888149
      0.95699700    104.00000000     89.96585440
molecule    2 (     3 atoms)
      4.74962625      6.25173995      4.94967517
      0.95699700     89.97909937     36.97888149
      0.95699700    104.00000000     89.96585440
cartesian block    1 (     2 atoms)
      7.62500000     10.92917700      7.96500000
      7.12500000      9.37500000      7.42500000


Z-matrix Symbol Section -------
Variables
 x           9.647042837965242E-002
 y           0.107264777068629     
 z           0.125745196088309     
 theta        89.9790993711476     
 phi          36.9788814943786     
 tau          89.9658543961167     
 x2          0.499945368677491     
 y2          0.500250512701931     
 z2          0.499938042832469     
 six         0.919302881197380     
Constants
 ho1         0.956997000000000     
 ho2         0.956997000000000     
 hoh          104.000000000000     
 siz         0.750000000000000     
------------ End of Z-matrix Information


siesta: Program's energy decomposition (eV):
siesta: Eions   =      2012.511081
siesta: Ena     =       480.474013
siesta: Ekin    =       850.756549
siesta: Enl     =      -104.045255
siesta: DEna    =       -57.487153
siesta: DUscf   =         9.145991
siesta: DUext   =         0.000000
siesta: Exc     =      -299.022337
siesta: eta*DQ  =         0.000000
siesta: Emadel  =         0.000000
siesta: Ekinion =         0.000000
siesta: Eharris =     -1139.674377
siesta: Etot    =     -1132.689272
siesta: FreeEng =     -1132.689272

siesta: Final energy (eV):
siesta:       Kinetic =     850.756549
siesta:       Hartree =     880.171421
siesta:    Ext. field =       0.000000
siesta:   Exch.-corr. =    -299.022337
siesta:  Ion-electron =   -2440.007256
siesta:       Ion-ion =    -124.587650
siesta:       Ekinion =       0.000000
siesta:         Total =   -1132.689272

siesta: Atomic forces (eV/Ang):
siesta:      1   -0.552290    0.554449    0.682522
siesta:      2   -0.026704   -0.482919   -0.015035
siesta:      3    0.026938   -0.396258    0.037446
siesta:      4    0.015954    1.092199   -0.059560
siesta:      5   -0.069215   -0.457416    0.015056
siesta:      6    0.032826   -0.519237    0.001150
siesta:      7    6.907314   19.851947    7.418519
siesta:      8   -6.828221  -19.804880   -7.370781
siesta: ----------------------------------------
siesta:    Tot   -0.493397   -0.162115    0.709316

siesta: Stress tensor (static) (eV/Ang**3):
siesta:     0.021603   -0.018725   -0.006630
siesta:    -0.018725   -0.027208   -0.020236
siesta:    -0.006630   -0.020236    0.015030

siesta: Cell volume =        481.050000 Ang**3

siesta: Pressure (static):
siesta:                Solid            Molecule  Units
siesta:          -0.00003422         -0.00032713  Ry/Bohr**3
siesta:          -0.00314173         -0.03003633  eV/Ang**3
siesta:          -5.03365509        -48.12403245  kBar

* Maximum dynamic memory allocated : Node    0 =    10 MB

* Maximum memory occured during poison                        

timer: CPU execution times:
timer:  Routine       Calls   Time/call    Tot.time        %
timer:  siesta            1      19.605      19.605   100.00
timer:  Setup             1       0.867       0.867     4.42
timer:  bands             1       0.001       0.001     0.01
timer:  writewave         1       0.000       0.000     0.00
timer:  KSV_init          1       0.000       0.000     0.00
timer:  IterMD            5       3.746      18.731    95.54
timer:  hsparse           6       0.036       0.215     1.10
timer:  overfsm          10       0.255       2.553    13.02
timer:  IterSCF          10       1.603      16.035    81.79
timer:  kinefsm          10       0.248       2.478    12.64
timer:  nlefsm           10       0.523       5.231    26.68
timer:  DHSCF            10       0.816       8.162    41.63
timer:  DHSCF1            1       0.105       0.105     0.54
timer:  DHSCF2            5       0.568       2.842    14.49
timer:  REORD            90       0.000       0.018     0.09
timer:  POISON           15       0.020       0.301     1.54
timer:  DHSCF3           10       0.244       2.437    12.43
timer:  rhoofd           10       0.083       0.833     4.25
timer:  cellXC           15       0.035       0.519     2.65
timer:  vmat             10       0.100       1.000     5.10
timer:  diagon            5       0.006       0.030     0.15
timer:  rdiag             5       0.005       0.025     0.13
timer:  rdiag1            5       0.000       0.001     0.01
timer:  rdiag2            5       0.000       0.002     0.01
timer:  rdiag3            5       0.004       0.020     0.10
timer:  rdiag4            5       0.000       0.000     0.00
timer:  DHSCF4            5       0.555       2.773    14.14
timer:  dfscf             5       0.457       2.287    11.66
timer:  optical           1       0.000       0.000     0.00
  

elaps: ELAPSED times:
elaps:  Routine       Calls   Time/call    Tot.time        %
elaps:  siesta            1      20.052      20.052   100.00
elaps:  Setup             1       1.065       1.065     5.31
elaps:  bands             1       0.000       0.000     0.00
elaps:  writewave         1       0.000       0.000     0.00
elaps:  KSV_init          1       0.000       0.000     0.00
elaps:  IterMD            5       3.795      18.977    94.63
elaps:  hsparse           6       0.036       0.215     1.07
elaps:  overfsm          10       0.255       2.554    12.74
elaps:  IterSCF          10       1.623      16.225    80.91
elaps:  kinefsm          10       0.248       2.478    12.35
elaps:  nlefsm           10       0.523       5.232    26.09
elaps:  DHSCF            10       0.816       8.163    40.71
elaps:  DHSCF1            1       0.106       0.106     0.53
elaps:  DHSCF2            5       0.568       2.842    14.17
elaps:  REORD            90       0.000       0.024     0.12
elaps:  POISON           15       0.020       0.299     1.49
elaps:  DHSCF3           10       0.243       2.434    12.14
elaps:  rhoofd           10       0.083       0.833     4.15
elaps:  cellXC           15       0.035       0.518     2.58
elaps:  vmat             10       0.100       0.999     4.98
elaps:  diagon            5       0.006       0.029     0.14
elaps:  rdiag             5       0.005       0.025     0.13
elaps:  rdiag1            5       0.000       0.002     0.01
elaps:  rdiag2            5       0.001       0.003     0.01
elaps:  rdiag3            5       0.004       0.018     0.09
elaps:  rdiag4            5       0.000       0.001     0.01
elaps:  DHSCF4            5       0.555       2.774    13.84
elaps:  dfscf             5       0.458       2.288    11.41
elaps:  optical           1       0.000       0.000     0.00
  
>> End of run:  19-DEC-2006  16:43:56
