Siesta Version: siesta-2.0-release
Architecture  : intel9-mkl8
Compiler flags: ifort -u -xP -O3 -mp1
SERIAL version

* Running in serial mode
>> Start of run:  24-FEB-2006  12:55:00

                           ***********************       
                           *  WELCOME TO SIESTA  *       
                           ***********************       

reinit: Reading from standard input
************************** Dump of input data file ****************************
# A convoluted example of zmatrix input, for testing
SystemName zmatrix
SystemLabel zmatrix
NumberOfSpecies 3
NumberOfAtoms   8
%block ChemicalSpeciesLabel
1    8 O
2    1 H
3   14 Si
%endblock ChemicalSpeciesLabel
WriteCoor T
WriteForces T
LatticeConstant 1.0 Ang
%block LatticeVectors
8.0 2.0 1.0
0.5 8 0.9
1 2.5 8
%endblock LatticeVectors
ZM.ForceTolLen 0.04 eV/Ang
ZM.ForceTolAng 0.0001 eV/deg
ZM.MaxDisplLen 0.5 Ang
ZM.MaxDisplAng 20.0 deg
ZM.UnitsLength Ang
ZM.UnitsAngle deg
%block Zmatrix < Zmatrix.data
xc.functional LDA
xc.authors PZ
HarrisFunctional T
MD.TypeOfRun CG
MD.NumCGsteps 4
MeshCutoff 60 Ry
PAO.EnergyShift 0.01 Ry
DM.NumberPulay 5
DM.MixingWeight 0.3
************************** End of input data file *****************************

reinit: -----------------------------------------------------------------------
reinit: System Name: zmatrix                                                    
reinit: -----------------------------------------------------------------------
reinit: System Label: zmatrix                                                     
reinit: -----------------------------------------------------------------------

initatom: Reading input for the pseudopotentials and atomic orbitals ----------
 Species number:            1  Label: O Atomic number:           8
 Species number:            2  Label: H Atomic number:           1
 Species number:            3  Label: Si Atomic number:          14
Ground state valence configuration:   2s02  2p04
Reading pseudopotential information in formatted form from O.psf
Ground state valence configuration:   1s01
Reading pseudopotential information in formatted form from H.psf
Ground state valence configuration:   3s02  3p02
Reading pseudopotential information in formatted form from Si.psf
For O, standard SIESTA heuristics set lmxkb to 3
 (one more than the basis l, including polarization orbitals).
Use PS.lmax or PS.KBprojectors blocks to override.
For H, standard SIESTA heuristics set lmxkb to 2
 (one more than the basis l, including polarization orbitals).
Use PS.lmax or PS.KBprojectors blocks to override.
For Si, standard SIESTA heuristics set lmxkb to 3
 (one more than the basis l, including polarization orbitals).
Use PS.lmax or PS.KBprojectors blocks to override.

<basis_specs>
===============================================================================
O                    Z=   8    Mass=  16.000        Charge=  0.0000    
Lmxo=1 Lmxkb=3     BasisType=split      Semic=F
L=0  Nsemic=0  Cnfigmx=2
          n=1  nzeta=2  polorb=0
               vcte:    0.0000    
               rinn:    0.0000    
                rcs:    0.0000      0.0000    
            lambdas:    1.0000      1.0000    
L=1  Nsemic=0  Cnfigmx=2
          n=1  nzeta=2  polorb=1
               vcte:    0.0000    
               rinn:    0.0000    
                rcs:    0.0000      0.0000    
            lambdas:    1.0000      1.0000    
-------------------------------------------------------------------------------
L=0  Nkbl=1  erefs: 0.17977+309
L=1  Nkbl=1  erefs: 0.17977+309
L=2  Nkbl=1  erefs: 0.17977+309
L=3  Nkbl=1  erefs: 0.17977+309
===============================================================================
</basis_specs>

atom: Called for O   (Z =   8)

read_vps: Pseudopotential generation method:
read_vps: ATM3      Troullier-Martins                       

read_vps: Valence configuration (pseudopotential and basis set generation):
2s( 2.00) rc: 1.14
2p( 4.00) rc: 1.14
3d( 0.00) rc: 1.14
4f( 0.00) rc: 1.14
Total valence charge:    6.00000

xc_check: Exchange-correlation functional:
xc_check: Ceperley-Alder
V l=0 = -2*Zval/r beyond r=  1.1278
V l=1 = -2*Zval/r beyond r=  1.1278
V l=2 = -2*Zval/r beyond r=  1.1278
V l=3 = -2*Zval/r beyond r=  1.1138
All V_l potentials equal beyond r=  1.1278
This should be close to max(r_c) in ps generation
All pots = -2*Zval/r beyond r=  1.1278

VLOCAL1: 99.0% of the norm of Vloc inside     34.126 Ry
VLOCAL1: 99.9% of the norm of Vloc inside     77.774 Ry
atom: Maximum radius for 4*pi*r*r*local-pseudopot. charge    1.37759
atom: Maximum radius for r*vlocal+2*Zval:    1.18566
GHOST: No ghost state for L =  0
GHOST: No ghost state for L =  1
GHOST: No ghost state for L =  2
GHOST: No ghost state for L =  3

KBgen: Kleinman-Bylander projectors: 
   l= 0   rc=  1.294105   el= -1.742414   Ekb=  9.135903   kbcos=  0.326910
   l= 1   rc=  1.294105   el= -0.676589   Ekb= -8.124878   kbcos= -0.395047
   l= 2   rc=  1.448233   el=  0.002386   Ekb= -2.039267   kbcos= -0.003484
   l= 3   rc=  1.561052   el=  0.003508   Ekb= -0.799141   kbcos= -0.000344

KBgen: Total number of  Kleinman-Bylander projectors:   16
atom: -------------------------------------------------------------------------

atom: SANKEY-TYPE ORBITALS:
atom: Selected multiple-zeta basis: split     

SPLIT: Orbitals with angular momentum L= 0

SPLIT: Basis orbitals for state 2s

SPLIT: PAO cut-off radius determined from an
SPLIT: energy shift=  0.010000 Ry

   izeta = 1
                 lambda =    1.000000
                     rc =    3.562532
                 energy =   -1.732600
                kinetic =    1.577294
    potential(screened) =   -3.309894
       potential(ionic) =  -11.240760

   izeta = 2
                 rmatch =    2.541963
              splitnorm =    0.150000
                 energy =   -1.504531
                kinetic =    2.375196
    potential(screened) =   -3.879728
       potential(ionic) =  -12.401184

SPLIT: Orbitals with angular momentum L= 1

SPLIT: Basis orbitals for state 2p

SPLIT: PAO cut-off radius determined from an
SPLIT: energy shift=  0.010000 Ry

   izeta = 1
                 lambda =    1.000000
                     rc =    4.351355
                 energy =   -0.667669
                kinetic =    4.894715
    potential(screened) =   -5.562384
       potential(ionic) =  -13.283144

   izeta = 2
                 rmatch =    2.606321
              splitnorm =    0.150000
                 energy =   -0.413408
                kinetic =    7.270904
    potential(screened) =   -7.684312
       potential(ionic) =  -16.330518

POLgen: Perturbative polarization orbital with L=  2

POLgen: Polarization orbital for state 2p

   izeta = 1
                     rc =    4.351355
                 energy =    2.201853
                kinetic =    4.360449
    potential(screened) =   -2.158596
       potential(ionic) =   -8.257377
atom: Total number of Sankey-type orbitals: 13

atm_pop: Valence configuration(local Pseudopot. screening):
 2s( 2.00)                                                            
 2p( 4.00)                                                            
Vna: chval, zval:    6.00000   6.00000

Vna:  Cut-off radius for the neutral-atom potential:   4.351355

atom: _________________________________________________________________________

<basis_specs>
===============================================================================
H                    Z=   1    Mass=  1.0100        Charge=  0.0000    
Lmxo=0 Lmxkb=2     BasisType=split      Semic=F
L=0  Nsemic=0  Cnfigmx=1
          n=1  nzeta=2  polorb=1
               vcte:    0.0000    
               rinn:    0.0000    
                rcs:    0.0000      0.0000    
            lambdas:    1.0000      1.0000    
-------------------------------------------------------------------------------
L=0  Nkbl=1  erefs: 0.17977+309
L=1  Nkbl=1  erefs: 0.17977+309
L=2  Nkbl=1  erefs: 0.17977+309
===============================================================================
</basis_specs>

atom: Called for H   (Z =   1)

read_vps: Pseudopotential generation method:
read_vps: ATM3      Troullier-Martins                       

read_vps: Valence configuration (pseudopotential and basis set generation):
1s( 1.00) rc: 1.25
2p( 0.00) rc: 1.25
3d( 0.00) rc: 1.25
Total valence charge:    1.00000

xc_check: Exchange-correlation functional:
xc_check: Ceperley-Alder
V l=0 = -2*Zval/r beyond r=  1.2343
V l=1 = -2*Zval/r beyond r=  1.2189
V l=2 = -2*Zval/r beyond r=  1.2189
All V_l potentials equal beyond r=  1.2343
This should be close to max(r_c) in ps generation
All pots = -2*Zval/r beyond r=  1.2343

VLOCAL1: 99.0% of the norm of Vloc inside     28.493 Ry
VLOCAL1: 99.9% of the norm of Vloc inside     64.935 Ry
atom: Maximum radius for 4*pi*r*r*local-pseudopot. charge    1.45251
atom: Maximum radius for r*vlocal+2*Zval:    1.21892
GHOST: No ghost state for L =  0
GHOST: No ghost state for L =  1
GHOST: No ghost state for L =  2

KBgen: Kleinman-Bylander projectors: 
   l= 0   rc=  1.364359   el= -0.467325   Ekb= -2.005361   kbcos= -0.336422
   l= 1   rc=  1.434438   el=  0.001430   Ekb= -0.501708   kbcos= -0.021697
   l= 2   rc=  1.470814   el=  0.002365   Ekb= -0.190555   kbcos= -0.002281

KBgen: Total number of  Kleinman-Bylander projectors:    9
atom: -------------------------------------------------------------------------

atom: SANKEY-TYPE ORBITALS:
atom: Selected multiple-zeta basis: split     

SPLIT: Orbitals with angular momentum L= 0

SPLIT: Basis orbitals for state 1s

SPLIT: PAO cut-off radius determined from an
SPLIT: energy shift=  0.010000 Ry

   izeta = 1
                 lambda =    1.000000
                     rc =    5.336316
                 energy =   -0.457946
                kinetic =    0.886710
    potential(screened) =   -1.344656
       potential(ionic) =   -1.876618

   izeta = 2
                 rmatch =    4.002347
              splitnorm =    0.150000
                 energy =   -0.355550
                kinetic =    1.439934
    potential(screened) =   -1.795484
       potential(ionic) =   -2.364796

POLgen: Perturbative polarization orbital with L=  1

POLgen: Polarization orbital for state 1s

   izeta = 1
                     rc =    5.336316
                 energy =    0.616245
                kinetic =    1.262150
    potential(screened) =   -0.645906
       potential(ionic) =   -1.116519
atom: Total number of Sankey-type orbitals:  5

atm_pop: Valence configuration(local Pseudopot. screening):
 1s( 1.00)                                                            
Vna: chval, zval:    1.00000   1.00000

Vna:  Cut-off radius for the neutral-atom potential:   5.336316

atom: _________________________________________________________________________

<basis_specs>
===============================================================================
Si                   Z=  14    Mass=  28.090        Charge=  0.0000    
Lmxo=1 Lmxkb=3     BasisType=split      Semic=F
L=0  Nsemic=0  Cnfigmx=3
          n=1  nzeta=2  polorb=0
               vcte:    0.0000    
               rinn:    0.0000    
                rcs:    0.0000      0.0000    
            lambdas:    1.0000      1.0000    
L=1  Nsemic=0  Cnfigmx=3
          n=1  nzeta=2  polorb=1
               vcte:    0.0000    
               rinn:    0.0000    
                rcs:    0.0000      0.0000    
            lambdas:    1.0000      1.0000    
-------------------------------------------------------------------------------
L=0  Nkbl=1  erefs: 0.17977+309
L=1  Nkbl=1  erefs: 0.17977+309
L=2  Nkbl=1  erefs: 0.17977+309
L=3  Nkbl=1  erefs: 0.17977+309
===============================================================================
</basis_specs>

atom: Called for Si  (Z =  14)

read_vps: Pseudopotential generation method:
read_vps: ATM3      Troullier-Martins                       

read_vps: Valence configuration (pseudopotential and basis set generation):
3s( 2.00) rc: 1.89
3p( 2.00) rc: 1.89
3d( 0.00) rc: 1.89
4f( 0.00) rc: 1.89
Total valence charge:    4.00000

xc_check: Exchange-correlation functional:
xc_check: Ceperley-Alder
V l=0 = -2*Zval/r beyond r=  2.5494
V l=1 = -2*Zval/r beyond r=  2.5494
V l=2 = -2*Zval/r beyond r=  2.5494
V l=3 = -2*Zval/r beyond r=  2.5494
All V_l potentials equal beyond r=  1.8652
This should be close to max(r_c) in ps generation
All pots = -2*Zval/r beyond r=  2.5494
Using large-core scheme for Vlocal

atom: Estimated core radius    2.54944

atom: Including non-local core corrections could be a good idea
atom: Maximum radius for 4*pi*r*r*local-pseudopot. charge    2.85303
atom: Maximum radius for r*vlocal+2*Zval:    2.58151
GHOST: No ghost state for L =  0
GHOST: No ghost state for L =  1
GHOST: No ghost state for L =  2
GHOST: No ghost state for L =  3

KBgen: Kleinman-Bylander projectors: 
   l= 0   rc=  1.936440   el= -0.796617   Ekb=  4.661340   kbcos=  0.299756
   l= 1   rc=  1.936440   el= -0.307040   Ekb=  1.494238   kbcos=  0.301471
   l= 2   rc=  1.936440   el=  0.002313   Ekb= -2.808672   kbcos= -0.054903
   l= 3   rc=  1.936440   el=  0.003402   Ekb= -0.959059   kbcos= -0.005513

KBgen: Total number of  Kleinman-Bylander projectors:   16
atom: -------------------------------------------------------------------------

atom: SANKEY-TYPE ORBITALS:
atom: Selected multiple-zeta basis: split     

SPLIT: Orbitals with angular momentum L= 0

SPLIT: Basis orbitals for state 3s

SPLIT: PAO cut-off radius determined from an
SPLIT: energy shift=  0.010000 Ry

   izeta = 1
                 lambda =    1.000000
                     rc =    5.397360
                 energy =   -0.786473
                kinetic =    0.546491
    potential(screened) =   -1.332964
       potential(ionic) =   -3.793893

   izeta = 2
                 rmatch =    4.474538
              splitnorm =    0.150000
                 energy =   -0.690001
                kinetic =    0.854393
    potential(screened) =   -1.544395
       potential(ionic) =   -4.120499

SPLIT: Orbitals with angular momentum L= 1

SPLIT: Basis orbitals for state 3p

SPLIT: PAO cut-off radius determined from an
SPLIT: energy shift=  0.010000 Ry

   izeta = 1
                 lambda =    1.000000
                     rc =    6.930397
                 energy =   -0.298036
                kinetic =    0.832892
    potential(screened) =   -1.130928
       potential(ionic) =   -3.361641

   izeta = 2
                 rmatch =    5.198700
              splitnorm =    0.150000
                 energy =   -0.218740
                kinetic =    1.203231
    potential(screened) =   -1.421971
       potential(ionic) =   -3.849742

POLgen: Perturbative polarization orbital with L=  2

POLgen: Polarization orbital for state 3p

   izeta = 1
                     rc =    6.930397
                 energy =    0.377307
                kinetic =    1.185358
    potential(screened) =   -0.808051
       potential(ionic) =   -2.819307
atom: Total number of Sankey-type orbitals: 13

atm_pop: Valence configuration(local Pseudopot. screening):
 3s( 2.00)                                                            
 3p( 2.00)                                                            
Vna: chval, zval:    4.00000   4.00000

Vna:  Cut-off radius for the neutral-atom potential:   6.930397

atom: _________________________________________________________________________

prinput: Basis input ----------------------------------------------------------

PAO.BasisType split     

%block ChemicalSpeciesLabel
    1    8 O                       # Species index, atomic number, species label
    2    1 H                       # Species index, atomic number, species label
    3   14 Si                      # Species index, atomic number, species label
%endblock ChemicalSpeciesLabel

%block PAO.Basis                 # Define Basis set
O           2                    # Species label, number of l-shells
 n=2   0   2                         # n, l, Nzeta 
   3.563      2.542   
   1.000      1.000   
 n=2   1   2 P   1                   # n, l, Nzeta, Polarization, NzetaPol
   4.351      2.606   
   1.000      1.000   
H           1                    # Species label, number of l-shells
 n=1   0   2 P   1                   # n, l, Nzeta, Polarization, NzetaPol
   5.336      4.002   
   1.000      1.000   
Si          2                    # Species label, number of l-shells
 n=3   0   2                         # n, l, Nzeta 
   5.397      4.475   
   1.000      1.000   
 n=3   1   2 P   1                   # n, l, Nzeta, Polarization, NzetaPol
   6.930      5.199   
   1.000      1.000   
%endblock PAO.Basis

prinput: ----------------------------------------------------------------------


siesta: ******************** Simulation parameters ****************************
siesta:
siesta: The following are some of the parameters of the simulation.
siesta: A complete list of the parameters used, including default values,
siesta: can be found in file out.fdf
siesta:
coor:   Atomic-coordinates input format  =     Cartesian coordinates
coor:                                            (in Bohr units)
read_Zmatrix: Length units: Ang       
read_Zmatrix: Angle  units: deg       
read_Zmatrix: Force tolerances:
read_Zmatrix:    for lengths =     0.001556 Ry/Bohr
read_Zmatrix:    for angles  =     0.003565 Ry/rad

read_Zmatrix: Maximum displacements:
read_Zmatrix:    for lengths =     0.200000 Bohr
read_Zmatrix:    for angles  =     0.003000 rad
%block Zmatrix
molecule_cartesian
  1 0 0 0   X Y Z 0 0 0
  2 1 0 0   HO1 THETA PHI 0 0 0
  2 1 2 0   HO2 HOH TAU 0 0 0
molecule_fractional
  1 0 0 0   X2 Y2 Z2 0 0 0
  2 1 0 0   HO1 THETA PHI 0 0 0
  2 1 2 0   HO2 HOH TAU 0 0 0
fractional
 3  0.8 SiX 0.8   0 0 0
 3  0.75  0.75 SiZ  0 0 0
variables
    X   0.1
    Y   0.11
    Z   0.12
    X2   0.5
    Y2   0.5
    Z2   0.5
    THETA  90.0
    PHI    37.0
    TAU    90.0
    SiX    0.85
constants
    HO1 0.956997
    HO2 0.956997
    HOH 104.0
    SiZ 0.75
%endblock Zmatrix

zmatrix: Z-matrix coordinates: (Ang ; deg )
zmatrix: (Fractional coordinates have been converted to cartesian)
molecule    1 (     3 atoms)
      0.10000000      0.11000000      0.12000000
      0.95699700     90.00000000     37.00000000
      0.95699700    104.00000000     90.00000000
molecule    2 (     3 atoms)
      4.75000000      6.25000000      4.95000000
      0.95699700     90.00000000     37.00000000
      0.95699700    104.00000000     90.00000000
cartesian block    1 (     2 atoms)
      7.62500000     10.40000000      7.96500000
      7.12500000      9.37500000      7.42500000


Z-matrix Symbol Section -------
Variables
 x           0.100000000000000     
 y           0.110000000000000     
 z           0.120000000000000     
 theta        90.0000000000001     
 phi          37.0000000000000     
 tau          90.0000000000001     
 x2          0.500000000000000     
 y2          0.500000000000000     
 z2          0.500000000000000     
 six         0.850000000000000     
Constants
 ho1         0.956997000000000     
 ho2         0.956997000000000     
 hoh          104.000000000000     
 siz         0.750000000000000     
------------ End of Z-matrix Information

redata: Number of spin components        =     1
redata: Long output                      =     F
redata: Number of Atomic Species         =     3
redata: Charge density info will appear in .RHO file
redata: Write Mulliken Pop.              =     NO
redata: Mesh Cutoff                      =    60.0000  Ry
redata: Net charge of the system         =     0.0000 |e|
redata: Max. number of SCF Iter          =    50
redata: Performing Pulay mixing using    =     5 iterations
redata: Mix DM in first SCF step ?       =     F
redata: Write Pulay info on disk?        =     F
redata: New DM Mixing Weight             =     0.3000
redata: New DM Occupancy tolerance       = 0.000000000001
redata: No kicks to SCF
redata: DM Mixing Weight for Kicks       =     0.5000
redata: DM Tolerance for SCF             =     0.000100
redata: Require Energy convergence for SCF =     F
redata: DM Energy tolerance for SCF      =     0.000100 eV
redata: Using Saved Data (generic)   =     F
redata: Use continuation files for DM    =     F
redata: Neglect nonoverlap interactions  =     F
redata: Method of Calculation            =     Diagonalization
redata: Divide and Conquer               =     T
redata: Electronic Temperature           =     0.0019  Ry
redata: Fix the spin of the system       =     F
redata: Dynamics option                  =     CG coord. optimization
redata: Variable cell                    =     F
redata: Use continuation files for CG    =     F
redata: Max atomic displ per move        =     0.2000  Bohr
redata: Maximum number of CG moves       =     4
redata: Force tolerance                  =     0.0016  Ry/Bohr
redata: ***********************************************************************

siesta: Atomic coordinates (Bohr) and species
siesta:      0.18897   0.20787   0.22677  1        1
siesta:      1.63328   1.29623   0.22677  2        2
siesta:     -1.21647   1.34597   0.22677  2        3
siesta:      8.97620  11.81079   9.35415  1        4
siesta:     10.42051  12.89915   9.35415  2        5
siesta:      7.57076  12.94890   9.35415  2        6
siesta:     14.40917  19.65316  15.05167  3        7
siesta:     13.46430  17.71619  14.03122  3        8

initatomlists: Number of atoms, orbitals, and projectors:      8    72   100

siesta: System type = bulk      

* Maximum dynamic memory allocated =     1 MB

siesta:                 ==============================
                            Begin CG move =      0
                        ==============================

zmatrix: Z-matrix coordinates: (Ang ; deg )
zmatrix: (Fractional coordinates have been converted to cartesian)
molecule    1 (     3 atoms)
      0.10000000      0.11000000      0.12000000
      0.95699700     90.00000000     37.00000000
      0.95699700    104.00000000     90.00000000
molecule    2 (     3 atoms)
      4.75000000      6.25000000      4.95000000
      0.95699700     90.00000000     37.00000000
      0.95699700    104.00000000     90.00000000
cartesian block    1 (     2 atoms)
      7.62500000     10.40000000      7.96500000
      7.12500000      9.37500000      7.42500000


Z-matrix Symbol Section -------
Variables
 x           0.100000000000000     
 y           0.110000000000000     
 z           0.120000000000000     
 theta        90.0000000000001     
 phi          37.0000000000000     
 tau          90.0000000000001     
 x2          0.500000000000000     
 y2          0.500000000000000     
 z2          0.500000000000000     
 six         0.850000000000000     
Constants
 ho1         0.956997000000000     
 ho2         0.956997000000000     
 hoh          104.000000000000     
 siz         0.750000000000000     
------------ End of Z-matrix Information


outcell: Unit cell vectors (Ang):
        8.000000    2.000000    1.000000
        0.500000    8.000000    0.900000
        1.000000    2.500000    8.000000

outcell: Cell vector modules (Ang)   :    8.306624    8.065978    8.440972
outcell: Cell angles (23,13,12) (deg):     65.9931     72.5722     71.8241
outcell: Cell volume (Ang**3)        :    481.0500

InitMesh: MESH =    40 x    36 x    36 =       51840
InitMesh: Mesh cutoff (required, used) =    60.000    62.724 Ry

* Maximum dynamic memory allocated =    10 MB

stepf: Fermi-Dirac step function

siesta: Program's energy decomposition (eV):
siesta: Eions   =      2012.511081
siesta: Ena     =       487.794817
siesta: Ekin    =       741.932135
siesta: Enl     =       -51.165545
siesta: DEna    =         0.000004
siesta: DUscf   =         0.000000
siesta: DUext   =         0.000000
siesta: Exc     =      -278.752525
siesta: eta*DQ  =         0.000000
siesta: Emadel  =         0.000000
siesta: Ekinion =         0.000000
siesta: Eharris =     -1122.276732
siesta: Etot    =     -1112.702194
siesta: FreeEng =     -1112.702194

siesta: Eharris(eV) =   -1122.276732


siesta: Eharris(eV) =   -1122.276732

timer: Routine,Calls,Time,% = IterSCF        1       5.984  69.65
elaps: Routine,Calls,Wall,% = IterSCF        1       5.989  68.86

siesta: E_KS - E_eggbox =     -1115.2920

zmatrix: Atomic forces (eV/Ang ; eV/deg )
zmatrix: (No information if symbols are used)
molecule    1 (     3 atoms)
     1    0.000000    0.000000    0.000000
     2    0.000000    0.000000    0.000000
     3    0.000000    0.000000    0.000000
molecule    2 (     3 atoms)
     4    0.000000    0.000000    0.000000
     5    0.000000    0.000000    0.000000
     6    0.000000    0.000000    0.000000
cartesian    1 (     2 atoms)
     7    0.000000    0.000000    0.000000
     8    0.000000    0.000000    0.000000


Variable forces (eV/Ang ; eV/deg )
 x          -0.445429262353423     
 y          -0.345132608124618     
 z           0.725316629356236     
 theta      -2.249992747439072E-004
 phi        -2.338580764378838E-004
 tau        -3.669477652544564E-004
 x2         -4.741505683736803E-002
 y2          0.219857604956269     
 z2         -4.101440547488949E-002
 six          66.8055135077913     

siesta: Atomic forces (eV/Ang):
     1   -0.437116    0.582982    0.700246
     2   -0.059611   -0.502413   -0.000359
     3    0.051298   -0.425702    0.025429
     4   -0.020181    1.195213   -0.057534
     5   -0.065042   -0.457249    0.019307
     6    0.037808   -0.518107   -0.002787
     7   32.602285   66.805514   35.168800
     8  -32.537843  -66.770728  -35.130590
----------------------------------------
   Tot   -0.428402   -0.090490    0.722513
----------------------------------------
   Max   66.805514
   Res   23.732281    sqrt( Sum f_i^2 / 3N )
----------------------------------------
   Max   66.805514    constrained

Stress-tensor-Voigt (kbar):       -7.67     -176.66      -25.13     -107.78     -116.52      -56.68
Target enthalpy (eV/cell)    -1115.2920

* Maximum dynamic memory allocated =    10 MB

siesta:                 ==============================
                            Begin CG move =      1
                        ==============================

zmatrix: Z-matrix coordinates: (Ang ; deg )
zmatrix: (Fractional coordinates have been converted to cartesian)
molecule    1 (     3 atoms)
      0.09929434      0.10945323      0.12114907
      0.95699700     89.99582128     36.99565675
      0.95699700    104.00000000     89.99318499
molecule    2 (     3 atoms)
      4.74992488      6.25034831      4.94993502
      0.95699700     89.99582128     36.99565675
      0.95699700    104.00000000     89.99318499
cartesian block    1 (     2 atoms)
      7.62500000     10.50583540      7.96500000
      7.12500000      9.37500000      7.42500000


Z-matrix Symbol Section -------
Variables
 x           9.929433692404174E-002
 y           0.109453230044708     
 z           0.121149069463939     
 theta        89.9958212815346     
 phi          36.9956567546121     
 tau          89.9931849940215     
 x2          0.499989024850119     
 y2          0.500050154624840     
 z2          0.499987607459216     
 six         0.863860576239476     
Constants
 ho1         0.956997000000000     
 ho2         0.956997000000000     
 hoh          104.000000000000     
 siz         0.750000000000000     
------------ End of Z-matrix Information


outcell: Unit cell vectors (Ang):
        8.000000    2.000000    1.000000
        0.500000    8.000000    0.900000
        1.000000    2.500000    8.000000

outcell: Cell vector modules (Ang)   :    8.306624    8.065978    8.440972
outcell: Cell angles (23,13,12) (deg):     65.9931     72.5722     71.8241
outcell: Cell volume (Ang**3)        :    481.0500

siesta: Eharris(eV) =   -1128.594075


siesta: Eharris(eV) =   -1128.594075


zmatrix: Atomic forces (eV/Ang ; eV/deg )
zmatrix: (No information if symbols are used)
molecule    1 (     3 atoms)
     1    0.000000    0.000000    0.000000
     2    0.000000    0.000000    0.000000
     3    0.000000    0.000000    0.000000
molecule    2 (     3 atoms)
     4    0.000000    0.000000    0.000000
     5    0.000000    0.000000    0.000000
     6    0.000000    0.000000    0.000000
cartesian    1 (     2 atoms)
     7    0.000000    0.000000    0.000000
     8    0.000000    0.000000    0.000000


Variable forces (eV/Ang ; eV/deg )
 x          -0.473143329149081     
 y          -0.346166434600214     
 z           0.712347012712450     
 theta      -1.529752692009771E-004
 phi        -3.124043130942057E-004
 tau        -4.340254840525758E-004
 x2         -3.841247938502841E-002
 y2          0.192973903888240     
 z2         -4.069716960278518E-002
 six          52.6893247086468     

siesta: Atomic forces (eV/Ang):
     1   -0.466386    0.569857    0.687039
     2   -0.052555   -0.499903   -0.003334
     3    0.045799   -0.416121    0.028642
     4   -0.009093    1.168289   -0.057547
     5   -0.065806   -0.457018    0.018843
     6    0.036487   -0.518297   -0.001993
     7   23.316232   52.689325   25.146790
     8  -23.244207  -52.638812  -25.096647
----------------------------------------
   Tot   -0.439531   -0.102680    0.721792
----------------------------------------
   Max   52.689325
   Res   18.138870    sqrt( Sum f_i^2 / 3N )
----------------------------------------
   Max   52.689325    constrained

Stress-tensor-Voigt (kbar):        8.05     -145.98       -6.82      -84.12      -90.93      -39.93
Target enthalpy (eV/cell)    -1121.5269

* Maximum dynamic memory allocated =    10 MB

siesta:                 ==============================
                            Begin CG move =      2
                        ==============================

zmatrix: Z-matrix coordinates: (Ang ; deg )
zmatrix: (Fractional coordinates have been converted to cartesian)
molecule    1 (     3 atoms)
      0.09858867      0.10890646      0.12229814
      0.95699700     89.99164256     36.99131351
      0.95699700    104.00000000     89.98636999
molecule    2 (     3 atoms)
      4.74984977      6.25069661      4.94987005
      0.95699700     89.99164256     36.99131351
      0.95699700    104.00000000     89.98636999
cartesian block    1 (     2 atoms)
      7.62500000     10.61167080      7.96500000
      7.12500000      9.37500000      7.42500000


Z-matrix Symbol Section -------
Variables
 x           9.858867384808347E-002
 y           0.108906460089416     
 z           0.122298138927878     
 theta        89.9916425630690     
 phi          36.9913135092241     
 tau          89.9863699880429     
 x2          0.499978049700237     
 y2          0.500100309249680     
 z2          0.499975214918432     
 six         0.877721152478952     
Constants
 ho1         0.956997000000000     
 ho2         0.956997000000000     
 hoh          104.000000000000     
 siz         0.750000000000000     
------------ End of Z-matrix Information


outcell: Unit cell vectors (Ang):
        8.000000    2.000000    1.000000
        0.500000    8.000000    0.900000
        1.000000    2.500000    8.000000

outcell: Cell vector modules (Ang)   :    8.306624    8.065978    8.440972
outcell: Cell angles (23,13,12) (deg):     65.9931     72.5722     71.8241
outcell: Cell volume (Ang**3)        :    481.0500

siesta: Eharris(eV) =   -1133.481462


siesta: Eharris(eV) =   -1133.481462


zmatrix: Atomic forces (eV/Ang ; eV/deg )
zmatrix: (No information if symbols are used)
molecule    1 (     3 atoms)
     1    0.000000    0.000000    0.000000
     2    0.000000    0.000000    0.000000
     3    0.000000    0.000000    0.000000
molecule    2 (     3 atoms)
     4    0.000000    0.000000    0.000000
     5    0.000000    0.000000    0.000000
     6    0.000000    0.000000    0.000000
cartesian    1 (     2 atoms)
     7    0.000000    0.000000    0.000000
     8    0.000000    0.000000    0.000000


Variable forces (eV/Ang ; eV/deg )
 x          -0.502704588393381     
 y          -0.342004616683166     
 z           0.717252581954595     
 theta      -6.471816198301046E-005
 phi        -2.844561043567359E-004
 tau        -5.021611494889851E-004
 x2         -3.217133075631289E-002
 y2          0.166281011498075     
 z2         -4.150680217087657E-002
 six          39.9203871166565     

siesta: Atomic forces (eV/Ang):
     1   -0.498436    0.562378    0.692533
     2   -0.043625   -0.493185   -0.007045
     3    0.039356   -0.411197    0.031764
     4   -0.000696    1.141461   -0.058625
     5   -0.066433   -0.456816    0.018158
     6    0.034957   -0.518364   -0.001040
     7   16.171357   39.920387   17.425926
     8  -16.098272  -39.874926  -17.381438
----------------------------------------
   Tot   -0.461791   -0.130262    0.720234
----------------------------------------
   Max   39.920387
   Res   13.406066    sqrt( Sum f_i^2 / 3N )
----------------------------------------
   Max   39.920387    constrained

Stress-tensor-Voigt (kbar):       19.91     -111.63        6.93      -62.97      -68.08      -27.16
Target enthalpy (eV/cell)    -1126.3875

* Maximum dynamic memory allocated =    10 MB

siesta:                 ==============================
                            Begin CG move =      3
                        ==============================

zmatrix: Z-matrix coordinates: (Ang ; deg )
zmatrix: (Fractional coordinates have been converted to cartesian)
molecule    1 (     3 atoms)
      0.09788301      0.10835969      0.12344721
      0.95699700     89.98746384     36.98697026
      0.95699700    104.00000000     89.97955498
molecule    2 (     3 atoms)
      4.74977465      6.25104492      4.94980507
      0.95699700     89.98746384     36.98697026
      0.95699700    104.00000000     89.97955498
cartesian block    1 (     2 atoms)
      7.62500000     10.71750620      7.96500000
      7.12500000      9.37500000      7.42500000


Z-matrix Symbol Section -------
Variables
 x           9.788301077212520E-002
 y           0.108359690134124     
 z           0.123447208391817     
 theta        89.9874638446035     
 phi          36.9869702638361     
 tau          89.9795549820643     
 x2          0.499967074550355     
 y2          0.500150463874520     
 z2          0.499962822377647     
 six         0.891581728718428     
Constants
 ho1         0.956997000000000     
 ho2         0.956997000000000     
 hoh          104.000000000000     
 siz         0.750000000000000     
------------ End of Z-matrix Information


outcell: Unit cell vectors (Ang):
        8.000000    2.000000    1.000000
        0.500000    8.000000    0.900000
        1.000000    2.500000    8.000000

outcell: Cell vector modules (Ang)   :    8.306624    8.065978    8.440972
outcell: Cell angles (23,13,12) (deg):     65.9931     72.5722     71.8241
outcell: Cell volume (Ang**3)        :    481.0500

siesta: Eharris(eV) =   -1137.106530


siesta: Eharris(eV) =   -1137.106530


zmatrix: Atomic forces (eV/Ang ; eV/deg )
zmatrix: (No information if symbols are used)
molecule    1 (     3 atoms)
     1    0.000000    0.000000    0.000000
     2    0.000000    0.000000    0.000000
     3    0.000000    0.000000    0.000000
molecule    2 (     3 atoms)
     4    0.000000    0.000000    0.000000
     5    0.000000    0.000000    0.000000
     6    0.000000    0.000000    0.000000
cartesian    1 (     2 atoms)
     7    0.000000    0.000000    0.000000
     8    0.000000    0.000000    0.000000


Variable forces (eV/Ang ; eV/deg )
 x          -0.528254680476712     
 y          -0.335164905818154     
 z           0.709197606693511     
 theta       2.628658329438273E-005
 phi        -2.898198121537999E-004
 tau        -5.530354776326314E-004
 x2         -2.586820359383890E-002
 y2          0.140879376106134     
 z2         -4.185985793072048E-002
 six          28.8988225102685     

siesta: Atomic forces (eV/Ang):
     1   -0.526374    0.557174    0.686077
     2   -0.034646   -0.487577   -0.010607
     3    0.032765   -0.404762    0.033728
     4    0.007876    1.115784   -0.058774
     5   -0.067002   -0.456593    0.016906
     6    0.033258   -0.518312    0.000009
     7   10.807401   28.898823   11.634301
     8  -10.726501  -28.843958  -11.581293
----------------------------------------
   Tot   -0.473222   -0.139421    0.720346
----------------------------------------
   Max   28.898823
   Res    9.512386    sqrt( Sum f_i^2 / 3N )
----------------------------------------
   Max   28.898823    constrained

Stress-tensor-Voigt (kbar):       28.64      -76.42       17.08      -44.72      -48.36      -17.51
Target enthalpy (eV/cell)    -1130.0418

* Maximum dynamic memory allocated =    10 MB

siesta:                 ==============================
                            Begin CG move =      4
                        ==============================

zmatrix: Z-matrix coordinates: (Ang ; deg )
zmatrix: (Fractional coordinates have been converted to cartesian)
molecule    1 (     3 atoms)
      0.09717735      0.10781292      0.12459628
      0.95699700     89.98328513     36.98262702
      0.95699700    104.00000000     89.97273998
molecule    2 (     3 atoms)
      4.74969953      6.25139322      4.94974009
      0.95699700     89.98328513     36.98262702
      0.95699700    104.00000000     89.97273998
cartesian block    1 (     2 atoms)
      7.62500000     10.82334160      7.96500000
      7.12500000      9.37500000      7.42500000


Z-matrix Symbol Section -------
Variables
 x           9.717734769616693E-002
 y           0.107812920178832     
 z           0.124596277855756     
 theta        89.9832851261379     
 phi          36.9826270184481     
 tau          89.9727399760857     
 x2          0.499956099400474     
 y2          0.500200618499360     
 z2          0.499950429836863     
 six         0.905442304957904     
Constants
 ho1         0.956997000000000     
 ho2         0.956997000000000     
 hoh          104.000000000000     
 siz         0.750000000000000     
------------ End of Z-matrix Information


outcell: Unit cell vectors (Ang):
        8.000000    2.000000    1.000000
        0.500000    8.000000    0.900000
        1.000000    2.500000    8.000000

outcell: Cell vector modules (Ang)   :    8.306624    8.065978    8.440972
outcell: Cell angles (23,13,12) (deg):     65.9931     72.5722     71.8241
outcell: Cell volume (Ang**3)        :    481.0500

siesta: Eharris(eV) =   -1139.671130


siesta: Eharris(eV) =   -1139.671130


zmatrix: Atomic forces (eV/Ang ; eV/deg )
zmatrix: (No information if symbols are used)
molecule    1 (     3 atoms)
     1    0.000000    0.000000    0.000000
     2    0.000000    0.000000    0.000000
     3    0.000000    0.000000    0.000000
molecule    2 (     3 atoms)
     4    0.000000    0.000000    0.000000
     5    0.000000    0.000000    0.000000
     6    0.000000    0.000000    0.000000
cartesian    1 (     2 atoms)
     7    0.000000    0.000000    0.000000
     8    0.000000    0.000000    0.000000


Variable forces (eV/Ang ; eV/deg )
 x          -0.552535917364611     
 y          -0.324370229278118     
 z           0.704788325388936     
 theta       1.488645762652583E-004
 phi        -3.365918228652261E-004
 tau        -6.336412472104987E-004
 x2         -2.058524865132155E-002
 y2          0.115664667424338     
 z2         -4.337806283003617E-002
 six          19.8524193867279     

siesta: Atomic forces (eV/Ang):
     1   -0.552925    0.552577    0.682290
     2   -0.025239   -0.481918   -0.014934
     3    0.025629   -0.395029    0.037432
     4    0.015453    1.090091   -0.059507
     5   -0.067424   -0.456311    0.014973
     6    0.031385   -0.518116    0.001156
     7    6.907477   19.852419    7.418742
     8   -6.828388  -19.805378   -7.370938
----------------------------------------
   Tot   -0.494032   -0.161664    0.709214
----------------------------------------
   Max   19.852419
   Res    6.433061    sqrt( Sum f_i^2 / 3N )
----------------------------------------
   Max   19.852419    constrained

Stress-tensor-Voigt (kbar):       34.59      -43.61       24.08      -30.01      -32.42      -10.62
Target enthalpy (eV/cell)    -1132.6862

* Maximum dynamic memory allocated =    10 MB

outcoor: Final (unrelaxed) atomic coordinates (Bohr):       
    0.18230514    0.20270373    0.23762436   1  O          1
    1.62702018    1.29051633    0.23828384   2  H          2
   -1.22270317    1.34133849    0.23850840   2  H          3
    8.97549292   11.81408400    9.35353411   1  O          4
   10.42020796   12.90189660    9.35419359   2  H          5
    7.57048461   12.95271876    9.35441815   2  H          6
   14.40916744   20.65315953   15.05167458   3  Si         7
   13.46430400   17.71618948   14.03122207   3  Si         8

zmatrix: Z-matrix coordinates: (Ang ; deg )
zmatrix: (Fractional coordinates have been converted to cartesian)
molecule    1 (     3 atoms)
      0.09647168      0.10726615      0.12574535
      0.95699700     89.97910641     36.97828377
      0.95699700    104.00000000     89.96592497
molecule    2 (     3 atoms)
      4.74962442      6.25174153      4.94967512
      0.95699700     89.97910641     36.97828377
      0.95699700    104.00000000     89.96592497
cartesian block    1 (     2 atoms)
      7.62500000     10.92917700      7.96500000
      7.12500000      9.37500000      7.42500000


Z-matrix Symbol Section -------
Variables
 x           9.647168462020866E-002
 y           0.107266150223540     
 z           0.125745347319695     
 theta        89.9791064076724     
 phi          36.9782837730602     
 tau          89.9659249701071     
 x2          0.499945124250592     
 y2          0.500250773124200     
 z2          0.499938037296079     
 six         0.919302881197380     
Constants
 ho1         0.956997000000000     
 ho2         0.956997000000000     
 hoh          104.000000000000     
 siz         0.750000000000000     
------------ End of Z-matrix Information


siesta: Program's energy decomposition (eV):
siesta: Eions   =      2012.511081
siesta: Ena     =       480.474013
siesta: Ekin    =       850.742875
siesta: Enl     =      -104.039690
siesta: DEna    =       -57.478509
siesta: DUscf   =         9.145746
siesta: DUext   =         0.000000
siesta: Exc     =      -299.019528
siesta: eta*DQ  =         0.000000
siesta: Emadel  =         0.000000
siesta: Ekinion =         0.000000
siesta: Eharris =     -1139.671130
siesta: Etot    =     -1132.686173
siesta: FreeEng =     -1132.686173

siesta: Final energy (eV):
siesta:       Kinetic =     850.742875
siesta:       Hartree =     880.161272
siesta:    Ext. field =       0.000000
siesta:   Exch.-corr. =    -299.019528
siesta:  Ion-electron =   -2439.983082
siesta:       Ion-ion =    -124.587710
siesta:       Ekinion =       0.000000
siesta:         Total =   -1132.686173

siesta: Atomic forces (eV/Ang):
siesta:      1   -0.552925    0.552577    0.682290
siesta:      2   -0.025239   -0.481918   -0.014934
siesta:      3    0.025629   -0.395029    0.037432
siesta:      4    0.015453    1.090091   -0.059507
siesta:      5   -0.067424   -0.456311    0.014973
siesta:      6    0.031385   -0.518116    0.001156
siesta:      7    6.907477   19.852419    7.418742
siesta:      8   -6.828388  -19.805378   -7.370938
siesta: ----------------------------------------
siesta:    Tot   -0.494032   -0.161664    0.709214

siesta: Stress tensor (static) (eV/Ang**3):
siesta:     0.021592   -0.018728   -0.006630
siesta:    -0.018728   -0.027218   -0.020238
siesta:    -0.006630   -0.020238    0.015028

siesta: Cell volume =        481.050000 Ang**3

siesta: Pressure (static):
siesta:                Solid            Molecule  Units
siesta:          -0.00003413         -0.00032711  Ry/Bohr**3
siesta:          -0.00313403         -0.03003457  eV/Ang**3
siesta:          -5.02132326        -48.12120630  kBar

* Maximum dynamic memory allocated : Node    0 =    10 MB

* Maximum memory occured during poison                        

timer: CPU execution times:
timer:  Routine       Calls   Time/call    Tot.time        %
timer:  siesta            1      14.478      14.478   100.00
timer:  Setup             1       0.744       0.744     5.14
timer:  bands             1       0.000       0.000     0.00
timer:  writewave         1       0.001       0.001     0.01
timer:  KSV_init          1       0.000       0.000     0.00
timer:  IterMD            5       2.746      13.729    94.83
timer:  hsparse           6       0.024       0.142     0.98
timer:  overfsm          10       0.196       1.961    13.54
timer:  IterSCF          10       1.167      11.674    80.64
timer:  kinefsm          10       0.192       1.916    13.23
timer:  nlefsm           10       0.402       4.024    27.80
timer:  DHSCF            10       0.560       5.600    38.68
timer:  DHSCF1            1       0.036       0.036     0.25
timer:  DHSCF2            5       0.353       1.763    12.18
timer:  REORD            90       0.000       0.016     0.11
timer:  POISON           15       0.013       0.188     1.30
timer:  DHSCF3           10       0.189       1.894    13.08
timer:  rhoofd           10       0.097       0.967     6.68
timer:  cellXC           15       0.028       0.423     2.92
timer:  vmat             10       0.048       0.481     3.32
timer:  diagon            5       0.006       0.028     0.19
timer:  rdiag             5       0.005       0.025     0.17
timer:  rdiag1            5       0.000       0.002     0.01
timer:  rdiag2            5       0.000       0.002     0.01
timer:  rdiag3            5       0.004       0.019     0.13
timer:  rdiag4            5       0.000       0.001     0.01
timer:  DHSCF4            5       0.380       1.902    13.14
timer:  dfscf             5       0.311       1.556    10.75
timer:  optical           1       0.000       0.000     0.00
  

elaps: ELAPSED times:
elaps:  Routine       Calls   Time/call    Tot.time        %
elaps:  siesta            1      14.639      14.639   100.00
elaps:  Setup             1       0.843       0.843     5.76
elaps:  bands             1       0.000       0.000     0.00
elaps:  writewave         1       0.000       0.000     0.00
elaps:  KSV_init          1       0.000       0.000     0.00
elaps:  IterMD            5       2.757      13.787    94.18
elaps:  hsparse           6       0.023       0.141     0.96
elaps:  overfsm          10       0.196       1.962    13.40
elaps:  IterSCF          10       1.169      11.691    79.86
elaps:  kinefsm          10       0.192       1.916    13.09
elaps:  nlefsm           10       0.402       4.023    27.48
elaps:  DHSCF            10       0.560       5.600    38.25
elaps:  DHSCF1            1       0.037       0.037     0.25
elaps:  DHSCF2            5       0.353       1.763    12.04
elaps:  REORD            90       0.000       0.024     0.16
elaps:  POISON           15       0.013       0.188     1.28
elaps:  DHSCF3           10       0.189       1.894    12.94
elaps:  rhoofd           10       0.097       0.967     6.60
elaps:  cellXC           15       0.028       0.421     2.88
elaps:  vmat             10       0.048       0.483     3.30
elaps:  diagon            5       0.006       0.029     0.20
elaps:  rdiag             5       0.005       0.026     0.17
elaps:  rdiag1            5       0.000       0.002     0.01
elaps:  rdiag2            5       0.001       0.003     0.02
elaps:  rdiag3            5       0.004       0.019     0.13
elaps:  rdiag4            5       0.000       0.001     0.01
elaps:  DHSCF4            5       0.380       1.900    12.98
elaps:  dfscf             5       0.311       1.556    10.63
elaps:  optical           1       0.000       0.000     0.00
  
>> End of run:  24-FEB-2006  12:55:14
