Siesta Version  : siesta-4.0--578
Architecture    : x86_64-linux-n-62-25-35
Compiler version: GNU Fortran (GCC) 7.3.0
Compiler flags  : mpif90 -m64 -fPIC -O3 -march=native -ftree-vectorize -fexpensive-optimizationns -funroll-loops -fprefetch-loop-arrays -fno-second-underscore
PP flags        : -I/zdata/groups/common/nicpa/2018-feb/generic/build-tools/1.0/include -I/zdatta/groups/common/nicpa/2018-feb/generic/gcc/7.3.0/include -I/zdata/groups/common/nicpa/2018-feb/generic/gcc/7.3.0/include -I/zdata/groups/common/nicpa/2018-feb/XeonE5-2660v3/zlib/1.2.11/gnu-7.3.0/include -I/zdata/groups/common/nicpa/2018-feb/generic/numactl/2.0.11/include -I/zdata/groups/common/nicpa/2018-feb/XeonE5-2660v3/libxml2/2.9.7/gnu-7.3.0/include -I/zdata/groups/common/nicpa/2018-feb/XeonE5-2660v3/hwloc/1.11.9/gnu-7.3.0/include -I/zdata/groups/common/nicpa/2018-feb/XeonE5-2660v3/openmpi/3.0.0/gnu-7.3.0/include -I/zdata/groups/common/nicpa/2018-feb/XeonE5-2660v3/szip/2.1.1/gnu-7.3.0/include -I/zdata/groups/common/nicpa/2018-feb/XeonE5-2660v3/hdf5-serial/1.8.18/gnu-7.3.0/include -I/zdata/groups/common/nicpa/2018-feb/XeonE5-2660v3/netcdf-serial/4.6.0/gnu-7.3.0/include -I/zdata/groups/common/nicpa/2018-feb/XeonE5-2660v3/scalapack/204/gnu-7.3.0/include -I/zdata/groups/common/nicpa/2018-feb/XeonE5-2660v3/openblas/0.2.20/gnu-7.3.0/include -I/zdata/groups/common/nicpa/2018-feb/XeonE5-2660v3/elpa/2017.05.003/gnu-7.3.0/include -DSIESTA__ELPA -DMPI -D1 -DFC_HAVE_ABORT -DCDF -DSIESTA__MRRR 
PARALLEL version
NetCDF support

* Running on    8 nodes in parallel
>> Start of run:  10-JUN-2018  22:09:08

                           ***********************       
                           *  WELCOME TO SIESTA  *       
                           ***********************       

reinit: Reading from standard input
************************** Dump of input data file ****************************
# A convoluted example of zmatrix input, for testing
SystemName zmatrix
SystemLabel zmatrix
NumberOfSpecies 3
NumberOfAtoms   8
%block ChemicalSpeciesLabel
1    8 O
2    1 H
3   14 Si
%endblock ChemicalSpeciesLabel
WriteCoor T
WriteForces T
LatticeConstant 1.0 Ang
%block LatticeVectors
8.0 2.0 1.0
0.5 8 0.9
1 2.5 8
%endblock LatticeVectors
ZM.ForceTolLength 0.04 eV/Ang
ZM.ForceTolAngle 0.0001 eV/deg
ZM.MaxDisplLength 0.5 Ang
ZM.MaxDisplAngle 20.0 deg
ZM.UnitsLength Ang
ZM.UnitsAngle deg
%block Zmatrix < Zmatrix.data
xc.functional LDA
xc.authors PZ
MD.TypeOfRun CG
MD.NumCGsteps 4
MD.VariableCell T
MeshCutoff 60 Ry
PAO.EnergyShift 0.01 Ry
DM.NumberPulay 5
DM.MixingWeight 0.3
************************** End of input data file *****************************

reinit: -----------------------------------------------------------------------
reinit: System Name: zmatrix
reinit: -----------------------------------------------------------------------
reinit: System Label: zmatrix                                                     
reinit: -----------------------------------------------------------------------

initatom: Reading input for the pseudopotentials and atomic orbitals ----------
 Species number:            1  Label: O Atomic number:           8
 Species number:            2  Label: H Atomic number:           1
 Species number:            3  Label: Si Atomic number:          14
Ground state valence configuration:   2s02  2p04
Reading pseudopotential information in formatted form from O.psf

Valence configuration for pseudopotential generation:
2s( 2.00) rc: 1.14
2p( 4.00) rc: 1.14
3d( 0.00) rc: 1.14
4f( 0.00) rc: 1.14
Ground state valence configuration:   1s01
Reading pseudopotential information in formatted form from H.psf

Valence configuration for pseudopotential generation:
1s( 1.00) rc: 1.25
2p( 0.00) rc: 1.25
3d( 0.00) rc: 1.25
4f( 0.00) rc: 1.25
Ground state valence configuration:   3s02  3p02
Reading pseudopotential information in formatted form from Si.psf

Valence configuration for pseudopotential generation:
3s( 2.00) rc: 1.89
3p( 2.00) rc: 1.89
3d( 0.00) rc: 1.89
4f( 0.00) rc: 1.89
For O, standard SIESTA heuristics set lmxkb to 3
 (one more than the basis l, including polarization orbitals).
Use PS.lmax or PS.KBprojectors blocks to override.
For H, standard SIESTA heuristics set lmxkb to 2
 (one more than the basis l, including polarization orbitals).
Use PS.lmax or PS.KBprojectors blocks to override.
For Si, standard SIESTA heuristics set lmxkb to 3
 (one more than the basis l, including polarization orbitals).
Use PS.lmax or PS.KBprojectors blocks to override.

<basis_specs>
===============================================================================
O                    Z=   8    Mass=  16.000        Charge= 0.17977+309
Lmxo=1 Lmxkb= 3    BasisType=split      Semic=F
L=0  Nsemic=0  Cnfigmx=2
          n=1  nzeta=2  polorb=0
            splnorm:   0.15000    
               vcte:    0.0000    
               rinn:    0.0000    
               qcoe:    0.0000    
               qyuk:    0.0000    
               qwid:   0.10000E-01
                rcs:    0.0000      0.0000    
            lambdas:    1.0000      1.0000    
L=1  Nsemic=0  Cnfigmx=2
          n=1  nzeta=2  polorb=1
            splnorm:   0.15000    
               vcte:    0.0000    
               rinn:    0.0000    
               qcoe:    0.0000    
               qyuk:    0.0000    
               qwid:   0.10000E-01
                rcs:    0.0000      0.0000    
            lambdas:    1.0000      1.0000    
-------------------------------------------------------------------------------
L=0  Nkbl=1  erefs: 0.17977+309
L=1  Nkbl=1  erefs: 0.17977+309
L=2  Nkbl=1  erefs: 0.17977+309
L=3  Nkbl=1  erefs: 0.17977+309
===============================================================================
</basis_specs>

atom: Called for O                     (Z =   8)

read_vps: Pseudopotential generation method:
read_vps: ATM3      Troullier-Martins                       
Total valence charge:    6.00000

xc_check: Exchange-correlation functional:
xc_check: Ceperley-Alder
V l=0 = -2*Zval/r beyond r=  1.1278
V l=1 = -2*Zval/r beyond r=  1.1278
V l=2 = -2*Zval/r beyond r=  1.1278
V l=3 = -2*Zval/r beyond r=  1.1138
All V_l potentials equal beyond r=  1.1278
This should be close to max(r_c) in ps generation
All pots = -2*Zval/r beyond r=  1.1278

VLOCAL1: 99.0% of the norm of Vloc inside     34.126 Ry
VLOCAL1: 99.9% of the norm of Vloc inside     77.774 Ry
atom: Maximum radius for 4*pi*r*r*local-pseudopot. charge    1.37759
atom: Maximum radius for r*vlocal+2*Zval:    1.18566
GHOST: No ghost state for L =  0
GHOST: No ghost state for L =  1
GHOST: No ghost state for L =  2
GHOST: No ghost state for L =  3

KBgen: Kleinman-Bylander projectors: 
   l= 0   rc=  1.294105   el= -1.742414   Ekb=  9.135903   kbcos=  0.326910
   l= 1   rc=  1.294105   el= -0.676589   Ekb= -8.124878   kbcos= -0.395047
   l= 2   rc=  1.448233   el=  0.002386   Ekb= -2.039267   kbcos= -0.003484
   l= 3   rc=  1.561052   el=  0.003508   Ekb= -0.799141   kbcos= -0.000344

KBgen: Total number of  Kleinman-Bylander projectors:   16
atom: -------------------------------------------------------------------------

atom: SANKEY-TYPE ORBITALS:
atom: Selected multiple-zeta basis: split     

SPLIT: Orbitals with angular momentum L= 0

SPLIT: Basis orbitals for state 2s

SPLIT: PAO cut-off radius determined from an
SPLIT: energy shift=  0.010000 Ry

   izeta = 1
                 lambda =    1.000000
                     rc =    3.562532
                 energy =   -1.732600
                kinetic =    1.577294
    potential(screened) =   -3.309894
       potential(ionic) =  -11.240760

   izeta = 2
                 rmatch =    2.541963
              splitnorm =    0.150000
                 energy =   -1.504672
                kinetic =    2.374987
    potential(screened) =   -3.879659
       potential(ionic) =  -12.401042

SPLIT: Orbitals with angular momentum L= 1

SPLIT: Basis orbitals for state 2p

SPLIT: PAO cut-off radius determined from an
SPLIT: energy shift=  0.010000 Ry

   izeta = 1
                 lambda =    1.000000
                     rc =    4.351355
                 energy =   -0.667669
                kinetic =    4.894715
    potential(screened) =   -5.562384
       potential(ionic) =  -13.283144

   izeta = 2
                 rmatch =    2.606321
              splitnorm =    0.150000
                 energy =   -0.413426
                kinetic =    7.271280
    potential(screened) =   -7.684706
       potential(ionic) =  -16.331022

POLgen: Perturbative polarization orbital with L=  2

POLgen: Polarization orbital for state 2p

   izeta = 1
                     rc =    4.351355
                 energy =    2.201853
                kinetic =    4.360449
    potential(screened) =   -2.158596
       potential(ionic) =   -8.257377
atom: Total number of Sankey-type orbitals: 13

atm_pop: Valence configuration (for local Pseudopot. screening):
 2s( 2.00)                                                            
 2p( 4.00)                                                            
Vna: chval, zval:    6.00000   6.00000

Vna:  Cut-off radius for the neutral-atom potential:   4.351355

atom: _________________________________________________________________________

<basis_specs>
===============================================================================
H                    Z=   1    Mass=  1.0100        Charge= 0.17977+309
Lmxo=0 Lmxkb= 2    BasisType=split      Semic=F
L=0  Nsemic=0  Cnfigmx=1
          n=1  nzeta=2  polorb=1
            splnorm:   0.15000    
               vcte:    0.0000    
               rinn:    0.0000    
               qcoe:    0.0000    
               qyuk:    0.0000    
               qwid:   0.10000E-01
                rcs:    0.0000      0.0000    
            lambdas:    1.0000      1.0000    
-------------------------------------------------------------------------------
L=0  Nkbl=1  erefs: 0.17977+309
L=1  Nkbl=1  erefs: 0.17977+309
L=2  Nkbl=1  erefs: 0.17977+309
===============================================================================
</basis_specs>

atom: Called for H                     (Z =   1)

read_vps: Pseudopotential generation method:
read_vps: ATM3      Troullier-Martins                       
Total valence charge:    1.00000

xc_check: Exchange-correlation functional:
xc_check: Ceperley-Alder
V l=0 = -2*Zval/r beyond r=  1.2343
V l=1 = -2*Zval/r beyond r=  1.2189
V l=2 = -2*Zval/r beyond r=  1.2189
All V_l potentials equal beyond r=  1.2343
This should be close to max(r_c) in ps generation
All pots = -2*Zval/r beyond r=  1.2343

VLOCAL1: 99.0% of the norm of Vloc inside     28.493 Ry
VLOCAL1: 99.9% of the norm of Vloc inside     64.935 Ry
atom: Maximum radius for 4*pi*r*r*local-pseudopot. charge    1.45251
atom: Maximum radius for r*vlocal+2*Zval:    1.21892
GHOST: No ghost state for L =  0
GHOST: No ghost state for L =  1
GHOST: No ghost state for L =  2

KBgen: Kleinman-Bylander projectors: 
   l= 0   rc=  1.364359   el= -0.467325   Ekb= -2.005361   kbcos= -0.336422
   l= 1   rc=  1.434438   el=  0.001430   Ekb= -0.501708   kbcos= -0.021697
   l= 2   rc=  1.470814   el=  0.002365   Ekb= -0.190555   kbcos= -0.002281

KBgen: Total number of  Kleinman-Bylander projectors:    9
atom: -------------------------------------------------------------------------

atom: SANKEY-TYPE ORBITALS:
atom: Selected multiple-zeta basis: split     

SPLIT: Orbitals with angular momentum L= 0

SPLIT: Basis orbitals for state 1s

SPLIT: PAO cut-off radius determined from an
SPLIT: energy shift=  0.010000 Ry

   izeta = 1
                 lambda =    1.000000
                     rc =    5.336316
                 energy =   -0.457946
                kinetic =    0.886710
    potential(screened) =   -1.344656
       potential(ionic) =   -1.876618

   izeta = 2
                 rmatch =    4.002347
              splitnorm =    0.150000
                 energy =   -0.355904
                kinetic =    1.439488
    potential(screened) =   -1.795392
       potential(ionic) =   -2.364690

POLgen: Perturbative polarization orbital with L=  1

POLgen: Polarization orbital for state 1s

   izeta = 1
                     rc =    5.336316
                 energy =    0.616245
                kinetic =    1.262150
    potential(screened) =   -0.645906
       potential(ionic) =   -1.116519
atom: Total number of Sankey-type orbitals:  5

atm_pop: Valence configuration (for local Pseudopot. screening):
 1s( 1.00)                                                            
Vna: chval, zval:    1.00000   1.00000

Vna:  Cut-off radius for the neutral-atom potential:   5.336316

atom: _________________________________________________________________________

<basis_specs>
===============================================================================
Si                   Z=  14    Mass=  28.090        Charge= 0.17977+309
Lmxo=1 Lmxkb= 3    BasisType=split      Semic=F
L=0  Nsemic=0  Cnfigmx=3
          n=1  nzeta=2  polorb=0
            splnorm:   0.15000    
               vcte:    0.0000    
               rinn:    0.0000    
               qcoe:    0.0000    
               qyuk:    0.0000    
               qwid:   0.10000E-01
                rcs:    0.0000      0.0000    
            lambdas:    1.0000      1.0000    
L=1  Nsemic=0  Cnfigmx=3
          n=1  nzeta=2  polorb=1
            splnorm:   0.15000    
               vcte:    0.0000    
               rinn:    0.0000    
               qcoe:    0.0000    
               qyuk:    0.0000    
               qwid:   0.10000E-01
                rcs:    0.0000      0.0000    
            lambdas:    1.0000      1.0000    
-------------------------------------------------------------------------------
L=0  Nkbl=1  erefs: 0.17977+309
L=1  Nkbl=1  erefs: 0.17977+309
L=2  Nkbl=1  erefs: 0.17977+309
L=3  Nkbl=1  erefs: 0.17977+309
===============================================================================
</basis_specs>

atom: Called for Si                    (Z =  14)

read_vps: Pseudopotential generation method:
read_vps: ATM3      Troullier-Martins                       
Total valence charge:    4.00000

xc_check: Exchange-correlation functional:
xc_check: Ceperley-Alder
V l=0 = -2*Zval/r beyond r=  2.5494
V l=1 = -2*Zval/r beyond r=  2.5494
V l=2 = -2*Zval/r beyond r=  2.5494
V l=3 = -2*Zval/r beyond r=  2.5494
All V_l potentials equal beyond r=  1.8652
This should be close to max(r_c) in ps generation
All pots = -2*Zval/r beyond r=  2.5494
Using large-core scheme for Vlocal

atom: Estimated core radius    2.54944

atom: Including non-local core corrections could be a good idea
atom: Maximum radius for 4*pi*r*r*local-pseudopot. charge    2.85303
atom: Maximum radius for r*vlocal+2*Zval:    2.58151
GHOST: No ghost state for L =  0
GHOST: No ghost state for L =  1
GHOST: No ghost state for L =  2
GHOST: No ghost state for L =  3

KBgen: Kleinman-Bylander projectors: 
   l= 0   rc=  1.936440   el= -0.796617   Ekb=  4.661340   kbcos=  0.299756
   l= 1   rc=  1.936440   el= -0.307040   Ekb=  1.494238   kbcos=  0.301471
   l= 2   rc=  1.936440   el=  0.002313   Ekb= -2.808672   kbcos= -0.054903
   l= 3   rc=  1.936440   el=  0.003402   Ekb= -0.959059   kbcos= -0.005513

KBgen: Total number of  Kleinman-Bylander projectors:   16
atom: -------------------------------------------------------------------------

atom: SANKEY-TYPE ORBITALS:
atom: Selected multiple-zeta basis: split     

SPLIT: Orbitals with angular momentum L= 0

SPLIT: Basis orbitals for state 3s

SPLIT: PAO cut-off radius determined from an
SPLIT: energy shift=  0.010000 Ry

   izeta = 1
                 lambda =    1.000000
                     rc =    5.397360
                 energy =   -0.786473
                kinetic =    0.546491
    potential(screened) =   -1.332964
       potential(ionic) =   -3.793893

   izeta = 2
                 rmatch =    4.474538
              splitnorm =    0.150000
                 energy =   -0.690041
                kinetic =    0.854339
    potential(screened) =   -1.544380
       potential(ionic) =   -4.120474

SPLIT: Orbitals with angular momentum L= 1

SPLIT: Basis orbitals for state 3p

SPLIT: PAO cut-off radius determined from an
SPLIT: energy shift=  0.010000 Ry

   izeta = 1
                 lambda =    1.000000
                     rc =    6.930397
                 energy =   -0.298036
                kinetic =    0.832892
    potential(screened) =   -1.130928
       potential(ionic) =   -3.361641

   izeta = 2
                 rmatch =    5.198700
              splitnorm =    0.150000
                 energy =   -0.218749
                kinetic =    1.203229
    potential(screened) =   -1.421978
       potential(ionic) =   -3.849753

POLgen: Perturbative polarization orbital with L=  2

POLgen: Polarization orbital for state 3p

   izeta = 1
                     rc =    6.930397
                 energy =    0.377307
                kinetic =    1.185358
    potential(screened) =   -0.808051
       potential(ionic) =   -2.819307
atom: Total number of Sankey-type orbitals: 13

atm_pop: Valence configuration (for local Pseudopot. screening):
 3s( 2.00)                                                            
 3p( 2.00)                                                            
Vna: chval, zval:    4.00000   4.00000

Vna:  Cut-off radius for the neutral-atom potential:   6.930397

atom: _________________________________________________________________________

prinput: Basis input ----------------------------------------------------------

PAO.BasisType split     

%block ChemicalSpeciesLabel
    1    8 O                       # Species index, atomic number, species label
    2    1 H                       # Species index, atomic number, species label
    3   14 Si                      # Species index, atomic number, species label
%endblock ChemicalSpeciesLabel

%block PAO.Basis                 # Define Basis set
O                     2                    # Species label, number of l-shells
 n=2   0   2                         # n, l, Nzeta 
   3.563      2.542   
   1.000      1.000   
 n=2   1   2 P   1                   # n, l, Nzeta, Polarization, NzetaPol
   4.351      2.606   
   1.000      1.000   
H                     1                    # Species label, number of l-shells
 n=1   0   2 P   1                   # n, l, Nzeta, Polarization, NzetaPol
   5.336      4.002   
   1.000      1.000   
Si                    2                    # Species label, number of l-shells
 n=3   0   2                         # n, l, Nzeta 
   5.397      4.475   
   1.000      1.000   
 n=3   1   2 P   1                   # n, l, Nzeta, Polarization, NzetaPol
   6.930      5.199   
   1.000      1.000   
%endblock PAO.Basis

prinput: ----------------------------------------------------------------------

Dumping basis to NetCDF file O.ion.nc
Dumping basis to NetCDF file H.ion.nc
Dumping basis to NetCDF file Si.ion.nc
coor:   Atomic-coordinates input format  =     Cartesian coordinates
coor:                                            (in Bohr units)
read_Zmatrix: Length units: Ang       
read_Zmatrix: Angle  units: deg       
read_Zmatrix: Force tolerances:
read_Zmatrix:    for lengths =     0.001556 Ry/Bohr
read_Zmatrix:    for angles  =     0.000421 Ry/rad

read_Zmatrix: Maximum displacements:
read_Zmatrix:    for lengths =     0.944863 Bohr
read_Zmatrix:    for angles  =     0.349066 rad
%block Zmatrix
molecule_cartesian
  1 0 0 0   X Y Z 0 0 0
  2 1 0 0   HO1 THETA PHI 0 0 0
  2 1 2 0   HO2 HOH TAU 0 0 0
molecule_fractional
  1 0 0 0   X2 Y2 Z2 0 0 0
  2 1 0 0   HO1 THETA PHI 0 0 0
  2 1 2 0   HO2 HOH TAU 0 0 0
fractional
 3  0.8 SiX 0.8   0 0 0
 3  0.75  0.75 SiZ  0 0 0
variables
    X   0.1
    Y   0.11
    Z   0.12
    X2   0.5
    Y2   0.5
    Z2   0.5
    THETA  90.0
    PHI    37.0
    TAU    90.0
    SiX    0.85
constants
    HO1 0.956997
    HO2 0.956997
    HOH 104.0
    SiZ 0.75
%endblock Zmatrix
 nZmol:            2
 nSpecies:            1           2           2           1           2           2           3           3

zmatrix: Z-matrix coordinates: (Ang ; deg )
zmatrix: (Fractional coordinates have been converted to cartesian)
molecule    1 (     3 atoms)
      0.10000000      0.11000000      0.12000000
      0.95699700     90.00000000     37.00000000
      0.95699700    104.00000000     90.00000000
molecule    2 (     3 atoms)
      4.75000000      6.25000000      4.95000000
      0.95699700     90.00000000     37.00000000
      0.95699700    104.00000000     90.00000000
cartesian block    1 (     2 atoms)
      7.62500000     10.40000000      7.96500000
      7.12500000      9.37500000      7.42500000


Z-matrix Symbol Section -------
Variables
 X           0.10000000000000001     
 Y           0.11000000000000000     
 Z           0.12000000000000000     
 THETA        90.000000000000128     
 PHI          37.000000000000050     
 TAU          90.000000000000128     
 X2           0.0000000000000000     
 Y2           0.0000000000000000     
 Z2           0.0000000000000000     
 SiX          0.0000000000000000     
Constants
 HO1         0.95699699999999988     
 HO2         0.95699699999999988     
 HOH          104.00000000000014     
 SiZ          0.0000000000000000     
------------ End of Z-matrix Information


siesta: Atomic coordinates (Bohr) and species
siesta:      0.18897   0.20787   0.22677  1        1
siesta:      1.63328   1.29623   0.22677  2        2
siesta:     -1.21647   1.34597   0.22677  2        3
siesta:      8.97620  11.81079   9.35415  1        4
siesta:     10.42051  12.89915   9.35415  2        5
siesta:      7.57076  12.94890   9.35415  2        6
siesta:     14.40917  19.65316  15.05167  3        7
siesta:     13.46430  17.71619  14.03122  3        8

siesta: System type = bulk      

initatomlists: Number of atoms, orbitals, and projectors:      8    72   100

siesta: ******************** Simulation parameters ****************************
siesta:
siesta: The following are some of the parameters of the simulation.
siesta: A complete list of the parameters used, including default values,
siesta: can be found in file out.fdf
siesta:
redata: Non-Collinear-spin run           =     F
redata: SpinPolarized (Up/Down) run      =     F
redata: Number of spin components        =     1
redata: Long output                      =     F
redata: Number of Atomic Species         =        3
redata: Charge density info will appear in .RHO file
redata: Write Mulliken Pop.              =     NO
redata: Matel table size (NRTAB)         =     1024
redata: Mesh Cutoff                      =    60.0000 Ry
redata: Net charge of the system         =     0.0000 |e|
redata: Min. number of SCF Iter          =        0
redata: Max. number of SCF Iter          =       50
redata: Mix DM or H after convergence    =     F
redata: Recompute H after scf cycle      =     F
redata: Performing Pulay mixing using    =     5 iterations
redata: Mix DM in first SCF step ?       =     F
redata: Write Pulay info on disk?        =     F
redata: Discard 1st Pulay DM after  kick =     F
redata: New DM Mixing Weight             =     0.3000
redata: New DM Occupancy tolerance       = 0.000000000001
redata: No kicks to SCF
redata: DM Mixing Weight for Kicks       =     0.5000
redata: DM Tolerance for SCF             =     0.000100
redata: Require (free) Energy convergence in SCF =     F
redata: DM (free)Energy tolerance for SCF =     0.000010 eV
redata: Require Harris convergence for SCF =     F
redata: DM Harris energy tolerance for SCF =     0.000010 eV
redata: Using Saved Data (generic)   =     F
redata: Use continuation files for DM    =     F
redata: Neglect nonoverlap interactions  =     F
redata: Method of Calculation            =     Diagonalization
redata: Divide and Conquer               =     T
redata: Electronic Temperature           =     0.0019  Ry
redata: Fix the spin of the system       =     F
redata: Dynamics option                  =     CG coord. optimization
redata: Variable cell                    =     T
redata: Use continuation files for CG    =     F
redata: Max atomic displ per move        =     0.2000  Bohr
redata: Maximum number of CG moves       =        4
redata: Force tolerance                  =     0.0016  Ry/Bohr
redata: Stress tolerance                 =     1.0000  GPa
redata: ***********************************************************************
Total number of electrons:    24.000000
Total ionic charge:    24.000000

* ProcessorY, Blocksize:    2   9


* Orbital distribution balance (max,min):     9     9

 Kpoints in:            1 . Kpoints trimmed:            1

siesta: k-grid: Number of k-points =     1
siesta: k-grid: Cutoff (effective) =     4.033 Ang
siesta: k-grid: Supercell and displacements
siesta: k-grid:    1   0   0      0.000
siesta: k-grid:    0   1   0      0.000
siesta: k-grid:    0   0   1      0.000

                     ====================================
                        Begin CG opt. move =      0

zmatrix: Z-matrix coordinates: (Ang ; deg )
zmatrix: (Fractional coordinates have been converted to cartesian)
molecule    1 (     3 atoms)
      0.10000000      0.11000000      0.12000000
      0.95699700     90.00000000     37.00000000
      0.95699700    104.00000000     90.00000000
molecule    2 (     3 atoms)
      4.75000000      6.25000000      4.95000000
      0.95699700     90.00000000     37.00000000
      0.95699700    104.00000000     90.00000000
cartesian block    1 (     2 atoms)
      7.62500000     10.40000000      7.96500000
      7.12500000      9.37500000      7.42500000


Z-matrix Symbol Section -------
Variables
 X           0.10000000000000001     
 Y           0.11000000000000000     
 Z           0.12000000000000000     
 THETA        90.000000000000128     
 PHI          37.000000000000050     
 TAU          90.000000000000128     
 X2          0.50000000000000000     
 Y2          0.50000000000000022     
 Z2          0.50000000000000011     
 SiX         0.85000000000000009     
Constants
 HO1         0.95699699999999988     
 HO2         0.95699699999999988     
 HOH          104.00000000000014     
 SiZ         0.75000000000000011     
------------ End of Z-matrix Information

                     ====================================

outcell: Unit cell vectors (Ang):
        8.000000    2.000000    1.000000
        0.500000    8.000000    0.900000
        1.000000    2.500000    8.000000

outcell: Cell vector modules (Ang)   :    8.306624    8.065978    8.440972
outcell: Cell angles (23,13,12) (deg):     65.9931     72.5722     71.8241
outcell: Cell volume (Ang**3)        :    481.0500
Gamma-point calculation with multiply-connected orbital pairs
Folding of H and S implicitly performed
New_DM. Step:     1
Initializing Density Matrix...
New grid distribution:   1
           1       1:   20    1:    9    1:    5
           2       1:   20    1:    9    6:   10
           3       1:   20    1:    9   11:   14
           4       1:   20    1:    9   15:   18
           5       1:   20   10:   18    1:    5
           6       1:   20   10:   18    6:   10
           7       1:   20   10:   18   11:   14
           8       1:   20   10:   18   15:   18

InitMesh: MESH =    40 x    36 x    36 =       51840
InitMesh: (bp) =    20 x    18 x    18 =        6480
InitMesh: Mesh cutoff (required, used) =    60.000    62.724 Ry
ExtMesh (bp) on 0 =    60 x    49 x    41 =      120540
New grid distribution:   2
           1       1:   13    1:   12    1:   12
           2      14:   20   12:   18    1:   11
           3      14:   20    1:   10   12:   18
           4       1:   13    1:   11   13:   18
           5       1:   13   13:   18    1:   12
           6      14:   20    1:   11    1:   11
           7      14:   20   11:   18   12:   18
           8       1:   13   12:   18   13:   18
New grid distribution:   3
           1       1:   11    1:   12    1:   10
           2      12:   20   10:   18    1:    9
           3      12:   20    1:    9   10:   18
           4      12:   20    1:    9    1:    9
           5       1:   11    1:    9   11:   18
           6       1:   11   13:   18    1:   10
           7       1:   11   10:   18   11:   18
           8      12:   20   10:   18   10:   18
Setting up quadratic distribution...
ExtMesh (bp) on 0 =    53 x    52 x    48 =      132288
PhiOnMesh: Number of (b)points on node 0 =                 1872
PhiOnMesh: nlist on node 0 =                17518

stepf: Fermi-Dirac step function

siesta: Program's energy decomposition (eV):
siesta: Ebs     =      -352.890983
siesta: Eions   =      2012.511081
siesta: Ena     =       487.797274
siesta: Ekin    =       741.932136
siesta: Enl     =       -51.166351
siesta: DEna    =         0.000001
siesta: DUscf   =         0.000000
siesta: DUext   =         0.000000
siesta: Exc     =      -278.752526
siesta: eta*DQ  =         0.000000
siesta: Emadel  =         0.000000
siesta: Emeta   =         0.000000
siesta: Emolmec =         0.000000
siesta: Ekinion =         0.000000
siesta: Eharris =     -1122.277618
siesta: Etot    =     -1112.700546
siesta: FreeEng =     -1112.700546

   scf: iscf   Eharris(eV)      E_KS(eV)   FreeEng(eV)    dDmax  Ef(eV)
   scf:    1    -1122.2776    -1112.7005    -1112.7005  1.83031 -7.0794
timer: Routine,Calls,Time,% =    IterSCF     1       0.024   0.46
   scf:    2    -1125.2778    -1115.2927    -1115.2928  0.44290 -3.4037
   scf:    3    -1119.0328    -1116.1007    -1116.1007  0.31551 -5.0510
   scf:    4    -1118.9945    -1117.2308    -1117.2308  0.07380 -4.6975
   scf:    5    -1118.9521    -1118.1219    -1118.1219  0.02765 -4.6282
   scf:    6    -1118.9491    -1118.4050    -1118.4050  0.02050 -4.5726
   scf:    7    -1118.9487    -1118.7157    -1118.7157  0.01131 -4.5328
   scf:    8    -1118.9485    -1118.9317    -1118.9317  0.00143 -4.5096
   scf:    9    -1118.9485    -1118.9426    -1118.9426  0.00070 -4.5126
   scf:   10    -1118.9485    -1118.9484    -1118.9484  0.00035 -4.5130
   scf:   11    -1118.9485    -1118.9492    -1118.9492  0.00018 -4.5129
   scf:   12    -1118.9485    -1118.9488    -1118.9488  0.00007 -4.5128

SCF Convergence by dMax criterion
max |DM_out - DM_in|:     0.00006621
SCF cycle converged after   12 iterations

Using DM_out to compute the final energy and forces

siesta: E_KS(eV) =            -1118.9485

siesta: E_KS - E_eggbox =     -1118.9485

zmatrix: Atomic forces (eV/Ang ; eV/deg )
zmatrix: (No information if symbols are used)
molecule    1 (     3 atoms)
     1    0.000000    0.000000    0.000000
     2    0.000000    0.000000    0.000000
     3    0.000000    0.000000    0.000000
molecule    2 (     3 atoms)
     4    0.000000    0.000000    0.000000
     5    0.000000    0.000000    0.000000
     6    0.000000    0.000000    0.000000
cartesian    1 (     2 atoms)
     7    0.000000    0.000000    0.000000
     8    0.000000    0.000000    0.000000


Variable forces (eV/Ang ; eV/deg )
 X          -0.46489440497009521     
 Y          -0.62578168679293367     
 Z           0.50573506573206395     
 THETA        1.8184134306938251E-003
 PHI         -1.6999263789603237E-003
 TAU         -1.2619913795688345E-003
 X2          -3.7882272743121503E-002
 Y2          0.22083809616782613     
 Z2          -2.8365055268929091E-002
 SiX          66.520545134402084     

siesta: Atomic forces (eV/Ang):
     1   -0.535638   -1.705476    0.483657
     2    0.957270    0.450406   -0.058891
     3   -0.886526    0.629288    0.080968
     4   -0.024477   -0.729047    0.005875
     5    0.893747    0.476547   -0.031140
     6   -0.907152    0.473338   -0.003099
     7   32.563683   66.520545   35.077754
     8  -32.425692  -66.458976  -34.995172
----------------------------------------
   Tot   -0.364785   -0.343375    0.559952
----------------------------------------
   Max   66.520545
   Res   23.644110    sqrt( Sum f_i^2 / 3N )
----------------------------------------
   Max   66.520545    constrained

Stress-tensor-Voigt (kbar):      -61.97     -230.36      -62.25     -109.36     -118.56      -57.25
(Free)E + p*V (eV/cell)    -1083.4613
Target enthalpy (eV/cell)    -1118.9485

siesta: Stress tensor (static) (eV/Ang**3):
        -0.038677   -0.068257   -0.035730
        -0.068257   -0.143777   -0.074000
        -0.035730   -0.074000   -0.038856

siesta: Pressure (static):        118.19414624  kBar

siesta: Stress tensor (total) (eV/Ang**3):
        -0.038677   -0.068257   -0.035730
        -0.068257   -0.143777   -0.074000
        -0.035730   -0.074000   -0.038856

siesta: Pressure (total):        118.19414624  kBar

cgvc_zmatrix: No target stress found, assuming hydrostatic MD.TargetPressure.

cgvc_zmatrix: Target stress (kBar)
cgvc_zmatrix:        -0.000       0.000       0.000
cgvc_zmatrix:        -0.000       0.000       0.000
cgvc_zmatrix:        -0.000       0.000       0.000

                     ====================================
                        Begin CG opt. move =      1

zmatrix: Z-matrix coordinates: (Ang ; deg )
zmatrix: (Fractional coordinates have been converted to cartesian)
molecule    1 (     3 atoms)
      0.09910659      0.11009380      0.12484773
      0.95699700     90.16155382     36.84897296
      0.95699700    104.00000000     89.88788054
molecule    2 (     3 atoms)
      4.86461778      6.48328347      5.07021443
      0.95699700     90.16155382     36.84897296
      0.95699700    104.00000000     89.88788054
cartesian block    1 (     2 atoms)
      7.62500000     10.12344405      7.96500000
      7.12500000      9.37500000      7.42500000


Z-matrix Symbol Section -------
Variables
 X            9.9106588830822601E-002
 Y           0.11009380052550462     
 Z           0.12484773172163051     
 THETA        90.161553816714346     
 PHI          36.848972961803661     
 TAU          89.887880544331566     
 X2          0.49996671426356204     
 Y2          0.50020579327079506     
 Z2          0.49997586373865710     
 SiX         0.77836776022379195     
Constants
 HO1         0.95699699999999988     
 HO2         0.95699699999999988     
 HOH          104.00000000000014     
 SiZ         0.73394491444847221     
------------ End of Z-matrix Information

                     ====================================

outcell: Unit cell vectors (Ang):
        8.070238    2.132352    1.068930
        0.587138    8.182419    0.994033
        1.072206    2.648698    8.077517

outcell: Cell vector modules (Ang)   :    8.415360    8.263463    8.568052
outcell: Cell angles (23,13,12) (deg):     64.6338     71.4526     70.4687
outcell: Cell volume (Ang**3)        :    496.5874
Gamma-point calculation with multiply-connected orbital pairs
Folding of H and S implicitly performed
New_DM. Step:     2
Re-using DM from previous geometry...
Re-using DM without extrapolation (not allowed)
Density Matrix sparsity pattern changed.
Note: For starting DM, Qtot, Tr[D*S] =         24.00000000         24.25048525
New grid distribution:   1
           1       1:   20    1:    9    1:    5
           2       1:   20    1:    9    6:   10
           3       1:   20    1:    9   11:   14
           4       1:   20    1:    9   15:   18
           5       1:   20   10:   18    1:    5
           6       1:   20   10:   18    6:   10
           7       1:   20   10:   18   11:   14
           8       1:   20   10:   18   15:   18

InitMesh: MESH =    40 x    36 x    36 =       51840
InitMesh: (bp) =    20 x    18 x    18 =        6480
InitMesh: Mesh cutoff (required, used) =    60.000    62.389 Ry
ExtMesh (bp) on 0 =    60 x    49 x    41 =      120540
New grid distribution:   2
           1       1:   13    1:   12    1:   12
           2      14:   20   12:   18    1:   11
           3      14:   20    1:   10   12:   18
           4       1:   13    1:   11   13:   18
           5       1:   13   13:   18    1:   12
           6      14:   20    1:   11    1:   11
           7      14:   20   11:   18   12:   18
           8       1:   13   12:   18   13:   18
New grid distribution:   3
           1       1:   11    1:   12    1:   10
           2      12:   20   10:   18    1:    9
           3      12:   20    1:    9   10:   18
           4      12:   20    1:    9    1:    9
           5       1:   11    1:    9   11:   18
           6       1:   11   13:   18    1:   10
           7       1:   11   10:   18   11:   18
           8      12:   20   10:   18   10:   18
Setting up quadratic distribution...
ExtMesh (bp) on 0 =    53 x    52 x    48 =      132288
PhiOnMesh: Number of (b)points on node 0 =                 1872
PhiOnMesh: nlist on node 0 =                17042

   scf: iscf   Eharris(eV)      E_KS(eV)   FreeEng(eV)    dDmax  Ef(eV)
   scf:    1    -1095.5379    -1094.0051    -1094.0051  0.13481 -5.6848
   scf:    2    -1095.8664    -1094.8000    -1094.8000  0.14324 -4.9512
   scf:    3    -1095.2047    -1094.6801    -1094.6801  0.07213 -4.4941
   scf:    4    -1095.1970    -1095.1104    -1095.1104  0.01894 -4.2811
   scf:    5    -1095.1960    -1095.1784    -1095.1784  0.00471 -4.3088
   scf:    6    -1095.1959    -1095.1930    -1095.1930  0.00147 -4.3012
   scf:    7    -1095.1959    -1095.1969    -1095.1969  0.00044 -4.3023
   scf:    8    -1095.1959    -1095.1967    -1095.1967  0.00025 -4.3030
   scf:    9    -1095.1959    -1095.1958    -1095.1958  0.00005 -4.3033

SCF Convergence by dMax criterion
max |DM_out - DM_in|:     0.00005211
SCF cycle converged after    9 iterations

Using DM_out to compute the final energy and forces

siesta: E_KS(eV) =            -1095.1959

zmatrix: Atomic forces (eV/Ang ; eV/deg )
zmatrix: (No information if symbols are used)
molecule    1 (     3 atoms)
     1    0.000000    0.000000    0.000000
     2    0.000000    0.000000    0.000000
     3    0.000000    0.000000    0.000000
molecule    2 (     3 atoms)
     4    0.000000    0.000000    0.000000
     5    0.000000    0.000000    0.000000
     6    0.000000    0.000000    0.000000
cartesian    1 (     2 atoms)
     7    0.000000    0.000000    0.000000
     8    0.000000    0.000000    0.000000


Variable forces (eV/Ang ; eV/deg )
 X          -0.49999123697141645     
 Y          -0.46945490088277153     
 Z           0.65100191670647156     
 THETA        7.2902076352381008E-004
 PHI         -8.5194178968187322E-004
 TAU         -1.6135810149663890E-004
 X2          -2.3308675896908292E-002
 Y2          0.17223245910318782     
 Z2          -3.2300608659797683E-002
 SiX          104.93764468365588     

siesta: Atomic forces (eV/Ang):
     1   -0.572407   -1.522125    0.663526
     2    0.927496    0.472392   -0.037236
     3   -0.855080    0.580278    0.024712
     4   -0.040854   -0.800463   -0.013080
     5    0.915182    0.491040   -0.010344
     6   -0.897637    0.481655   -0.008877
     7   70.126873  104.937645   75.689520
     8  -70.087512 -104.958098  -75.666842
----------------------------------------
   Tot   -0.483939   -0.317676    0.641379
----------------------------------------
   Max  104.958098
   Res   42.485547    sqrt( Sum f_i^2 / 3N )
----------------------------------------
   Max  104.958098    constrained

Stress-tensor-Voigt (kbar):     -121.45     -256.65     -131.60     -168.32     -182.07     -121.56
(Free)E + p*V (eV/cell)    -1042.5378
Target enthalpy (eV/cell)    -1095.1959

siesta: Stress tensor (static) (eV/Ang**3):
        -0.075799   -0.105056   -0.075872
        -0.105055   -0.160185   -0.113637
        -0.075872   -0.113637   -0.082136

siesta: Pressure (static):        169.89654064  kBar

siesta: Stress tensor (total) (eV/Ang**3):
        -0.075799   -0.105056   -0.075872
        -0.105055   -0.160185   -0.113637
        -0.075872   -0.113637   -0.082136

siesta: Pressure (total):        169.89654064  kBar

                     ====================================
                        Begin CG opt. move =      2

zmatrix: Z-matrix coordinates: (Ang ; deg )
zmatrix: (Fractional coordinates have been converted to cartesian)
molecule    1 (     3 atoms)
      0.09811631      0.10999470      0.12959620
      0.95699700     90.32310763     36.69794592
      0.95699700    104.00000000     89.77576109
molecule    2 (     3 atoms)
      4.97926326      6.71662603      5.19045923
      0.95699700     90.32310763     36.69794592
      0.95699700    104.00000000     89.77576109
cartesian block    1 (     2 atoms)
      7.62500000      9.85572724      7.96500000
      7.12500000      9.37500000      7.42500000


Z-matrix Symbol Section -------
Variables
 X            9.8116312015332247E-002
 Y           0.10999469830527453     
 Z           0.12959619586838902     
 THETA        90.323107633428563     
 PHI          36.697945923607278     
 TAU          89.775761088663018     
 X2          0.49993342852712402     
 Y2          0.50041158654158979     
 Z2          0.49995172747731420     
 SiX         0.71103552056155417     
Constants
 HO1         0.95699699999999988     
 HO2         0.95699699999999988     
 HOH          104.00000000000014     
 SiZ         0.71884006856552229     
------------ End of Z-matrix Information

                     ====================================

outcell: Unit cell vectors (Ang):
        8.140477    2.264705    1.137861
        0.674276    8.364838    1.088066
        1.144413    2.797395    8.155035

outcell: Cell vector modules (Ang)   :    8.525900    8.462213    8.697108
outcell: Cell angles (23,13,12) (deg):     63.3207     70.3535     69.1570
outcell: Cell volume (Ang**3)        :    512.1501
Gamma-point calculation with multiply-connected orbital pairs
Folding of H and S implicitly performed
New_DM. Step:     3
Re-using DM from previous geometry...
Re-using DM without extrapolation (not allowed)
Density Matrix sparsity pattern changed.
Note: For starting DM, Qtot, Tr[D*S] =         24.00000000         24.19732664
New grid distribution:   1
           1       1:   20    1:    9    1:    5
           2       1:   20    1:    9    6:   10
           3       1:   20    1:    9   11:   14
           4       1:   20    1:    9   15:   18
           5       1:   20   10:   18    1:    5
           6       1:   20   10:   18    6:   10
           7       1:   20   10:   18   11:   14
           8       1:   20   10:   18   15:   18

InitMesh: MESH =    40 x    36 x    36 =       51840
InitMesh: (bp) =    20 x    18 x    18 =        6480
InitMesh: Mesh cutoff (required, used) =    60.000    62.083 Ry
ExtMesh (bp) on 0 =    60 x    49 x    41 =      120540
New grid distribution:   2
           1       1:   13    1:   12    1:   11
           2      14:   20    1:   11    1:   11
           3      14:   20   12:   18    1:   11
           4      14:   20    1:   10   12:   18
           5       1:   13   13:   18    1:   11
           6      14:   20   11:   18   12:   18
           7       1:   13   12:   18   12:   18
           8       1:   13    1:   11   12:   18
New grid distribution:   3
           1       1:   11    1:   12    1:   11
           2      12:   20    1:    9    1:    9
           3      12:   20    1:    9   10:   18
           4       1:   11    1:    9   12:   18
           5      12:   20   10:   18    1:    9
           6       1:   11   13:   18    1:   11
           7      12:   20   10:   18   10:   18
           8       1:   11   10:   18   12:   18
Setting up quadratic distribution...
ExtMesh (bp) on 0 =    53 x    52 x    47 =      129532
PhiOnMesh: Number of (b)points on node 0 =                 1716
PhiOnMesh: nlist on node 0 =                14357

   scf: iscf   Eharris(eV)      E_KS(eV)   FreeEng(eV)    dDmax  Ef(eV)
   scf:    1    -1063.4243    -1062.5052    -1062.5052  0.14922 -5.1062
   scf:    2    -1063.5520    -1063.0364    -1063.0364  0.09776 -3.4855
   scf:    3    -1063.2374    -1063.0157    -1063.0157  0.04516 -4.3184
   scf:    4    -1063.2364    -1063.1789    -1063.1789  0.00981 -4.3241
   scf:    5    -1063.2353    -1063.2156    -1063.2156  0.00182 -4.3406
   scf:    6    -1063.2353    -1063.2252    -1063.2252  0.00075 -4.3354
   scf:    7    -1063.2353    -1063.2334    -1063.2334  0.00017 -4.3359
   scf:    8    -1063.2353    -1063.2344    -1063.2344  0.00011 -4.3361
   scf:    9    -1063.2353    -1063.2351    -1063.2351  0.00002 -4.3363

SCF Convergence by dMax criterion
max |DM_out - DM_in|:     0.00001803
SCF cycle converged after    9 iterations

Using DM_out to compute the final energy and forces

siesta: E_KS(eV) =            -1063.2353

zmatrix: Atomic forces (eV/Ang ; eV/deg )
zmatrix: (No information if symbols are used)
molecule    1 (     3 atoms)
     1    0.000000    0.000000    0.000000
     2    0.000000    0.000000    0.000000
     3    0.000000    0.000000    0.000000
molecule    2 (     3 atoms)
     4    0.000000    0.000000    0.000000
     5    0.000000    0.000000    0.000000
     6    0.000000    0.000000    0.000000
cartesian    1 (     2 atoms)
     7    0.000000    0.000000    0.000000
     8    0.000000    0.000000    0.000000


Variable forces (eV/Ang ; eV/deg )
 X          -0.58636788608194879     
 Y          -0.30927764700396915     
 Z           0.75284735708967909     
 THETA       -1.6788013728899338E-004
 PHI         -4.1291126556195228E-004
 TAU          4.8595666528456453E-004
 X2           3.7910141335014212E-002
 Y2          0.14547537496548194     
 Z2           4.7668684958880212E-003
 SiX          128.85097274555486     

siesta: Atomic forces (eV/Ang):
     1   -0.639658   -1.352273    0.801007
     2    0.916845    0.485135   -0.039922
     3   -0.863554    0.557861   -0.008237
     4   -0.029382   -0.859916   -0.014999
     5    0.952785    0.511132    0.029759
     6   -0.885493    0.494259   -0.009994
     7  134.118371  128.850973  144.769932
     8 -134.175009 -128.953540 -144.820534
----------------------------------------
   Tot   -0.605096   -0.266369    0.707012
----------------------------------------
   Max  144.820534
   Res   68.056818    sqrt( Sum f_i^2 / 3N )
----------------------------------------
   Max  144.820534    constrained

Stress-tensor-Voigt (kbar):     -218.25     -197.21     -244.26     -200.96     -217.12     -226.06
(Free)E + p*V (eV/cell)     -992.9407
Target enthalpy (eV/cell)    -1063.2353

siesta: Stress tensor (static) (eV/Ang**3):
        -0.136220   -0.125429   -0.141097
        -0.125429   -0.123088   -0.135517
        -0.141097   -0.135517   -0.152454

siesta: Pressure (static):        219.90730568  kBar

siesta: Stress tensor (total) (eV/Ang**3):
        -0.136220   -0.125429   -0.141097
        -0.125429   -0.123088   -0.135517
        -0.141097   -0.135517   -0.152454

siesta: Pressure (total):        219.90730568  kBar

                     ====================================
                        Begin CG opt. move =      3

zmatrix: Z-matrix coordinates: (Ang ; deg )
zmatrix: (Fractional coordinates have been converted to cartesian)
molecule    1 (     3 atoms)
      0.09702917      0.10970269      0.13424539
      0.95699700     90.48466145     36.54691889
      0.95699700    104.00000000     89.66364163
molecule    2 (     3 atoms)
      5.09393644      6.95002768      5.31073440
      0.95699700     90.48466145     36.54691889
      0.95699700    104.00000000     89.66364163
cartesian block    1 (     2 atoms)
      7.62500000      9.59961657      7.96500000
      7.12500000      9.37500000      7.42500000


Z-matrix Symbol Section -------
Variables
 X            9.7029169553528902E-002
 Y           0.10970269333930986     
 Z           0.13424539244027558     
 THETA        90.484661450142767     
 PHI          36.546918885410889     
 TAU          89.663641632994469     
 X2          0.49990014279068617     
 Y2          0.50061737981238463     
 Z2          0.49992759121597141     
 SiX         0.64803022237173602     
Constants
 HO1         0.95699699999999988     
 HO2         0.95699699999999988     
 HOH          104.00000000000014     
 SiZ         0.70460356493293119     
------------ End of Z-matrix Information

                     ====================================

outcell: Unit cell vectors (Ang):
        8.210715    2.397057    1.206791
        0.761414    8.547257    1.182099
        1.216619    2.946093    8.232552

outcell: Cell vector modules (Ang)   :    8.638175    8.662142    8.828054
outcell: Cell angles (23,13,12) (deg):     62.0521     69.2752     67.8871
outcell: Cell volume (Ang**3)        :    527.7382
Gamma-point calculation with multiply-connected orbital pairs
Folding of H and S implicitly performed
New_DM. Step:     4
Re-using DM from previous geometry...
Re-using DM without extrapolation (not allowed)
Density Matrix sparsity pattern changed.
Note: For starting DM, Qtot, Tr[D*S] =         24.00000000         24.11449169
New grid distribution:   1
           1       1:   20    1:    9    1:    5
           2       1:   20    1:    9    6:   10
           3       1:   20    1:    9   11:   14
           4       1:   20    1:    9   15:   18
           5       1:   20   10:   18    1:    5
           6       1:   20   10:   18    6:   10
           7       1:   20   10:   18   11:   14
           8       1:   20   10:   18   15:   18

InitMesh: MESH =    40 x    36 x    36 =       51840
InitMesh: (bp) =    20 x    18 x    18 =        6480
InitMesh: Mesh cutoff (required, used) =    60.000    61.802 Ry
ExtMesh (bp) on 0 =    60 x    45 x    41 =      110700
New grid distribution:   2
           1       1:   13    1:   12    1:   11
           2      14:   20    1:   11    1:   11
           3      14:   20   12:   18    1:   11
           4      14:   20   10:   18   12:   18
           5       1:   13   13:   18    1:   11
           6      14:   20    1:    9   12:   18
           7       1:   13   11:   18   12:   18
           8       1:   13    1:   10   12:   18
New grid distribution:   3
           1       1:   11    1:   12    1:   11
           2      12:   20    1:    9    1:    9
           3      12:   20    1:    9   10:   18
           4       1:   11    1:    9   12:   18
           5      12:   20   10:   18    1:    9
           6       1:   11   13:   18    1:   11
           7      12:   20   10:   18   10:   18
           8       1:   11   10:   18   12:   18
Setting up quadratic distribution...
ExtMesh (bp) on 0 =    53 x    48 x    47 =      119568
PhiOnMesh: Number of (b)points on node 0 =                 1716
PhiOnMesh: nlist on node 0 =                14524

   scf: iscf   Eharris(eV)      E_KS(eV)   FreeEng(eV)    dDmax  Ef(eV)
   scf:    1    -1032.9521    -1032.4208    -1032.4208  0.14111 -4.6975
   scf:    2    -1032.9457    -1032.7671    -1032.7671  0.05316 -3.9002
   scf:    3    -1032.8465    -1032.7724    -1032.7724  0.02125 -4.3065
   scf:    4    -1032.8450    -1032.8149    -1032.8149  0.00825 -4.3574
   scf:    5    -1032.8443    -1032.8377    -1032.8377  0.00068 -4.3565
   scf:    6    -1032.8443    -1032.8408    -1032.8408  0.00028 -4.3554
   scf:    7    -1032.8443    -1032.8438    -1032.8438  0.00005 -4.3556

SCF Convergence by dMax criterion
max |DM_out - DM_in|:     0.00005401
SCF cycle converged after    7 iterations

Using DM_out to compute the final energy and forces

siesta: E_KS(eV) =            -1032.8443

zmatrix: Atomic forces (eV/Ang ; eV/deg )
zmatrix: (No information if symbols are used)
molecule    1 (     3 atoms)
     1    0.000000    0.000000    0.000000
     2    0.000000    0.000000    0.000000
     3    0.000000    0.000000    0.000000
molecule    2 (     3 atoms)
     4    0.000000    0.000000    0.000000
     5    0.000000    0.000000    0.000000
     6    0.000000    0.000000    0.000000
cartesian    1 (     2 atoms)
     7    0.000000    0.000000    0.000000
     8    0.000000    0.000000    0.000000


Variable forces (eV/Ang ; eV/deg )
 X          -0.71794405887412660     
 Y          -0.14171540310116246     
 Z           0.83798982093942265     
 THETA       -1.0188733293767730E-003
 PHI         -5.6820653810446900E-004
 TAU          7.8657929536086752E-004
 X2           8.1138561675071705E-002
 Y2          0.11236547210428828     
 Z2           5.9703621890825093E-002
 SiX          95.266988164013270     

siesta: Atomic forces (eV/Ang):
     1   -0.751419   -1.173962    0.913633
     2    0.905093    0.467424   -0.057554
     3   -0.871618    0.564823   -0.018089
     4   -0.037217   -0.942321   -0.014632
     5    1.001177    0.546584    0.087072
     6   -0.882821    0.508102   -0.012736
     7  212.484236   95.266988  229.404631
     8 -212.625505  -95.468458 -229.558219
----------------------------------------
   Tot   -0.778074   -0.230820    0.744106
----------------------------------------
   Max  229.558219
   Res   94.401795    sqrt( Sum f_i^2 / 3N )
----------------------------------------
   Max  229.558219    constrained

Stress-tensor-Voigt (kbar):     -330.66      -67.87     -375.29     -143.91     -155.43     -347.46
(Free)E + p*V (eV/cell)     -947.8831
Target enthalpy (eV/cell)    -1032.8443

siesta: Stress tensor (static) (eV/Ang**3):
        -0.206378   -0.089824   -0.216867
        -0.089824   -0.042359   -0.097010
        -0.216867   -0.097010   -0.234236

siesta: Pressure (static):        257.93914720  kBar

siesta: Stress tensor (total) (eV/Ang**3):
        -0.206378   -0.089824   -0.216867
        -0.089824   -0.042359   -0.097010
        -0.216867   -0.097010   -0.234236

siesta: Pressure (total):        257.93914720  kBar

                     ====================================
                        Begin CG opt. move =      4

zmatrix: Z-matrix coordinates: (Ang ; deg )
zmatrix: (Fractional coordinates have been converted to cartesian)
molecule    1 (     3 atoms)
      0.09584516      0.10921779      0.13879532
      0.95699700     90.64621527     36.39589185
      0.95699700    104.00000000     89.55152218
molecule    2 (     3 atoms)
      5.20863733      7.18348843      5.43103994
      0.95699700     90.64621527     36.39589185
      0.95699700    104.00000000     89.55152218
cartesian block    1 (     2 atoms)
      7.62500000      9.35770042      7.96500000
      7.12500000      9.37500000      7.42500000


Z-matrix Symbol Section -------
Variables
 X            9.5845161445412635E-002
 Y           0.10921778562761048     
 Z           0.13879532143729018     
 THETA        90.646215266856984     
 PHI          36.395891847214500     
 TAU          89.551522177325907     
 X2          0.49986685705424827     
 Y2          0.50082317308317947     
 Z2          0.49990345495462851     
 SiX         0.58937379204434237     
Constants
 HO1         0.95699699999999988     
 HO2         0.95699699999999988     
 HOH          104.00000000000014     
 SiZ         0.69116265414421896     
------------ End of Z-matrix Information

                     ====================================

outcell: Unit cell vectors (Ang):
        8.280954    2.529410    1.275722
        0.848553    8.729676    1.276132
        1.288825    3.094790    8.310069

outcell: Cell vector modules (Ang)   :    8.752118    8.863171    8.960806
outcell: Cell angles (23,13,12) (deg):     60.8260     68.2180     66.6576
outcell: Cell volume (Ang**3)        :    543.3517
Gamma-point calculation with multiply-connected orbital pairs
Folding of H and S implicitly performed
New_DM. Step:     5
Re-using DM from previous geometry...
Re-using DM without extrapolation (not allowed)
Density Matrix sparsity pattern changed.
Note: For starting DM, Qtot, Tr[D*S] =         24.00000000         24.03029285
New grid distribution:   1
           1       1:   20    1:    9    1:    5
           2       1:   20    1:    9    6:   10
           3       1:   20    1:    9   11:   14
           4       1:   20    1:    9   15:   18
           5       1:   20   10:   18    1:    5
           6       1:   20   10:   18    6:   10
           7       1:   20   10:   18   11:   14
           8       1:   20   10:   18   15:   18

InitMesh: MESH =    40 x    36 x    36 =       51840
InitMesh: (bp) =    20 x    18 x    18 =        6480
InitMesh: Mesh cutoff (required, used) =    60.000    61.543 Ry
ExtMesh (bp) on 0 =    60 x    45 x    41 =      110700
New grid distribution:   2
           1       1:   13    1:   11    1:   11
           2      14:   20   11:   18    1:   11
           3      14:   20    1:    8   12:   18
           4       1:   13    1:   10   12:   18
           5       1:   13   12:   18    1:   11
           6      14:   20    1:   10    1:   11
           7      14:   20    9:   18   12:   18
           8       1:   13   11:   18   12:   18
New grid distribution:   3
           1       1:   11    1:   12    1:   10
           2      12:   20    1:    9    1:    9
           3       1:   11    1:    9   11:   18
           4      12:   20   11:   18   10:   18
           5      12:   20   10:   18    1:    9
           6       1:   11   13:   18    1:   10
           7      12:   20    1:   10   10:   18
           8       1:   11   10:   18   11:   18
Setting up quadratic distribution...
ExtMesh (bp) on 0 =    53 x    47 x    47 =      117077
PhiOnMesh: Number of (b)points on node 0 =                 1573
PhiOnMesh: nlist on node 0 =                12425

   scf: iscf   Eharris(eV)      E_KS(eV)   FreeEng(eV)    dDmax  Ef(eV)
   scf:    1    -1021.5525    -1021.1558    -1021.1558  0.10282 -4.2740
   scf:    2    -1021.4886    -1021.4328    -1021.4328  0.02547 -4.3073
   scf:    3    -1021.4689    -1021.4306    -1021.4306  0.02063 -4.2992
   scf:    4    -1021.4676    -1021.4565    -1021.4565  0.00563 -4.2958
   scf:    5    -1021.4674    -1021.4655    -1021.4655  0.00078 -4.2983
   scf:    6    -1021.4674    -1021.4664    -1021.4664  0.00027 -4.2996
   scf:    7    -1021.4674    -1021.4669    -1021.4669  0.00007 -4.2992

SCF Convergence by dMax criterion
max |DM_out - DM_in|:     0.00007048
SCF cycle converged after    7 iterations

Using DM_out to compute the final energy and forces

siesta: E_KS(eV) =            -1021.4674

zmatrix: Atomic forces (eV/Ang ; eV/deg )
zmatrix: (No information if symbols are used)
molecule    1 (     3 atoms)
     1    0.000000    0.000000    0.000000
     2    0.000000    0.000000    0.000000
     3    0.000000    0.000000    0.000000
molecule    2 (     3 atoms)
     4    0.000000    0.000000    0.000000
     5    0.000000    0.000000    0.000000
     6    0.000000    0.000000    0.000000
cartesian    1 (     2 atoms)
     7    0.000000    0.000000    0.000000
     8    0.000000    0.000000    0.000000


Variable forces (eV/Ang ; eV/deg )
 X          -0.86447306718549566     
 Y            6.0971516212661142E-002
 Z           0.90498588523810963     
 THETA        3.4711470302243403E-004
 PHI         -4.9376593815535609E-004
 TAU          9.8901441899781504E-004
 X2           6.0624785128541910E-003
 Y2           7.3919549832335415E-004
 Z2          -5.2099036174304447E-002
 SiX         -8.5105578908944306     

siesta: Atomic forces (eV/Ang):
     1   -0.876625   -0.987692    1.001700
     2    0.898297    0.457114   -0.064132
     3   -0.886145    0.591549   -0.032581
     4   -0.077925   -1.079486   -0.050318
     5    0.962224    0.551953    0.002893
     6   -0.878237    0.528272   -0.004674
     7  246.657010   -8.510558  266.417762
     8 -246.709684    8.290518 -266.491381
----------------------------------------
   Tot   -0.911084   -0.158329    0.779268
----------------------------------------
   Max  266.491381
   Res  104.851274    sqrt( Sum f_i^2 / 3N )
----------------------------------------
   Max  266.491381    constrained

Stress-tensor-Voigt (kbar):     -372.21       -3.43     -423.98       12.69       13.80     -392.43
(Free)E + p*V (eV/cell)     -931.0755
Target enthalpy (eV/cell)    -1021.4674

siesta: Stress tensor (static) (eV/Ang**3):
        -0.232314    0.007919   -0.244931
         0.007919   -0.002143    0.008612
        -0.244931    0.008611   -0.264623

siesta: Pressure (static):        266.54070654  kBar

siesta: Stress tensor (total) (eV/Ang**3):
        -0.232314    0.007919   -0.244931
         0.007919   -0.002143    0.008612
        -0.244931    0.008611   -0.264623

siesta: Pressure (total):        266.54070654  kBar

outcoor: Final (unrelaxed) atomic coordinates (Bohr):       
    0.18112118    0.20639179    0.26228525   1       1  O
    1.63672615    1.27939523    0.24188878   2       2  H
   -1.21206183    1.35931452    0.28095370   2       3  H
    9.84290195   13.57483116   10.26318215   1       4  O
   11.29850692   14.64783461   10.24278569   2       5  H
    8.44971894   14.72775389   10.28185060   2       6  H
   14.40916744   17.68349799   15.05167458   3       7  Si
   13.46430400   17.71618948   14.03122207   3       8  Si

zmatrix: Z-matrix coordinates: (Ang ; deg )
zmatrix: (Fractional coordinates have been converted to cartesian)
molecule    1 (     3 atoms)
      0.09589863      0.10924287      0.13859963
      0.95699700     90.63919378     36.40245581
      0.95699700    104.00000000     89.55639513
molecule    2 (     3 atoms)
      5.20365160      7.17334048      5.42581057
      0.95699700     90.63919378     36.40245581
      0.95699700    104.00000000     89.55639513
cartesian block    1 (     2 atoms)
      7.62500000      8.26905397      7.96500000
      7.12500000      9.37500000      7.42500000


Z-matrix Symbol Section -------
Variables
 X            9.5898634540040745E-002
 Y           0.10924287057384703     
 Z           0.13859963499377578     
 THETA        90.639193784117936     
 PHI          36.402455813101511     
 TAU          89.556395134453766     
 X2          0.49942142891832986     
 Y2          0.49994056770974599     
 Z2          0.49947809022998024     
 SiX         0.45479135173062740     
Constants
 HO1         0.95699699999999988     
 HO2         0.95699699999999988     
 HOH          104.00000000000014     
 SiZ         0.69116265414421896     
------------ End of Z-matrix Information


outcell: Unit cell vectors (Ang):
        8.280954    2.529410    1.275722
        0.848553    8.729676    1.276132
        1.288825    3.094790    8.310069

outcell: Cell vector modules (Ang)   :    8.752118    8.863171    8.960806
outcell: Cell angles (23,13,12) (deg):     60.8260     68.2180     66.6576
outcell: Cell volume (Ang**3)        :    543.3517

siesta: Program's energy decomposition (eV):
siesta: Ebs     =      -304.463258
siesta: Eions   =      2012.511081
siesta: Ena     =       570.406252
siesta: Ekin    =       801.428651
siesta: Enl     =       -71.841209
siesta: DEna    =       -17.077466
siesta: DUscf   =         3.022652
siesta: DUext   =         0.000000
siesta: Exc     =      -294.895174
siesta: eta*DQ  =         0.000000
siesta: Emadel  =         0.000000
siesta: Emeta   =         0.000000
siesta: Emolmec =         0.000000
siesta: Ekinion =         0.000000
siesta: Eharris =     -1021.467374
siesta: Etot    =     -1021.467374
siesta: FreeEng =     -1021.467374

siesta: Final energy (eV):
siesta:  Band Struct. =    -304.463258
siesta:       Kinetic =     801.428651
siesta:       Hartree =     891.290966
siesta:    Ext. field =       0.000000
siesta:   Exch.-corr. =    -294.895174
siesta:  Ion-electron =   -2502.467539
siesta:       Ion-ion =      83.175721
siesta:       Ekinion =       0.000000
siesta:         Total =   -1021.467374

siesta: Atomic forces (eV/Ang):
siesta:      1   -0.876625   -0.987692    1.001700
siesta:      2    0.898297    0.457114   -0.064132
siesta:      3   -0.886145    0.591549   -0.032581
siesta:      4   -0.077925   -1.079486   -0.050318
siesta:      5    0.962224    0.551953    0.002893
siesta:      6   -0.878237    0.528272   -0.004674
siesta:      7  246.657010   -8.510558  266.417762
siesta:      8 -246.709684    8.290518 -266.491381
siesta: ----------------------------------------
siesta:    Tot   -0.911084   -0.158329    0.779268

siesta: Stress tensor (static) (eV/Ang**3):
siesta:    -0.232314    0.007919   -0.244931
siesta:     0.007919   -0.002143    0.008612
siesta:    -0.244931    0.008611   -0.264623

siesta: Constrained stress tensor (static) (eV/Ang**3):
siesta:    -0.232314    0.007919   -0.244931
siesta:     0.007919   -0.002143    0.008611
siesta:    -0.244931    0.008611   -0.264623

siesta: Cell volume =        543.351688 Ang**3

siesta: Pressure (static):
siesta:                Solid            Molecule  Units
siesta:           0.00181187          0.00178531  Ry/Bohr**3
siesta:           0.16635983          0.16392076  eV/Ang**3
siesta:         266.54070654        262.63284508  kBar
(Free)E+ p_basis*V_orbitals  =       -1018.316536
(Free)Eharris+ p_basis*V_orbitals  =       -1018.316536
>> End of run:  10-JUN-2018  22:09:16
Job completed
