Siesta Version: siesta-2.0.1
Architecture  : powerpc-apple-darwin8.8.0--unknown
Compiler flags: g95 -g -O2
SERIAL version
NetCDF-capable

* Running in serial mode
>> Start of run:   5-DEC-2006  13:26:10

                           ***********************       
                           *  WELCOME TO SIESTA  *       
                           ***********************       

reinit: Reading from standard input
************************** Dump of input data file ****************************
# A convoluted example of zmatrix input, for testing
SystemName zmatrix
SystemLabel zmatrix
NumberOfSpecies 3
NumberOfAtoms   8
%block ChemicalSpeciesLabel
1    8 O
2    1 H
3   14 Si
%endblock ChemicalSpeciesLabel
WriteCoor T
WriteForces T
LatticeConstant 1.0 Ang
%block LatticeVectors
8.0 2.0 1.0
0.5 8 0.9
1 2.5 8
%endblock LatticeVectors
ZM.ForceTolLen 0.04 eV/Ang
ZM.ForceTolAng 0.0001 eV/deg
ZM.MaxDisplLen 0.5 Ang
ZM.MaxDisplAng 20.0 deg
ZM.UnitsLength Ang
ZM.UnitsAngle deg
%block Zmatrix < Zmatrix.data
xc.functional LDA
xc.authors PZ
HarrisFunctional T
MD.TypeOfRun CG
MD.NumCGsteps 4
MeshCutoff 60 Ry
PAO.EnergyShift 0.01 Ry
DM.NumberPulay 5
DM.MixingWeight 0.3
************************** End of input data file *****************************

reinit: -----------------------------------------------------------------------
reinit: System Name: zmatrix                                                    
reinit: -----------------------------------------------------------------------
reinit: System Label: zmatrix                                                     
reinit: -----------------------------------------------------------------------

initatom: Reading input for the pseudopotentials and atomic orbitals ----------
 Species number:  1  Label: O Atomic number: 8
 Species number:  2  Label: H Atomic number: 1
 Species number:  3  Label: Si Atomic number: 14
Ground state valence configuration:   2s02  2p04
Reading pseudopotential information in formatted form from O.psf
Ground state valence configuration:   1s01
Reading pseudopotential information in formatted form from H.psf
Ground state valence configuration:   3s02  3p02
Reading pseudopotential information in formatted form from Si.psf
For O, standard SIESTA heuristics set lmxkb to 3
 (one more than the basis l, including polarization orbitals).
Use PS.lmax or PS.KBprojectors blocks to override.
For H, standard SIESTA heuristics set lmxkb to 2
 (one more than the basis l, including polarization orbitals).
Use PS.lmax or PS.KBprojectors blocks to override.
For Si, standard SIESTA heuristics set lmxkb to 3
 (one more than the basis l, including polarization orbitals).
Use PS.lmax or PS.KBprojectors blocks to override.

<basis_specs>
===============================================================================
O                    Z=   8    Mass=  16.000        Charge=  .00000    
Lmxo=1 Lmxkb=3     BasisType=split      Semic=F
L=0  Nsemic=0  Cnfigmx=2
          n=1  nzeta=2  polorb=0
               vcte:    .00000    
               rinn:    .00000    
                rcs:    .00000      .00000    
            lambdas:    1.0000      1.0000    
L=1  Nsemic=0  Cnfigmx=2
          n=1  nzeta=2  polorb=1
               vcte:    .00000    
               rinn:    .00000    
                rcs:    .00000      .00000    
            lambdas:    1.0000      1.0000    
-------------------------------------------------------------------------------
L=0  Nkbl=1  erefs: 0.17977+309
L=1  Nkbl=1  erefs: 0.17977+309
L=2  Nkbl=1  erefs: 0.17977+309
L=3  Nkbl=1  erefs: 0.17977+309
===============================================================================
</basis_specs>

atom: Called for O   (Z =   8)

read_vps: Pseudopotential generation method:
read_vps: ATM3      Troullier-Martins                       

read_vps: Valence configuration (pseudopotential and basis set generation):
2s( 2.00) rc: 1.14
2p( 4.00) rc: 1.14
3d( 0.00) rc: 1.14
4f( 0.00) rc: 1.14
Total valence charge:    6.00000

xc_check: Exchange-correlation functional:
xc_check: Ceperley-Alder
V l=0 = -2*Zval/r beyond r=  1.1278
V l=1 = -2*Zval/r beyond r=  1.1278
V l=2 = -2*Zval/r beyond r=  1.1278
V l=3 = -2*Zval/r beyond r=  1.1138
All V_l potentials equal beyond r=  1.1278
This should be close to max(r_c) in ps generation
All pots = -2*Zval/r beyond r=  1.1278

VLOCAL1: 99.0% of the norm of Vloc inside     34.126 Ry
VLOCAL1: 99.9% of the norm of Vloc inside     77.774 Ry
atom: Maximum radius for 4*pi*r*r*local-pseudopot. charge    1.37759
atom: Maximum radius for r*vlocal+2*Zval:    1.18566
GHOST: No ghost state for L =  0
GHOST: No ghost state for L =  1
GHOST: No ghost state for L =  2
GHOST: No ghost state for L =  3

KBgen: Kleinman-Bylander projectors: 
   l= 0   rc=  1.294105   el= -1.742414   Ekb=  9.135903   kbcos=  0.326910
   l= 1   rc=  1.294105   el= -0.676589   Ekb= -8.124878   kbcos= -0.395047
   l= 2   rc=  1.448233   el=  0.002386   Ekb= -2.039267   kbcos= -0.003484
   l= 3   rc=  1.561052   el=  0.003508   Ekb= -0.799141   kbcos= -0.000344

KBgen: Total number of  Kleinman-Bylander projectors:   16
atom: -------------------------------------------------------------------------

atom: SANKEY-TYPE ORBITALS:
atom: Selected multiple-zeta basis: split     

SPLIT: Orbitals with angular momentum L= 0

SPLIT: Basis orbitals for state 2s

SPLIT: PAO cut-off radius determined from an
SPLIT: energy shift=  0.010000 Ry

   izeta = 1
                 lambda =    1.000000
                     rc =    3.562532
                 energy =   -1.732600
                kinetic =    1.577294
    potential(screened) =   -3.309894
       potential(ionic) =  -11.240760

   izeta = 2
                 rmatch =    2.541963
              splitnorm =    0.150000
                 energy =   -1.504531
                kinetic =    2.375196
    potential(screened) =   -3.879728
       potential(ionic) =  -12.401184

SPLIT: Orbitals with angular momentum L= 1

SPLIT: Basis orbitals for state 2p

SPLIT: PAO cut-off radius determined from an
SPLIT: energy shift=  0.010000 Ry

   izeta = 1
                 lambda =    1.000000
                     rc =    4.351355
                 energy =   -0.667669
                kinetic =    4.894715
    potential(screened) =   -5.562384
       potential(ionic) =  -13.283144

   izeta = 2
                 rmatch =    2.606321
              splitnorm =    0.150000
                 energy =   -0.413408
                kinetic =    7.270904
    potential(screened) =   -7.684312
       potential(ionic) =  -16.330518

POLgen: Perturbative polarization orbital with L=  2

POLgen: Polarization orbital for state 2p

   izeta = 1
                     rc =    4.351355
                 energy =    2.201853
                kinetic =    4.360449
    potential(screened) =   -2.158596
       potential(ionic) =   -8.257377
atom: Total number of Sankey-type orbitals: 13

atm_pop: Valence configuration(local Pseudopot. screening):
 2s( 2.00)                                                            
 2p( 4.00)                                                            
Vna: chval, zval:    6.00000   6.00000

Vna:  Cut-off radius for the neutral-atom potential:   4.351355

atom: _________________________________________________________________________

<basis_specs>
===============================================================================
H                    Z=   1    Mass=  1.0100        Charge=  .00000    
Lmxo=0 Lmxkb=2     BasisType=split      Semic=F
L=0  Nsemic=0  Cnfigmx=1
          n=1  nzeta=2  polorb=1
               vcte:    .00000    
               rinn:    .00000    
                rcs:    .00000      .00000    
            lambdas:    1.0000      1.0000    
-------------------------------------------------------------------------------
L=0  Nkbl=1  erefs: 0.17977+309
L=1  Nkbl=1  erefs: 0.17977+309
L=2  Nkbl=1  erefs: 0.17977+309
===============================================================================
</basis_specs>

atom: Called for H   (Z =   1)

read_vps: Pseudopotential generation method:
read_vps: ATM3      Troullier-Martins                       

read_vps: Valence configuration (pseudopotential and basis set generation):
1s( 1.00) rc: 1.25
2p( 0.00) rc: 1.25
3d( 0.00) rc: 1.25
Total valence charge:    1.00000

xc_check: Exchange-correlation functional:
xc_check: Ceperley-Alder
V l=0 = -2*Zval/r beyond r=  1.2343
V l=1 = -2*Zval/r beyond r=  1.2189
V l=2 = -2*Zval/r beyond r=  1.2189
All V_l potentials equal beyond r=  1.2343
This should be close to max(r_c) in ps generation
All pots = -2*Zval/r beyond r=  1.2343

VLOCAL1: 99.0% of the norm of Vloc inside     28.493 Ry
VLOCAL1: 99.9% of the norm of Vloc inside     64.935 Ry
atom: Maximum radius for 4*pi*r*r*local-pseudopot. charge    1.45251
atom: Maximum radius for r*vlocal+2*Zval:    1.21892
GHOST: No ghost state for L =  0
GHOST: No ghost state for L =  1
GHOST: No ghost state for L =  2

KBgen: Kleinman-Bylander projectors: 
   l= 0   rc=  1.364359   el= -0.467325   Ekb= -2.005361   kbcos= -0.336422
   l= 1   rc=  1.434438   el=  0.001430   Ekb= -0.501708   kbcos= -0.021697
   l= 2   rc=  1.470814   el=  0.002365   Ekb= -0.190555   kbcos= -0.002281

KBgen: Total number of  Kleinman-Bylander projectors:    9
atom: -------------------------------------------------------------------------

atom: SANKEY-TYPE ORBITALS:
atom: Selected multiple-zeta basis: split     

SPLIT: Orbitals with angular momentum L= 0

SPLIT: Basis orbitals for state 1s

SPLIT: PAO cut-off radius determined from an
SPLIT: energy shift=  0.010000 Ry

   izeta = 1
                 lambda =    1.000000
                     rc =    5.336316
                 energy =   -0.457946
                kinetic =    0.886710
    potential(screened) =   -1.344656
       potential(ionic) =   -1.876618

   izeta = 2
                 rmatch =    4.002347
              splitnorm =    0.150000
                 energy =   -0.355550
                kinetic =    1.439934
    potential(screened) =   -1.795484
       potential(ionic) =   -2.364796

POLgen: Perturbative polarization orbital with L=  1

POLgen: Polarization orbital for state 1s

   izeta = 1
                     rc =    5.336316
                 energy =    0.616245
                kinetic =    1.262150
    potential(screened) =   -0.645906
       potential(ionic) =   -1.116519
atom: Total number of Sankey-type orbitals:  5

atm_pop: Valence configuration(local Pseudopot. screening):
 1s( 1.00)                                                            
Vna: chval, zval:    1.00000   1.00000

Vna:  Cut-off radius for the neutral-atom potential:   5.336316

atom: _________________________________________________________________________

<basis_specs>
===============================================================================
Si                   Z=  14    Mass=  28.090        Charge=  .00000    
Lmxo=1 Lmxkb=3     BasisType=split      Semic=F
L=0  Nsemic=0  Cnfigmx=3
          n=1  nzeta=2  polorb=0
               vcte:    .00000    
               rinn:    .00000    
                rcs:    .00000      .00000    
            lambdas:    1.0000      1.0000    
L=1  Nsemic=0  Cnfigmx=3
          n=1  nzeta=2  polorb=1
               vcte:    .00000    
               rinn:    .00000    
                rcs:    .00000      .00000    
            lambdas:    1.0000      1.0000    
-------------------------------------------------------------------------------
L=0  Nkbl=1  erefs: 0.17977+309
L=1  Nkbl=1  erefs: 0.17977+309
L=2  Nkbl=1  erefs: 0.17977+309
L=3  Nkbl=1  erefs: 0.17977+309
===============================================================================
</basis_specs>

atom: Called for Si  (Z =  14)

read_vps: Pseudopotential generation method:
read_vps: ATM3      Troullier-Martins                       

read_vps: Valence configuration (pseudopotential and basis set generation):
3s( 2.00) rc: 1.89
3p( 2.00) rc: 1.89
3d( 0.00) rc: 1.89
4f( 0.00) rc: 1.89
Total valence charge:    4.00000

xc_check: Exchange-correlation functional:
xc_check: Ceperley-Alder
V l=0 = -2*Zval/r beyond r=  2.5494
V l=1 = -2*Zval/r beyond r=  2.5494
V l=2 = -2*Zval/r beyond r=  2.5494
V l=3 = -2*Zval/r beyond r=  2.5494
All V_l potentials equal beyond r=  1.8652
This should be close to max(r_c) in ps generation
All pots = -2*Zval/r beyond r=  2.5494
Using large-core scheme for Vlocal

atom: Estimated core radius    2.54944

atom: Including non-local core corrections could be a good idea
atom: Maximum radius for 4*pi*r*r*local-pseudopot. charge    2.85303
atom: Maximum radius for r*vlocal+2*Zval:    2.58151
GHOST: No ghost state for L =  0
GHOST: No ghost state for L =  1
GHOST: No ghost state for L =  2
GHOST: No ghost state for L =  3

KBgen: Kleinman-Bylander projectors: 
   l= 0   rc=  1.936440   el= -0.796617   Ekb=  4.661340   kbcos=  0.299756
   l= 1   rc=  1.936440   el= -0.307040   Ekb=  1.494238   kbcos=  0.301471
   l= 2   rc=  1.936440   el=  0.002313   Ekb= -2.808672   kbcos= -0.054903
   l= 3   rc=  1.936440   el=  0.003402   Ekb= -0.959059   kbcos= -0.005513

KBgen: Total number of  Kleinman-Bylander projectors:   16
atom: -------------------------------------------------------------------------

atom: SANKEY-TYPE ORBITALS:
atom: Selected multiple-zeta basis: split     

SPLIT: Orbitals with angular momentum L= 0

SPLIT: Basis orbitals for state 3s

SPLIT: PAO cut-off radius determined from an
SPLIT: energy shift=  0.010000 Ry

   izeta = 1
                 lambda =    1.000000
                     rc =    5.397360
                 energy =   -0.786473
                kinetic =    0.546491
    potential(screened) =   -1.332964
       potential(ionic) =   -3.793893

   izeta = 2
                 rmatch =    4.474538
              splitnorm =    0.150000
                 energy =   -0.690001
                kinetic =    0.854393
    potential(screened) =   -1.544395
       potential(ionic) =   -4.120499

SPLIT: Orbitals with angular momentum L= 1

SPLIT: Basis orbitals for state 3p

SPLIT: PAO cut-off radius determined from an
SPLIT: energy shift=  0.010000 Ry

   izeta = 1
                 lambda =    1.000000
                     rc =    6.930397
                 energy =   -0.298036
                kinetic =    0.832892
    potential(screened) =   -1.130928
       potential(ionic) =   -3.361641

   izeta = 2
                 rmatch =    5.198700
              splitnorm =    0.150000
                 energy =   -0.218740
                kinetic =    1.203231
    potential(screened) =   -1.421971
       potential(ionic) =   -3.849742

POLgen: Perturbative polarization orbital with L=  2

POLgen: Polarization orbital for state 3p

   izeta = 1
                     rc =    6.930397
                 energy =    0.377307
                kinetic =    1.185358
    potential(screened) =   -0.808051
       potential(ionic) =   -2.819307
atom: Total number of Sankey-type orbitals: 13

atm_pop: Valence configuration(local Pseudopot. screening):
 3s( 2.00)                                                            
 3p( 2.00)                                                            
Vna: chval, zval:    4.00000   4.00000

Vna:  Cut-off radius for the neutral-atom potential:   6.930397

atom: _________________________________________________________________________

prinput: Basis input ----------------------------------------------------------

PAO.BasisType split     

%block ChemicalSpeciesLabel
    1    8 O                       # Species index, atomic number, species label
    2    1 H                       # Species index, atomic number, species label
    3   14 Si                      # Species index, atomic number, species label
%endblock ChemicalSpeciesLabel

%block PAO.Basis                 # Define Basis set
O           2                    # Species label, number of l-shells
 n=2   0   2                         # n, l, Nzeta 
   3.563      2.542   
   1.000      1.000   
 n=2   1   2 P   1                   # n, l, Nzeta, Polarization, NzetaPol
   4.351      2.606   
   1.000      1.000   
H           1                    # Species label, number of l-shells
 n=1   0   2 P   1                   # n, l, Nzeta, Polarization, NzetaPol
   5.336      4.002   
   1.000      1.000   
Si          2                    # Species label, number of l-shells
 n=3   0   2                         # n, l, Nzeta 
   5.397      4.475   
   1.000      1.000   
 n=3   1   2 P   1                   # n, l, Nzeta, Polarization, NzetaPol
   6.930      5.199   
   1.000      1.000   
%endblock PAO.Basis

prinput: ----------------------------------------------------------------------

Dumping basis to NetCDF file O.ion.nc
Dumping basis to NetCDF file H.ion.nc
Dumping basis to NetCDF file Si.ion.nc

siesta: ******************** Simulation parameters ****************************
siesta:
siesta: The following are some of the parameters of the simulation.
siesta: A complete list of the parameters used, including default values,
siesta: can be found in file out.fdf
siesta:
coor:   Atomic-coordinates input format  =     Cartesian coordinates
coor:                                            (in Bohr units)
read_Zmatrix: Length units: Ang       
read_Zmatrix: Angle  units: deg       
read_Zmatrix: Force tolerances:
read_Zmatrix:    for lengths =     0.001556 Ry/Bohr
read_Zmatrix:    for angles  =     0.003565 Ry/rad

read_Zmatrix: Maximum displacements:
read_Zmatrix:    for lengths =     0.200000 Bohr
read_Zmatrix:    for angles  =     0.003000 rad
%block Zmatrix
molecule_cartesian
  1 0 0 0   X Y Z 0 0 0
  2 1 0 0   HO1 THETA PHI 0 0 0
  2 1 2 0   HO2 HOH TAU 0 0 0
molecule_fractional
  1 0 0 0   X2 Y2 Z2 0 0 0
  2 1 0 0   HO1 THETA PHI 0 0 0
  2 1 2 0   HO2 HOH TAU 0 0 0
fractional
 3  0.8 SiX 0.8   0 0 0
 3  0.75  0.75 SiZ  0 0 0
variables
    X   0.1
    Y   0.11
    Z   0.12
    X2   0.5
    Y2   0.5
    Z2   0.5
    THETA  90.0
    PHI    37.0
    TAU    90.0
    SiX    0.85
constants
    HO1 0.956997
    HO2 0.956997
    HOH 104.0
    SiZ 0.75
%endblock Zmatrix

zmatrix: Z-matrix coordinates: (Ang ; deg )
zmatrix: (Fractional coordinates have been converted to cartesian)
molecule    1 (     3 atoms)
      0.10000000      0.11000000      0.12000000
      0.95699700     90.00000000     37.00000000
      0.95699700    104.00000000     90.00000000
molecule    2 (     3 atoms)
      4.75000000      6.25000000      4.95000000
      0.95699700     90.00000000     37.00000000
      0.95699700    104.00000000     90.00000000
cartesian block    1 (     2 atoms)
      7.62500000     10.40000000      7.96500000
      7.12500000      9.37500000      7.42500000


Z-matrix Symbol Section -------
Variables
 x          0.1
 y          0.11
 z          0.12
 theta      90.00000000000013
 phi        37.00000000000005
 tau        90.00000000000013
 x2         0.5
 y2         0.5000000000000002
 z2         0.5000000000000001
 six        0.8500000000000001
Constants
 ho1        0.9569969999999999
 ho2        0.9569969999999999
 hoh        104.00000000000014
 siz        0.7500000000000001
------------ End of Z-matrix Information

redata: Number of spin components        =     1
redata: Long output                      =     F
redata: Number of Atomic Species         =     3
redata: Charge density info will appear in .RHO file
redata: Write Mulliken Pop.              =     NO
redata: Mesh Cutoff                      =    60.0000  Ry
redata: Net charge of the system         =     0.0000 |e|
redata: Max. number of SCF Iter          =    50
redata: Performing Pulay mixing using    =     5 iterations
redata: Mix DM in first SCF step ?       =     F
redata: Write Pulay info on disk?        =     F
redata: New DM Mixing Weight             =     0.3000
redata: New DM Occupancy tolerance       = 0.000000000001
redata: No kicks to SCF
redata: DM Mixing Weight for Kicks       =     0.5000
redata: DM Tolerance for SCF             =     0.000100
redata: Require Energy convergence for SCF =     F
redata: DM Energy tolerance for SCF      =     0.000100 eV
redata: Using Saved Data (generic)   =     F
redata: Use continuation files for DM    =     F
redata: Neglect nonoverlap interactions  =     F
redata: Method of Calculation            =     Diagonalization
redata: Divide and Conquer               =     T
redata: Electronic Temperature           =     0.0019  Ry
redata: Fix the spin of the system       =     F
redata: Dynamics option                  =     CG coord. optimization
redata: Variable cell                    =     F
redata: Use continuation files for CG    =     F
redata: Max atomic displ per move        =     0.2000  Bohr
redata: Maximum number of CG moves       =     4
redata: Force tolerance                  =     0.0016  Ry/Bohr
redata: ***********************************************************************

siesta: Atomic coordinates (Bohr) and species
siesta:      0.18897   0.20787   0.22677  1        1
siesta:      1.63328   1.29623   0.22677  2        2
siesta:     -1.21647   1.34597   0.22677  2        3
siesta:      8.97620  11.81079   9.35415  1        4
siesta:     10.42051  12.89915   9.35415  2        5
siesta:      7.57076  12.94890   9.35415  2        6
siesta:     14.40917  19.65316  15.05167  3        7
siesta:     13.46430  17.71619  14.03122  3        8

initatomlists: Number of atoms, orbitals, and projectors:      8    72   100

siesta: System type = bulk      

siesta: k-grid: Number of k-points =     1
siesta: k-grid: Cutoff (effective) =     4.033 Ang
siesta: k-grid: Supercell and displacements
siesta: k-grid:    0   1   0      0.000
siesta: k-grid:    1   0   0      0.000
siesta: k-grid:    0   0   1      0.000

* Maximum dynamic memory allocated =     1 MB

siesta:                 ==============================
                            Begin CG move =      0
                        ==============================

zmatrix: Z-matrix coordinates: (Ang ; deg )
zmatrix: (Fractional coordinates have been converted to cartesian)
molecule    1 (     3 atoms)
      0.10000000      0.11000000      0.12000000
      0.95699700     90.00000000     37.00000000
      0.95699700    104.00000000     90.00000000
molecule    2 (     3 atoms)
      4.75000000      6.25000000      4.95000000
      0.95699700     90.00000000     37.00000000
      0.95699700    104.00000000     90.00000000
cartesian block    1 (     2 atoms)
      7.62500000     10.40000000      7.96500000
      7.12500000      9.37500000      7.42500000


Z-matrix Symbol Section -------
Variables
 x          0.1
 y          0.11
 z          0.12
 theta      90.00000000000013
 phi        37.00000000000005
 tau        90.00000000000013
 x2         0.5
 y2         0.5000000000000002
 z2         0.5000000000000001
 six        0.8500000000000001
Constants
 ho1        0.9569969999999999
 ho2        0.9569969999999999
 hoh        104.00000000000014
 siz        0.7500000000000001
------------ End of Z-matrix Information


outcell: Unit cell vectors (Ang):
        8.000000    2.000000    1.000000
        0.500000    8.000000    0.900000
        1.000000    2.500000    8.000000

outcell: Cell vector modules (Ang)   :    8.306624    8.065978    8.440972
outcell: Cell angles (23,13,12) (deg):     65.9931     72.5722     71.8241
outcell: Cell volume (Ang**3)        :    481.0500

InitMesh: MESH =    40 x    36 x    36 =       51840
InitMesh: Mesh cutoff (required, used) =    60.000    62.724 Ry

* Maximum dynamic memory allocated =    10 MB

stepf: Fermi-Dirac step function

siesta: Program's energy decomposition (eV):
siesta: Eions   =      2012.511081
siesta: Ena     =       487.794817
siesta: Ekin    =       741.932135
siesta: Enl     =       -51.165545
siesta: DEna    =         0.000004
siesta: DUscf   =         0.000000
siesta: DUext   =         0.000000
siesta: Exc     =      -278.752525
siesta: eta*DQ  =         0.000000
siesta: Emadel  =         0.000000
siesta: Ekinion =         0.000000
siesta: Eharris =     -1122.276732
siesta: Etot    =     -1112.702194
siesta: FreeEng =     -1112.702194

siesta: Eharris(eV) =   -1122.276732


siesta: Eharris(eV) =   -1122.276732

timer: Routine,Calls,Time,% = IterSCF        1      25.369  70.67
elaps: Routine,Calls,Wall,% = IterSCF        1      30.153  70.26

siesta: E_KS - E_eggbox =     -1115.2920

zmatrix: Atomic forces (eV/Ang ; eV/deg )
zmatrix: (No information if symbols are used)
molecule    1 (     3 atoms)
     1    0.000000    0.000000    0.000000
     2    0.000000    0.000000    0.000000
     3    0.000000    0.000000    0.000000
molecule    2 (     3 atoms)
     4    0.000000    0.000000    0.000000
     5    0.000000    0.000000    0.000000
     6    0.000000    0.000000    0.000000
cartesian    1 (     2 atoms)
     7    0.000000    0.000000    0.000000
     8    0.000000    0.000000    0.000000


Variable forces (eV/Ang ; eV/deg )
 x          -0.4454292635143306
 y          -0.3451326082177578
 z          0.7253166300004528
 theta      -0.0002249993069948378
 phi        -0.00023385809584077147
 tau        -0.0003669477706770698
 x2         -0.04637904639863451
 y2         0.2193181085202965
 z2         -0.04175215823260057
 six        66.80551328701137

siesta: Atomic forces (eV/Ang):
     1   -0.437116    0.582982    0.700246
     2   -0.059611   -0.502413   -0.000359
     3    0.051298   -0.425702    0.025429
     4   -0.019145    1.194674   -0.058272
     5   -0.065042   -0.457249    0.019307
     6    0.037808   -0.518107   -0.002787
     7   32.602285   66.805513   35.168800
     8  -32.537886  -66.770716  -35.130511
----------------------------------------
   Tot   -0.427410   -0.091018    0.721853
----------------------------------------
   Max   66.805513
   Res   23.732276    sqrt( Sum f_i^2 / 3N )
----------------------------------------
   Max   66.805513    constrained

Stress-tensor-Voigt (kbar):       -7.67     -176.66      -25.13     -107.78     -116.52      -56.68
Target enthalpy (eV/cell)    -1115.2920

* Maximum dynamic memory allocated =    10 MB

siesta:                 ==============================
                            Begin CG move =      1
                        ==============================

zmatrix: Z-matrix coordinates: (Ang ; deg )
zmatrix: (Fractional coordinates have been converted to cartesian)
molecule    1 (     3 atoms)
      0.09929434      0.10945323      0.12114907
      0.95699700     89.99582128     36.99565675
      0.95699700    104.00000000     89.99318499
molecule    2 (     3 atoms)
      4.74992652      6.25034745      4.94993385
      0.95699700     89.99582128     36.99565675
      0.95699700    104.00000000     89.99318499
cartesian block    1 (     2 atoms)
      7.62500000     10.50583540      7.96500000
      7.12500000      9.37500000      7.42500000


Z-matrix Symbol Section -------
Variables
 x          0.09929433691987051
 y          0.1094532300427535
 z          0.12114906946875709
 theta      89.99582128092179
 phi        36.995656754237366
 tau        89.99318499389828
 x2         0.49998925744087375
 y2         0.5000500403651545
 z2         0.4999874451431624
 six        0.8638605762394762
Constants
 ho1        0.9569969999999999
 ho2        0.9569969999999999
 hoh        104.00000000000014
 siz        0.7500000000000001
------------ End of Z-matrix Information


outcell: Unit cell vectors (Ang):
        8.000000    2.000000    1.000000
        0.500000    8.000000    0.900000
        1.000000    2.500000    8.000000

outcell: Cell vector modules (Ang)   :    8.306624    8.065978    8.440972
outcell: Cell angles (23,13,12) (deg):     65.9931     72.5722     71.8241
outcell: Cell volume (Ang**3)        :    481.0500

siesta: Eharris(eV) =   -1128.594074


siesta: Eharris(eV) =   -1128.594074


zmatrix: Atomic forces (eV/Ang ; eV/deg )
zmatrix: (No information if symbols are used)
molecule    1 (     3 atoms)
     1    0.000000    0.000000    0.000000
     2    0.000000    0.000000    0.000000
     3    0.000000    0.000000    0.000000
molecule    2 (     3 atoms)
     4    0.000000    0.000000    0.000000
     5    0.000000    0.000000    0.000000
     6    0.000000    0.000000    0.000000
cartesian    1 (     2 atoms)
     7    0.000000    0.000000    0.000000
     8    0.000000    0.000000    0.000000


Variable forces (eV/Ang ; eV/deg )
 x          -0.47313946930199824
 y          -0.34616871042603425
 z          0.7123427817646002
 theta      -0.0001529852455221922
 phi        -0.0003124555914380806
 tau        -0.00043400236294446627
 x2         -0.038480993338610395
 y2         0.1930439918699489
 z2         -0.040649508280836494
 six        52.689324777609876

siesta: Atomic forces (eV/Ang):
     1   -0.466382    0.569855    0.687035
     2   -0.052556   -0.499903   -0.003334
     3    0.045799   -0.416121    0.028642
     4   -0.009162    1.168360   -0.057498
     5   -0.065805   -0.457020    0.018843
     6    0.036486   -0.518296   -0.001994
     7   23.316232   52.689325   25.146789
     8  -23.244237  -52.638804  -25.096595
----------------------------------------
   Tot   -0.439626   -0.102604    0.721888
----------------------------------------
   Max   52.689325
   Res   18.138868    sqrt( Sum f_i^2 / 3N )
----------------------------------------
   Max   52.689325    constrained

Stress-tensor-Voigt (kbar):        8.05     -145.98       -6.82      -84.12      -90.93      -39.93
Target enthalpy (eV/cell)    -1121.5269

* Maximum dynamic memory allocated =    10 MB

siesta:                 ==============================
                            Begin CG move =      2
                        ==============================

zmatrix: Z-matrix coordinates: (Ang ; deg )
zmatrix: (Fractional coordinates have been converted to cartesian)
molecule    1 (     3 atoms)
      0.09858867      0.10890646      0.12229814
      0.95699700     89.99164256     36.99131351
      0.95699700    104.00000000     89.98636999
molecule    2 (     3 atoms)
      4.74985305      6.25069490      4.94986771
      0.95699700     89.99164256     36.99131351
      0.95699700    104.00000000     89.98636999
cartesian block    1 (     2 atoms)
      7.62500000     10.61167080      7.96500000
      7.12500000      9.37500000      7.42500000


Z-matrix Symbol Section -------
Variables
 x          0.09858867383974103
 y          0.10890646008550699
 z          0.12229813893751416
 theta      89.99164256184346
 phi        36.99131350847468
 tau        89.98636998779644
 x2         0.4999785148817476
 y2         0.5001000807303088
 z2         0.4999748902863248
 six        0.8777211524789523
Constants
 ho1        0.9569969999999999
 ho2        0.9569969999999999
 hoh        104.00000000000014
 siz        0.7500000000000001
------------ End of Z-matrix Information


outcell: Unit cell vectors (Ang):
        8.000000    2.000000    1.000000
        0.500000    8.000000    0.900000
        1.000000    2.500000    8.000000

outcell: Cell vector modules (Ang)   :    8.306624    8.065978    8.440972
outcell: Cell angles (23,13,12) (deg):     65.9931     72.5722     71.8241
outcell: Cell volume (Ang**3)        :    481.0500

siesta: Eharris(eV) =   -1133.481461


siesta: Eharris(eV) =   -1133.481461


zmatrix: Atomic forces (eV/Ang ; eV/deg )
zmatrix: (No information if symbols are used)
molecule    1 (     3 atoms)
     1    0.000000    0.000000    0.000000
     2    0.000000    0.000000    0.000000
     3    0.000000    0.000000    0.000000
molecule    2 (     3 atoms)
     4    0.000000    0.000000    0.000000
     5    0.000000    0.000000    0.000000
     6    0.000000    0.000000    0.000000
cartesian    1 (     2 atoms)
     7    0.000000    0.000000    0.000000
     8    0.000000    0.000000    0.000000


Variable forces (eV/Ang ; eV/deg )
 x          -0.5027040529816921
 y          -0.3420039748385277
 z          0.7172521081283658
 theta      -0.00006471179466307258
 phi        -0.00028447282050830607
 tau        -0.0005021103724453496
 x2         -0.03233791373589305
 y2         0.16641775321607483
 z2         -0.041433822396083154
 six        39.92038694587382

siesta: Atomic forces (eV/Ang):
     1   -0.498436    0.562378    0.692532
     2   -0.043625   -0.493185   -0.007045
     3    0.039356   -0.411197    0.031765
     4   -0.000860    1.141602   -0.058548
     5   -0.066434   -0.456820    0.018157
     6    0.034956   -0.518364   -0.001043
     7   16.171357   39.920387   17.425925
     8  -16.098290  -39.874920  -17.381407
----------------------------------------
   Tot   -0.461975   -0.130120    0.720336
----------------------------------------
   Max   39.920387
   Res   13.406065    sqrt( Sum f_i^2 / 3N )
----------------------------------------
   Max   39.920387    constrained

Stress-tensor-Voigt (kbar):       19.91     -111.63        6.93      -62.97      -68.08      -27.16
Target enthalpy (eV/cell)    -1126.3875

* Maximum dynamic memory allocated =    10 MB

siesta:                 ==============================
                            Begin CG move =      3
                        ==============================

zmatrix: Z-matrix coordinates: (Ang ; deg )
zmatrix: (Fractional coordinates have been converted to cartesian)
molecule    1 (     3 atoms)
      0.09788301      0.10835969      0.12344721
      0.95699700     89.98746384     36.98697026
      0.95699700    104.00000000     89.97955498
molecule    2 (     3 atoms)
      4.74977957      6.25104235      4.94980156
      0.95699700     89.98746384     36.98697026
      0.95699700    104.00000000     89.97955498
cartesian block    1 (     2 atoms)
      7.62500000     10.71750620      7.96500000
      7.12500000      9.37500000      7.42500000


Z-matrix Symbol Section -------
Variables
 x          0.09788301075961153
 y          0.10835969012826048
 z          0.12344720840627124
 theta      89.98746384276512
 phi        36.986970262712
 tau        89.97955498169459
 x2         0.49996777232262124
 y2         0.5001501210954631
 z2         0.49996233542948715
 six        0.8915817287184284
Constants
 ho1        0.9569969999999999
 ho2        0.9569969999999999
 hoh        104.00000000000014
 siz        0.7500000000000001
------------ End of Z-matrix Information


outcell: Unit cell vectors (Ang):
        8.000000    2.000000    1.000000
        0.500000    8.000000    0.900000
        1.000000    2.500000    8.000000

outcell: Cell vector modules (Ang)   :    8.306624    8.065978    8.440972
outcell: Cell angles (23,13,12) (deg):     65.9931     72.5722     71.8241
outcell: Cell volume (Ang**3)        :    481.0500

siesta: Eharris(eV) =   -1137.106527


siesta: Eharris(eV) =   -1137.106527


zmatrix: Atomic forces (eV/Ang ; eV/deg )
zmatrix: (No information if symbols are used)
molecule    1 (     3 atoms)
     1    0.000000    0.000000    0.000000
     2    0.000000    0.000000    0.000000
     3    0.000000    0.000000    0.000000
molecule    2 (     3 atoms)
     4    0.000000    0.000000    0.000000
     5    0.000000    0.000000    0.000000
     6    0.000000    0.000000    0.000000
cartesian    1 (     2 atoms)
     7    0.000000    0.000000    0.000000
     8    0.000000    0.000000    0.000000


Variable forces (eV/Ang ; eV/deg )
 x          -0.528253740592677
 y          -0.3351567867842954
 z          0.7091945429776993
 theta      0.0000262626199988999
 phi        -0.0002899026817326406
 tau        -0.0005529869799668462
 x2         -0.02613620860491939
 y2         0.141174916705479
 z2         -0.041833023163510674
 six        28.898822118035355

siesta: Atomic forces (eV/Ang):
     1   -0.526372    0.557183    0.686075
     2   -0.034647   -0.487577   -0.010607
     3    0.032765   -0.404763    0.033727
     4    0.007610    1.116081   -0.058746
     5   -0.067004   -0.456598    0.016907
     6    0.033258   -0.518309    0.000006
     7   10.807401   28.898822   11.634301
     8  -10.726507  -28.843956  -11.581280
----------------------------------------
   Tot   -0.473496   -0.139115    0.720383
----------------------------------------
   Max   28.898822
   Res    9.512387    sqrt( Sum f_i^2 / 3N )
----------------------------------------
   Max   28.898822    constrained

Stress-tensor-Voigt (kbar):       28.64      -76.42       17.08      -44.72      -48.36      -17.51
Target enthalpy (eV/cell)    -1130.0419

* Maximum dynamic memory allocated =    10 MB

siesta:                 ==============================
                            Begin CG move =      4
                        ==============================

zmatrix: Z-matrix coordinates: (Ang ; deg )
zmatrix: (Fractional coordinates have been converted to cartesian)
molecule    1 (     3 atoms)
      0.09717735      0.10781292      0.12459628
      0.95699700     89.98328512     36.98262702
      0.95699700    104.00000000     89.97273998
molecule    2 (     3 atoms)
      4.74970610      6.25138980      4.94973542
      0.95699700     89.98328512     36.98262702
      0.95699700    104.00000000     89.97273998
cartesian block    1 (     2 atoms)
      7.62500000     10.82334160      7.96500000
      7.12500000      9.37500000      7.42500000


Z-matrix Symbol Section -------
Variables
 x          0.09717734767948204
 y          0.10781292017101397
 z          0.12459627787502833
 theta      89.9832851236868
 phi        36.98262701694931
 tau        89.97273997559275
 x2         0.499957029763495
 y2         0.5002001614606174
 z2         0.49994978057264955
 six        0.9054423049579046
Constants
 ho1        0.9569969999999999
 ho2        0.9569969999999999
 hoh        104.00000000000014
 siz        0.7500000000000001
------------ End of Z-matrix Information


outcell: Unit cell vectors (Ang):
        8.000000    2.000000    1.000000
        0.500000    8.000000    0.900000
        1.000000    2.500000    8.000000

outcell: Cell vector modules (Ang)   :    8.306624    8.065978    8.440972
outcell: Cell angles (23,13,12) (deg):     65.9931     72.5722     71.8241
outcell: Cell volume (Ang**3)        :    481.0500

siesta: Eharris(eV) =   -1139.671128


siesta: Eharris(eV) =   -1139.671128


zmatrix: Atomic forces (eV/Ang ; eV/deg )
zmatrix: (No information if symbols are used)
molecule    1 (     3 atoms)
     1    0.000000    0.000000    0.000000
     2    0.000000    0.000000    0.000000
     3    0.000000    0.000000    0.000000
molecule    2 (     3 atoms)
     4    0.000000    0.000000    0.000000
     5    0.000000    0.000000    0.000000
     6    0.000000    0.000000    0.000000
cartesian    1 (     2 atoms)
     7    0.000000    0.000000    0.000000
     8    0.000000    0.000000    0.000000


Variable forces (eV/Ang ; eV/deg )
 x          -0.5525354746806262
 y          -0.32437128718552016
 z          0.7047910044453648
 theta      0.00014884808084652935
 phi        -0.00033662662944097403
 tau        -0.0006335978435545384
 x2         -0.02099241611510511
 y2         0.11595539712130329
 z2         -0.0433284013820386
 six        19.852419938070103

siesta: Atomic forces (eV/Ang):
     1   -0.552925    0.552576    0.682293
     2   -0.025239   -0.481918   -0.014934
     3    0.025629   -0.395029    0.037432
     4    0.015050    1.090382   -0.059455
     5   -0.067423   -0.456314    0.014973
     6    0.031381   -0.518113    0.001153
     7    6.907477   19.852420    7.418742
     8   -6.828388  -19.805377   -7.370939
----------------------------------------
   Tot   -0.494439   -0.161373    0.709266
----------------------------------------
   Max   19.852420
   Res    6.433063    sqrt( Sum f_i^2 / 3N )
----------------------------------------
   Max   19.852420    constrained

Stress-tensor-Voigt (kbar):       34.59      -43.61       24.08      -30.01      -32.42      -10.62
Target enthalpy (eV/cell)    -1132.6862

* Maximum dynamic memory allocated =    10 MB

outcoor: Final (unrelaxed) atomic coordinates (Bohr):       
    0.18230514    0.20270373    0.23762436   1  O          1
    1.62702018    1.29051633    0.23828384   2  H          2
   -1.22270317    1.34133849    0.23850840   2  H          3
    8.97550843   11.81407592    9.35352306   1  O          4
   10.42022347   12.90188852    9.35418254   2  H          5
    7.57050012   12.95271068    9.35440711   2  H          6
   14.40916744   20.65315953   15.05167458   3  Si         7
   13.46430400   17.71618948   14.03122207   3  Si         8

zmatrix: Z-matrix coordinates: (Ang ; deg )
zmatrix: (Fractional coordinates have been converted to cartesian)
molecule    1 (     3 atoms)
      0.09647168      0.10726615      0.12574535
      0.95699700     89.97910640     36.97828377
      0.95699700    104.00000000     89.96592497
molecule    2 (     3 atoms)
      4.74963262      6.25173725      4.94966927
      0.95699700     89.97910640     36.97828377
      0.95699700    104.00000000     89.96592497
cartesian block    1 (     2 atoms)
      7.62500000     10.92917700      7.96500000
      7.12500000      9.37500000      7.42500000


Z-matrix Symbol Section -------
Variables
 x          0.09647168459935254
 y          0.10726615021376747
 z          0.12574534734378542
 theta      89.97910640460846
 phi        36.978283771186625
 tau        89.9659249694909
 x2         0.49994628720436873
 y2         0.5002502018257717
 z2         0.4999372257158119
 six        0.9193028811973807
Constants
 ho1        0.9569969999999999
 ho2        0.9569969999999999
 hoh        104.00000000000014
 siz        0.7500000000000001
------------ End of Z-matrix Information


siesta: Program's energy decomposition (eV):
siesta: Eions   =      2012.511081
siesta: Ena     =       480.474013
siesta: Ekin    =       850.742879
siesta: Enl     =      -104.039693
siesta: DEna    =       -57.478501
siesta: DUscf   =         9.145748
siesta: DUext   =         0.000000
siesta: Exc     =      -299.019528
siesta: eta*DQ  =         0.000000
siesta: Emadel  =         0.000000
siesta: Ekinion =         0.000000
siesta: Eharris =     -1139.671128
siesta: Etot    =     -1132.686162
siesta: FreeEng =     -1132.686162

siesta: Final energy (eV):
siesta:       Kinetic =     850.742879
siesta:       Hartree =     880.161307
siesta:    Ext. field =       0.000000
siesta:   Exch.-corr. =    -299.019528
siesta:  Ion-electron =   -2439.983155
siesta:       Ion-ion =    -124.587665
siesta:       Ekinion =       0.000000
siesta:         Total =   -1132.686162

siesta: Atomic forces (eV/Ang):
siesta:      1   -0.552925    0.552576    0.682293
siesta:      2   -0.025239   -0.481918   -0.014934
siesta:      3    0.025629   -0.395029    0.037432
siesta:      4    0.015050    1.090382   -0.059455
siesta:      5   -0.067423   -0.456314    0.014973
siesta:      6    0.031381   -0.518113    0.001153
siesta:      7    6.907477   19.852420    7.418742
siesta:      8   -6.828388  -19.805377   -7.370939
siesta: ----------------------------------------
siesta:    Tot   -0.494439   -0.161373    0.709266

siesta: Stress tensor (static) (eV/Ang**3):
siesta:     0.021592   -0.018728   -0.006630
siesta:    -0.018728   -0.027218   -0.020238
siesta:    -0.006630   -0.020238    0.015028

siesta: Cell volume =        481.050000 Ang**3

siesta: Pressure (static):
siesta:                Solid            Molecule  Units
siesta:          -0.00003413         -0.00032711  Ry/Bohr**3
siesta:          -0.00313406         -0.03003455  eV/Ang**3
siesta:          -5.02137502        -48.12116799  kBar

* Maximum dynamic memory allocated : Node    0 =    10 MB

* Maximum memory occured during poison                        

timer: CPU execution times:
timer:  Routine       Calls   Time/call    Tot.time        %
timer:  siesta            1      71.049      71.049   100.00
timer:  Setup             1       2.391       2.391     3.37
timer:  bands             1       0.001       0.001     0.00
timer:  writewave         1       0.004       0.004     0.01
timer:  KSV_init          1       0.001       0.001     0.00
timer:  IterMD            5      13.726      68.629    96.59
timer:  hsparse           6       0.325       1.952     2.75
timer:  overfsm          10       0.819       8.186    11.52
timer:  IterSCF          10       5.871      58.713    82.64
timer:  kinefsm          10       0.791       7.906    11.13
timer:  nlefsm           10       1.676      16.764    23.60
timer:  DHSCF            10       3.347      33.466    47.10
timer:  DHSCF1            1       0.234       0.234     0.33
timer:  DHSCF2            5       1.758       8.788    12.37
timer:  REORD            90       0.001       0.078     0.11
timer:  POISON           15       0.040       0.595     0.84
timer:  DHSCF3           10       0.735       7.349    10.34
timer:  rhoofd           10       0.230       2.297     3.23
timer:  cellXC           15       0.329       4.939     6.95
timer:  vmat             10       0.126       1.265     1.78
timer:  diagon            5       0.028       0.139     0.20
timer:  rdiag             5       0.025       0.125     0.18
timer:  rdiag1            5       0.002       0.009     0.01
timer:  rdiag2            5       0.002       0.012     0.02
timer:  rdiag3            5       0.018       0.091     0.13
timer:  rdiag4            5       0.001       0.004     0.01
timer:  DHSCF4            5       3.415      17.074    24.03
timer:  dfscf             5       2.034      10.171    14.32
timer:  optical           1       0.001       0.001     0.00
  

elaps: ELAPSED times:
elaps:  Routine       Calls   Time/call    Tot.time        %
elaps:  siesta            1      86.200      86.200   100.00
elaps:  Setup             1       3.035       3.035     3.52
elaps:  bands             1       0.001       0.001     0.00
elaps:  writewave         1       0.004       0.004     0.00
elaps:  KSV_init          1       0.001       0.001     0.00
elaps:  IterMD            5      16.619      83.094    96.40
elaps:  hsparse           6       0.373       2.238     2.60
elaps:  overfsm          10       0.982       9.815    11.39
elaps:  IterSCF          10       6.944      69.439    80.56
elaps:  kinefsm          10       0.970       9.701    11.25
elaps:  nlefsm           10       1.911      19.111    22.17
elaps:  DHSCF            10       3.932      39.323    45.62
elaps:  DHSCF1            1       0.259       0.259     0.30
elaps:  DHSCF2            5       2.076      10.382    12.04
elaps:  REORD            90       0.001       0.088     0.10
elaps:  POISON           15       0.048       0.720     0.83
elaps:  DHSCF3           10       0.862       8.624    10.00
elaps:  rhoofd           10       0.273       2.726     3.16
elaps:  cellXC           15       0.384       5.754     6.67
elaps:  vmat             10       0.149       1.489     1.73
elaps:  diagon            5       0.151       0.753     0.87
elaps:  rdiag             5       0.148       0.739     0.86
elaps:  rdiag1            5       0.002       0.010     0.01
elaps:  rdiag2            5       0.002       0.012     0.01
elaps:  rdiag3            5       0.140       0.700     0.81
elaps:  rdiag4            5       0.001       0.005     0.01
elaps:  DHSCF4            5       4.007      20.034    23.24
elaps:  dfscf             5       2.331      11.657    13.52
elaps:  optical           1       0.001       0.001     0.00
  
>> End of run:   5-DEC-2006  13:27:36
