Siesta Version: siesta@uam.es--2006/siesta-devel--reference--2.1--patch-34
Architecture  : intel9 with Siesta libs
Compiler flags: ifort -w -O2 -mp
SERIAL version

* Running in serial mode
>> Start of run:  25-JAN-2007  18:01:52

                           ***********************       
                           *  WELCOME TO SIESTA  *       
                           ***********************       

reinit: Reading from standard input
************************** Dump of input data file ****************************
# A convoluted example of zmatrix input, for testing
SystemName zmatrix
SystemLabel zmatrix
NumberOfSpecies 3
NumberOfAtoms   8
%block ChemicalSpeciesLabel
1    8 O
2    1 H
3   14 Si
%endblock ChemicalSpeciesLabel
WriteCoor T
WriteForces T
LatticeConstant 1.0 Ang
%block LatticeVectors
8.0 2.0 1.0
0.5 8 0.9
1 2.5 8
%endblock LatticeVectors
ZM.ForceTolLen 0.04 eV/Ang
ZM.ForceTolAng 0.0001 eV/deg
ZM.MaxDisplLen 0.5 Ang
ZM.MaxDisplAng 20.0 deg
ZM.UnitsLength Ang
ZM.UnitsAngle deg
%block Zmatrix < Zmatrix.data
xc.functional LDA
xc.authors PZ
HarrisFunctional T
MD.TypeOfRun CG
MD.NumCGsteps 4
MeshCutoff 60 Ry
PAO.EnergyShift 0.01 Ry
DM.NumberPulay 5
DM.MixingWeight 0.3
************************** End of input data file *****************************

reinit: -----------------------------------------------------------------------
reinit: System Name: zmatrix                                                    
reinit: -----------------------------------------------------------------------
reinit: System Label: zmatrix                                                     
reinit: -----------------------------------------------------------------------

initatom: Reading input for the pseudopotentials and atomic orbitals ----------
 Species number:            1  Label: O Atomic number:           8
 Species number:            2  Label: H Atomic number:           1
 Species number:            3  Label: Si Atomic number:          14
Ground state valence configuration:   2s02  2p04
Reading pseudopotential information in formatted form from O.psf

Valence configuration for pseudopotential generation:
2s( 2.00) rc: 1.14
2p( 4.00) rc: 1.14
3d( 0.00) rc: 1.14
4f( 0.00) rc: 1.14
Dumping pseudopotential information in formatted form in O.psdump
Ground state valence configuration:   1s01
Reading pseudopotential information in formatted form from H.psf

Valence configuration for pseudopotential generation:
1s( 1.00) rc: 1.25
2p( 0.00) rc: 1.25
3d( 0.00) rc: 1.25
4f( 0.00) rc: 1.25
Dumping pseudopotential information in formatted form in H.psdump
Ground state valence configuration:   3s02  3p02
Reading pseudopotential information in formatted form from Si.psf

Valence configuration for pseudopotential generation:
3s( 2.00) rc: 1.89
3p( 2.00) rc: 1.89
3d( 0.00) rc: 1.89
4f( 0.00) rc: 1.89
Dumping pseudopotential information in formatted form in Si.psdump
For O, standard SIESTA heuristics set lmxkb to 3
 (one more than the basis l, including polarization orbitals).
Use PS.lmax or PS.KBprojectors blocks to override.
For H, standard SIESTA heuristics set lmxkb to 2
 (one more than the basis l, including polarization orbitals).
Use PS.lmax or PS.KBprojectors blocks to override.
For Si, standard SIESTA heuristics set lmxkb to 3
 (one more than the basis l, including polarization orbitals).
Use PS.lmax or PS.KBprojectors blocks to override.

<basis_specs>
===============================================================================
O                    Z=   8    Mass=  16.000        Charge= 0.17977+309
Lmxo=1 Lmxkb=3     BasisType=split      Semic=F
L=0  Nsemic=0  Cnfigmx=2
          n=1  nzeta=2  polorb=0
            splnorm:   0.15000    
               vcte:    0.0000    
               rinn:    0.0000    
                rcs:    0.0000      0.0000    
            lambdas:    1.0000      1.0000    
L=1  Nsemic=0  Cnfigmx=2
          n=1  nzeta=2  polorb=1
            splnorm:   0.15000    
               vcte:    0.0000    
               rinn:    0.0000    
                rcs:    0.0000      0.0000    
            lambdas:    1.0000      1.0000    
-------------------------------------------------------------------------------
L=0  Nkbl=1  erefs: 0.17977+309
L=1  Nkbl=1  erefs: 0.17977+309
L=2  Nkbl=1  erefs: 0.17977+309
L=3  Nkbl=1  erefs: 0.17977+309
===============================================================================
</basis_specs>

atom: Called for O                     (Z =   8)

read_vps: Pseudopotential generation method:
read_vps: ATM3      Troullier-Martins                       
Total valence charge:    6.00000

xc_check: Exchange-correlation functional:
xc_check: Ceperley-Alder
V l=0 = -2*Zval/r beyond r=  1.1278
V l=1 = -2*Zval/r beyond r=  1.1278
V l=2 = -2*Zval/r beyond r=  1.1278
V l=3 = -2*Zval/r beyond r=  1.1138
All V_l potentials equal beyond r=  1.1278
This should be close to max(r_c) in ps generation
All pots = -2*Zval/r beyond r=  1.1278

VLOCAL1: 99.0% of the norm of Vloc inside     34.126 Ry
VLOCAL1: 99.9% of the norm of Vloc inside     77.774 Ry
atom: Maximum radius for 4*pi*r*r*local-pseudopot. charge    1.37759
atom: Maximum radius for r*vlocal+2*Zval:    1.18566
GHOST: No ghost state for L =  0
GHOST: No ghost state for L =  1
GHOST: No ghost state for L =  2
GHOST: No ghost state for L =  3

KBgen: Kleinman-Bylander projectors: 
   l= 0   rc=  1.294105   el= -1.742414   Ekb=  9.135903   kbcos=  0.326910
   l= 1   rc=  1.294105   el= -0.676589   Ekb= -8.124878   kbcos= -0.395047
   l= 2   rc=  1.448233   el=  0.002386   Ekb= -2.039267   kbcos= -0.003484
   l= 3   rc=  1.561052   el=  0.003508   Ekb= -0.799141   kbcos= -0.000344

KBgen: Total number of  Kleinman-Bylander projectors:   16
atom: -------------------------------------------------------------------------

atom: SANKEY-TYPE ORBITALS:
atom: Selected multiple-zeta basis: split     

SPLIT: Orbitals with angular momentum L= 0

SPLIT: Basis orbitals for state 2s

SPLIT: PAO cut-off radius determined from an
SPLIT: energy shift=  0.010000 Ry

   izeta = 1
                 lambda =    1.000000
                     rc =    3.562532
                 energy =   -1.732600
                kinetic =    1.577294
    potential(screened) =   -3.309894
       potential(ionic) =  -11.240760

   izeta = 2
                 rmatch =    2.541963
              splitnorm =    0.150000
                 energy =   -1.504672
                kinetic =    2.374987
    potential(screened) =   -3.879659
       potential(ionic) =  -12.401042

SPLIT: Orbitals with angular momentum L= 1

SPLIT: Basis orbitals for state 2p

SPLIT: PAO cut-off radius determined from an
SPLIT: energy shift=  0.010000 Ry

   izeta = 1
                 lambda =    1.000000
                     rc =    4.351355
                 energy =   -0.667669
                kinetic =    4.894715
    potential(screened) =   -5.562384
       potential(ionic) =  -13.283144

   izeta = 2
                 rmatch =    2.606321
              splitnorm =    0.150000
                 energy =   -0.413426
                kinetic =    7.271280
    potential(screened) =   -7.684706
       potential(ionic) =  -16.331022

POLgen: Perturbative polarization orbital with L=  2

POLgen: Polarization orbital for state 2p

   izeta = 1
                     rc =    4.351355
                 energy =    2.201853
                kinetic =    4.360449
    potential(screened) =   -2.158596
       potential(ionic) =   -8.257377
atom: Total number of Sankey-type orbitals: 13

atm_pop: Valence configuration (for local Pseudopot. screening):
 2s( 2.00)                                                            
 2p( 4.00)                                                            
Vna: chval, zval:    6.00000   6.00000

Vna:  Cut-off radius for the neutral-atom potential:   4.351355

atom: _________________________________________________________________________

<basis_specs>
===============================================================================
H                    Z=   1    Mass=  1.0100        Charge= 0.17977+309
Lmxo=0 Lmxkb=2     BasisType=split      Semic=F
L=0  Nsemic=0  Cnfigmx=1
          n=1  nzeta=2  polorb=1
            splnorm:   0.15000    
               vcte:    0.0000    
               rinn:    0.0000    
                rcs:    0.0000      0.0000    
            lambdas:    1.0000      1.0000    
-------------------------------------------------------------------------------
L=0  Nkbl=1  erefs: 0.17977+309
L=1  Nkbl=1  erefs: 0.17977+309
L=2  Nkbl=1  erefs: 0.17977+309
===============================================================================
</basis_specs>

atom: Called for H                     (Z =   1)

read_vps: Pseudopotential generation method:
read_vps: ATM3      Troullier-Martins                       
Total valence charge:    1.00000

xc_check: Exchange-correlation functional:
xc_check: Ceperley-Alder
V l=0 = -2*Zval/r beyond r=  1.2343
V l=1 = -2*Zval/r beyond r=  1.2189
V l=2 = -2*Zval/r beyond r=  1.2189
All V_l potentials equal beyond r=  1.2343
This should be close to max(r_c) in ps generation
All pots = -2*Zval/r beyond r=  1.2343

VLOCAL1: 99.0% of the norm of Vloc inside     28.493 Ry
VLOCAL1: 99.9% of the norm of Vloc inside     64.935 Ry
atom: Maximum radius for 4*pi*r*r*local-pseudopot. charge    1.45251
atom: Maximum radius for r*vlocal+2*Zval:    1.21892
GHOST: No ghost state for L =  0
GHOST: No ghost state for L =  1
GHOST: No ghost state for L =  2

KBgen: Kleinman-Bylander projectors: 
   l= 0   rc=  1.364359   el= -0.467325   Ekb= -2.005361   kbcos= -0.336422
   l= 1   rc=  1.434438   el=  0.001430   Ekb= -0.501708   kbcos= -0.021697
   l= 2   rc=  1.470814   el=  0.002365   Ekb= -0.190555   kbcos= -0.002281

KBgen: Total number of  Kleinman-Bylander projectors:    9
atom: -------------------------------------------------------------------------

atom: SANKEY-TYPE ORBITALS:
atom: Selected multiple-zeta basis: split     

SPLIT: Orbitals with angular momentum L= 0

SPLIT: Basis orbitals for state 1s

SPLIT: PAO cut-off radius determined from an
SPLIT: energy shift=  0.010000 Ry

   izeta = 1
                 lambda =    1.000000
                     rc =    5.336316
                 energy =   -0.457946
                kinetic =    0.886710
    potential(screened) =   -1.344656
       potential(ionic) =   -1.876618

   izeta = 2
                 rmatch =    4.002347
              splitnorm =    0.150000
                 energy =   -0.355904
                kinetic =    1.439488
    potential(screened) =   -1.795392
       potential(ionic) =   -2.364690

POLgen: Perturbative polarization orbital with L=  1

POLgen: Polarization orbital for state 1s

   izeta = 1
                     rc =    5.336316
                 energy =    0.616245
                kinetic =    1.262150
    potential(screened) =   -0.645906
       potential(ionic) =   -1.116519
atom: Total number of Sankey-type orbitals:  5

atm_pop: Valence configuration (for local Pseudopot. screening):
 1s( 1.00)                                                            
Vna: chval, zval:    1.00000   1.00000

Vna:  Cut-off radius for the neutral-atom potential:   5.336316

atom: _________________________________________________________________________

<basis_specs>
===============================================================================
Si                   Z=  14    Mass=  28.090        Charge= 0.17977+309
Lmxo=1 Lmxkb=3     BasisType=split      Semic=F
L=0  Nsemic=0  Cnfigmx=3
          n=1  nzeta=2  polorb=0
            splnorm:   0.15000    
               vcte:    0.0000    
               rinn:    0.0000    
                rcs:    0.0000      0.0000    
            lambdas:    1.0000      1.0000    
L=1  Nsemic=0  Cnfigmx=3
          n=1  nzeta=2  polorb=1
            splnorm:   0.15000    
               vcte:    0.0000    
               rinn:    0.0000    
                rcs:    0.0000      0.0000    
            lambdas:    1.0000      1.0000    
-------------------------------------------------------------------------------
L=0  Nkbl=1  erefs: 0.17977+309
L=1  Nkbl=1  erefs: 0.17977+309
L=2  Nkbl=1  erefs: 0.17977+309
L=3  Nkbl=1  erefs: 0.17977+309
===============================================================================
</basis_specs>

atom: Called for Si                    (Z =  14)

read_vps: Pseudopotential generation method:
read_vps: ATM3      Troullier-Martins                       
Total valence charge:    4.00000

xc_check: Exchange-correlation functional:
xc_check: Ceperley-Alder
V l=0 = -2*Zval/r beyond r=  2.5494
V l=1 = -2*Zval/r beyond r=  2.5494
V l=2 = -2*Zval/r beyond r=  2.5494
V l=3 = -2*Zval/r beyond r=  2.5494
All V_l potentials equal beyond r=  1.8652
This should be close to max(r_c) in ps generation
All pots = -2*Zval/r beyond r=  2.5494
Using large-core scheme for Vlocal

atom: Estimated core radius    2.54944

atom: Including non-local core corrections could be a good idea
atom: Maximum radius for 4*pi*r*r*local-pseudopot. charge    2.85303
atom: Maximum radius for r*vlocal+2*Zval:    2.58151
GHOST: No ghost state for L =  0
GHOST: No ghost state for L =  1
GHOST: No ghost state for L =  2
GHOST: No ghost state for L =  3

KBgen: Kleinman-Bylander projectors: 
   l= 0   rc=  1.936440   el= -0.796617   Ekb=  4.661340   kbcos=  0.299756
   l= 1   rc=  1.936440   el= -0.307040   Ekb=  1.494238   kbcos=  0.301471
   l= 2   rc=  1.936440   el=  0.002313   Ekb= -2.808672   kbcos= -0.054903
   l= 3   rc=  1.936440   el=  0.003402   Ekb= -0.959059   kbcos= -0.005513

KBgen: Total number of  Kleinman-Bylander projectors:   16
atom: -------------------------------------------------------------------------

atom: SANKEY-TYPE ORBITALS:
atom: Selected multiple-zeta basis: split     

SPLIT: Orbitals with angular momentum L= 0

SPLIT: Basis orbitals for state 3s

SPLIT: PAO cut-off radius determined from an
SPLIT: energy shift=  0.010000 Ry

   izeta = 1
                 lambda =    1.000000
                     rc =    5.397360
                 energy =   -0.786473
                kinetic =    0.546491
    potential(screened) =   -1.332964
       potential(ionic) =   -3.793893

   izeta = 2
                 rmatch =    4.474538
              splitnorm =    0.150000
                 energy =   -0.690041
                kinetic =    0.854339
    potential(screened) =   -1.544380
       potential(ionic) =   -4.120474

SPLIT: Orbitals with angular momentum L= 1

SPLIT: Basis orbitals for state 3p

SPLIT: PAO cut-off radius determined from an
SPLIT: energy shift=  0.010000 Ry

   izeta = 1
                 lambda =    1.000000
                     rc =    6.930397
                 energy =   -0.298036
                kinetic =    0.832892
    potential(screened) =   -1.130928
       potential(ionic) =   -3.361641

   izeta = 2
                 rmatch =    5.198700
              splitnorm =    0.150000
                 energy =   -0.218749
                kinetic =    1.203229
    potential(screened) =   -1.421978
       potential(ionic) =   -3.849753

POLgen: Perturbative polarization orbital with L=  2

POLgen: Polarization orbital for state 3p

   izeta = 1
                     rc =    6.930397
                 energy =    0.377307
                kinetic =    1.185358
    potential(screened) =   -0.808051
       potential(ionic) =   -2.819307
atom: Total number of Sankey-type orbitals: 13

atm_pop: Valence configuration (for local Pseudopot. screening):
 3s( 2.00)                                                            
 3p( 2.00)                                                            
Vna: chval, zval:    4.00000   4.00000

Vna:  Cut-off radius for the neutral-atom potential:   6.930397

atom: _________________________________________________________________________

prinput: Basis input ----------------------------------------------------------

PAO.BasisType split     

%block ChemicalSpeciesLabel
    1    8 O                       # Species index, atomic number, species label
    2    1 H                       # Species index, atomic number, species label
    3   14 Si                      # Species index, atomic number, species label
%endblock ChemicalSpeciesLabel

%block PAO.Basis                 # Define Basis set
O                     2                    # Species label, number of l-shells
 n=2   0   2                         # n, l, Nzeta 
   3.563      2.542   
   1.000      1.000   
 n=2   1   2 P   1                   # n, l, Nzeta, Polarization, NzetaPol
   4.351      2.606   
   1.000      1.000   
H                     1                    # Species label, number of l-shells
 n=1   0   2 P   1                   # n, l, Nzeta, Polarization, NzetaPol
   5.336      4.002   
   1.000      1.000   
Si                    2                    # Species label, number of l-shells
 n=3   0   2                         # n, l, Nzeta 
   5.397      4.475   
   1.000      1.000   
 n=3   1   2 P   1                   # n, l, Nzeta, Polarization, NzetaPol
   6.930      5.199   
   1.000      1.000   
%endblock PAO.Basis

prinput: ----------------------------------------------------------------------


siesta: ******************** Simulation parameters ****************************
siesta:
siesta: The following are some of the parameters of the simulation.
siesta: A complete list of the parameters used, including default values,
siesta: can be found in file out.fdf
siesta:
coor:   Atomic-coordinates input format  =     Cartesian coordinates
coor:                                            (in Bohr units)
read_Zmatrix: Length units: Ang       
read_Zmatrix: Angle  units: deg       
read_Zmatrix: Force tolerances:
read_Zmatrix:    for lengths =     0.001556 Ry/Bohr
read_Zmatrix:    for angles  =     0.003565 Ry/rad

read_Zmatrix: Maximum displacements:
read_Zmatrix:    for lengths =     0.200000 Bohr
read_Zmatrix:    for angles  =     0.003000 rad
%block Zmatrix
molecule_cartesian
  1 0 0 0   X Y Z 0 0 0
  2 1 0 0   HO1 THETA PHI 0 0 0
  2 1 2 0   HO2 HOH TAU 0 0 0
molecule_fractional
  1 0 0 0   X2 Y2 Z2 0 0 0
  2 1 0 0   HO1 THETA PHI 0 0 0
  2 1 2 0   HO2 HOH TAU 0 0 0
fractional
 3  0.8 SiX 0.8   0 0 0
 3  0.75  0.75 SiZ  0 0 0
variables
    X   0.1
    Y   0.11
    Z   0.12
    X2   0.5
    Y2   0.5
    Z2   0.5
    THETA  90.0
    PHI    37.0
    TAU    90.0
    SiX    0.85
constants
    HO1 0.956997
    HO2 0.956997
    HOH 104.0
    SiZ 0.75
%endblock Zmatrix

zmatrix: Z-matrix coordinates: (Ang ; deg )
zmatrix: (Fractional coordinates have been converted to cartesian)
molecule    1 (     3 atoms)
      0.10000000      0.11000000      0.12000000
      0.95699700     90.00000000     37.00000000
      0.95699700    104.00000000     90.00000000
molecule    2 (     3 atoms)
      4.75000000      6.25000000      4.95000000
      0.95699700     90.00000000     37.00000000
      0.95699700    104.00000000     90.00000000
cartesian block    1 (     2 atoms)
      7.62500000     10.40000000      7.96500000
      7.12500000      9.37500000      7.42500000


Z-matrix Symbol Section -------
Variables
 x           0.100000000000000     
 y           0.110000000000000     
 z           0.120000000000000     
 theta        90.0000000000001     
 phi          37.0000000000000     
 tau          90.0000000000001     
 x2          0.500000000000000     
 y2          0.500000000000000     
 z2          0.500000000000000     
 six         0.850000000000000     
Constants
 ho1         0.956997000000000     
 ho2         0.956997000000000     
 hoh          104.000000000000     
 siz         0.750000000000000     
------------ End of Z-matrix Information

redata: Number of spin components        =     1
redata: Long output                      =     F
redata: Number of Atomic Species         =     3
redata: Charge density info will appear in .RHO file
redata: Write Mulliken Pop.              =     NO
redata: Mesh Cutoff                      =    60.0000  Ry
redata: Net charge of the system         =     0.0000 |e|
redata: Max. number of SCF Iter          =    50
redata: Performing Pulay mixing using    =     5 iterations
redata: Mix DM in first SCF step ?       =     F
redata: Write Pulay info on disk?        =     F
redata: New DM Mixing Weight             =     0.3000
redata: New DM Occupancy tolerance       = 0.000000000001
redata: No kicks to SCF
redata: DM Mixing Weight for Kicks       =     0.5000
redata: DM Tolerance for SCF             =     0.000100
redata: Require Energy convergence for SCF =     F
redata: DM Energy tolerance for SCF      =     0.000100 eV
redata: Using Saved Data (generic)   =     F
redata: Use continuation files for DM    =     F
redata: Neglect nonoverlap interactions  =     F
redata: Method of Calculation            =     Diagonalization
redata: Divide and Conquer               =     T
redata: Electronic Temperature           =     0.0019  Ry
redata: Fix the spin of the system       =     F
redata: Dynamics option                  =     CG coord. optimization
redata: Variable cell                    =     F
redata: Use continuation files for CG    =     F
redata: Max atomic displ per move        =     0.2000  Bohr
redata: Maximum number of CG moves       =     4
redata: Force tolerance                  =     0.0016  Ry/Bohr
redata: ***********************************************************************

siesta: Atomic coordinates (Bohr) and species
siesta:      0.18897   0.20787   0.22677  1        1
siesta:      1.63328   1.29623   0.22677  2        2
siesta:     -1.21647   1.34597   0.22677  2        3
siesta:      8.97620  11.81079   9.35415  1        4
siesta:     10.42051  12.89915   9.35415  2        5
siesta:      7.57076  12.94890   9.35415  2        6
siesta:     14.40917  19.65316  15.05167  3        7
siesta:     13.46430  17.71619  14.03122  3        8

initatomlists: Number of atoms, orbitals, and projectors:      8    72   100
Total number of electrons:    24.000000
Total ionic charge:    24.000000

siesta: System type = bulk      

siesta: k-grid: Number of k-points =     1
siesta: k-grid: Cutoff (effective) =     4.033 Ang
siesta: k-grid: Supercell and displacements
siesta: k-grid:    0   1   0      0.000
siesta: k-grid:    1   0   0      0.000
siesta: k-grid:    0   0   1      0.000

* Maximum dynamic memory allocated =     1 MB

siesta:                 ==============================
                            Begin CG move =      0
                        ==============================

zmatrix: Z-matrix coordinates: (Ang ; deg )
zmatrix: (Fractional coordinates have been converted to cartesian)
molecule    1 (     3 atoms)
      0.10000000      0.11000000      0.12000000
      0.95699700     90.00000000     37.00000000
      0.95699700    104.00000000     90.00000000
molecule    2 (     3 atoms)
      4.75000000      6.25000000      4.95000000
      0.95699700     90.00000000     37.00000000
      0.95699700    104.00000000     90.00000000
cartesian block    1 (     2 atoms)
      7.62500000     10.40000000      7.96500000
      7.12500000      9.37500000      7.42500000


Z-matrix Symbol Section -------
Variables
 x           0.100000000000000     
 y           0.110000000000000     
 z           0.120000000000000     
 theta        90.0000000000001     
 phi          37.0000000000000     
 tau          90.0000000000001     
 x2          0.500000000000000     
 y2          0.500000000000000     
 z2          0.500000000000000     
 six         0.850000000000000     
Constants
 ho1         0.956997000000000     
 ho2         0.956997000000000     
 hoh          104.000000000000     
 siz         0.750000000000000     
------------ End of Z-matrix Information


outcell: Unit cell vectors (Ang):
        8.000000    2.000000    1.000000
        0.500000    8.000000    0.900000
        1.000000    2.500000    8.000000

outcell: Cell vector modules (Ang)   :    8.306624    8.065978    8.440972
outcell: Cell angles (23,13,12) (deg):     65.9931     72.5722     71.8241
outcell: Cell volume (Ang**3)        :    481.0500

InitMesh: MESH =    40 x    36 x    36 =       51840
InitMesh: Mesh cutoff (required, used) =    60.000    62.724 Ry

* Maximum dynamic memory allocated =    10 MB

stepf: Fermi-Dirac step function

siesta: Program's energy decomposition (eV):
siesta: Eions   =      2012.511081
siesta: Ena     =       487.794817
siesta: Ekin    =       741.932135
siesta: Enl     =       -51.165545
siesta: DEna    =         0.000004
siesta: DUscf   =         0.000000
siesta: DUext   =         0.000000
siesta: Exc     =      -278.752525
siesta: eta*DQ  =         0.000000
siesta: Emadel  =         0.000000
siesta: Emeta   =         0.000000
siesta: Emolmec =         0.000000
siesta: Ekinion =         0.000000
siesta: Eharris =     -1122.280180
siesta: Etot    =     -1112.702194
siesta: FreeEng =     -1112.702194

siesta: Eharris(eV) =   -1122.280180


siesta: Eharris(eV) =   -1122.280180

timer: Routine,Calls,Time,% = IterSCF        1       7.818  70.01
elaps: Routine,Calls,Wall,% = IterSCF        1       7.818  70.01

siesta: E_KS - E_eggbox =     -1115.2952

zmatrix: Atomic forces (eV/Ang ; eV/deg )
zmatrix: (No information if symbols are used)
molecule    1 (     3 atoms)
     1    0.000000    0.000000    0.000000
     2    0.000000    0.000000    0.000000
     3    0.000000    0.000000    0.000000
molecule    2 (     3 atoms)
     4    0.000000    0.000000    0.000000
     5    0.000000    0.000000    0.000000
     6    0.000000    0.000000    0.000000
cartesian    1 (     2 atoms)
     7    0.000000    0.000000    0.000000
     8    0.000000    0.000000    0.000000


Variable forces (eV/Ang ; eV/deg )
 x          -0.445586114679853     
 y          -0.345302760616367     
 z           0.725293777465483     
 theta      -2.250747833183218E-004
 phi        -2.274211047383613E-004
 tau        -3.677053163050007E-004
 x2         -4.718130825860384E-002
 y2          0.219656843506374     
 z2         -4.100436231210506E-002
 six          66.8049691093401     

siesta: Atomic forces (eV/Ang):
     1   -0.437009    0.585047    0.700235
     2   -0.061189   -0.503466   -0.000422
     3    0.052612   -0.426883    0.025482
     4   -0.019588    1.197295   -0.057598
     5   -0.066877   -0.458368    0.019386
     6    0.039283   -0.519270   -0.002793
     7   32.601963   66.804969   35.168437
     8  -32.537613  -66.770262  -35.130341
----------------------------------------
   Tot   -0.428418   -0.090939    0.722385
----------------------------------------
   Max   66.804969
   Res   23.732103    sqrt( Sum f_i^2 / 3N )
----------------------------------------
   Max   66.804969    constrained

Stress-tensor-Voigt (kbar):       -7.65     -176.64      -25.13     -107.78     -116.52      -56.68
Target enthalpy (eV/cell)    -1115.2952

* Maximum dynamic memory allocated =    10 MB

siesta:                 ==============================
                            Begin CG move =      1
                        ==============================

zmatrix: Z-matrix coordinates: (Ang ; deg )
zmatrix: (Fractional coordinates have been converted to cartesian)
molecule    1 (     3 atoms)
      0.09929408      0.10945296      0.12114904
      0.95699700     89.99581985     36.99577627
      0.95699700    104.00000000     89.99317087
molecule    2 (     3 atoms)
      4.74992525      6.25034799      4.94993504
      0.95699700     89.99581985     36.99577627
      0.95699700    104.00000000     89.99317087
cartesian block    1 (     2 atoms)
      7.62500000     10.50583540      7.96500000
      7.12500000      9.37500000      7.42500000


Z-matrix Symbol Section -------
Variables
 x           9.929408268111908E-002
 y           0.109452956025904     
 z           0.121149042624807     
 theta        89.9958198451145     
 phi          36.9957762685449     
 tau          89.9931708690253     
 x2          0.499989074122529     
 y2          0.500050102392199     
 z2          0.499987609099003     
 six         0.863860576239476     
Constants
 ho1         0.956997000000000     
 ho2         0.956997000000000     
 hoh          104.000000000000     
 siz         0.750000000000000     
------------ End of Z-matrix Information


outcell: Unit cell vectors (Ang):
        8.000000    2.000000    1.000000
        0.500000    8.000000    0.900000
        1.000000    2.500000    8.000000

outcell: Cell vector modules (Ang)   :    8.306624    8.065978    8.440972
outcell: Cell angles (23,13,12) (deg):     65.9931     72.5722     71.8241
outcell: Cell volume (Ang**3)        :    481.0500

siesta: Eharris(eV) =   -1128.597469


siesta: Eharris(eV) =   -1128.597469


zmatrix: Atomic forces (eV/Ang ; eV/deg )
zmatrix: (No information if symbols are used)
molecule    1 (     3 atoms)
     1    0.000000    0.000000    0.000000
     2    0.000000    0.000000    0.000000
     3    0.000000    0.000000    0.000000
molecule    2 (     3 atoms)
     4    0.000000    0.000000    0.000000
     5    0.000000    0.000000    0.000000
     6    0.000000    0.000000    0.000000
cartesian    1 (     2 atoms)
     7    0.000000    0.000000    0.000000
     8    0.000000    0.000000    0.000000


Variable forces (eV/Ang ; eV/deg )
 x          -0.473089666266721     
 y          -0.346292902299712     
 z           0.712386089095279     
 theta      -1.531072825338911E-004
 phi        -3.062682867597774E-004
 tau        -4.346056262374389E-004
 x2         -3.818810088157876E-002
 y2          0.192830482134389     
 z2         -4.072359457847247E-002
 six          52.6888558181092     

siesta: Atomic forces (eV/Ang):
     1   -0.466033    0.571988    0.687099
     2   -0.054162   -0.500989   -0.003401
     3    0.047105   -0.417292    0.028688
     4   -0.008511    1.170397   -0.057646
     5   -0.067632   -0.458126    0.018925
     6    0.037955   -0.519440   -0.002003
     7   23.316003   52.688856   25.146535
     8  -23.244010  -52.638366  -25.096435
----------------------------------------
   Tot   -0.439284   -0.102972    0.721762
----------------------------------------
   Max   52.688856
   Res   18.138724    sqrt( Sum f_i^2 / 3N )
----------------------------------------
   Max   52.688856    constrained

Stress-tensor-Voigt (kbar):        8.07     -145.97       -6.82      -84.12      -90.93      -39.93
Target enthalpy (eV/cell)    -1121.5300

* Maximum dynamic memory allocated =    10 MB

siesta:                 ==============================
                            Begin CG move =      2
                        ==============================

zmatrix: Z-matrix coordinates: (Ang ; deg )
zmatrix: (Fractional coordinates have been converted to cartesian)
molecule    1 (     3 atoms)
      0.09858817      0.10890591      0.12229809
      0.95699700     89.99163969     36.99155254
      0.95699700    104.00000000     89.98634174
molecule    2 (     3 atoms)
      4.74985051      6.25069598      4.94987008
      0.95699700     89.99163969     36.99155254
      0.95699700    104.00000000     89.98634174
cartesian block    1 (     2 atoms)
      7.62500000     10.61167080      7.96500000
      7.12500000      9.37500000      7.42500000


Z-matrix Symbol Section -------
Variables
 x           9.858816536223816E-002
 y           0.108905912051808     
 z           0.122298085249615     
 theta        89.9916396902289     
 phi          36.9915525370897     
 tau          89.9863417380504     
 x2          0.499978148245059     
 y2          0.500100204784397     
 z2          0.499975218198005     
 six         0.877721152478952     
Constants
 ho1         0.956997000000000     
 ho2         0.956997000000000     
 hoh          104.000000000000     
 siz         0.750000000000000     
------------ End of Z-matrix Information


outcell: Unit cell vectors (Ang):
        8.000000    2.000000    1.000000
        0.500000    8.000000    0.900000
        1.000000    2.500000    8.000000

outcell: Cell vector modules (Ang)   :    8.306624    8.065978    8.440972
outcell: Cell angles (23,13,12) (deg):     65.9931     72.5722     71.8241
outcell: Cell volume (Ang**3)        :    481.0500

siesta: Eharris(eV) =   -1133.484807


siesta: Eharris(eV) =   -1133.484807


zmatrix: Atomic forces (eV/Ang ; eV/deg )
zmatrix: (No information if symbols are used)
molecule    1 (     3 atoms)
     1    0.000000    0.000000    0.000000
     2    0.000000    0.000000    0.000000
     3    0.000000    0.000000    0.000000
molecule    2 (     3 atoms)
     4    0.000000    0.000000    0.000000
     5    0.000000    0.000000    0.000000
     6    0.000000    0.000000    0.000000
cartesian    1 (     2 atoms)
     7    0.000000    0.000000    0.000000
     8    0.000000    0.000000    0.000000


Variable forces (eV/Ang ; eV/deg )
 x          -0.502429834985903     
 y          -0.342050828021578     
 z           0.717525871506745     
 theta      -6.470918659957597E-005
 phi        -2.786676595255573E-004
 tau        -5.026374005853673E-004
 x2         -3.195019897705544E-002
 y2          0.166063672984368     
 z2         -4.147440629159881E-002
 six          39.9199688629431     

siesta: Atomic forces (eV/Ang):
     1   -0.497953    0.564558    0.692841
     2   -0.045138   -0.494236   -0.007121
     3    0.040661   -0.412372    0.031806
     4   -0.000114    1.143487   -0.058662
     5   -0.068251   -0.457921    0.018240
     6    0.036415   -0.519502   -0.001053
     7   16.171225   39.919969   17.425734
     8  -16.098097  -39.874472  -17.381258
----------------------------------------
   Tot   -0.461252   -0.130490    0.720528
----------------------------------------
   Max   39.919969
   Res   13.405940    sqrt( Sum f_i^2 / 3N )
----------------------------------------
   Max   39.919969    constrained

Stress-tensor-Voigt (kbar):       19.93     -111.61        6.93      -62.97      -68.07      -27.15
Target enthalpy (eV/cell)    -1126.3906

* Maximum dynamic memory allocated =    10 MB

siesta:                 ==============================
                            Begin CG move =      3
                        ==============================

zmatrix: Z-matrix coordinates: (Ang ; deg )
zmatrix: (Fractional coordinates have been converted to cartesian)
molecule    1 (     3 atoms)
      0.09788225      0.10835887      0.12344713
      0.95699700     89.98745954     36.98732881
      0.95699700    104.00000000     89.97951261
molecule    2 (     3 atoms)
      4.74977576      6.25104397      4.94980512
      0.95699700     89.98745954     36.98732881
      0.95699700    104.00000000     89.97951261
cartesian block    1 (     2 atoms)
      7.62500000     10.71750620      7.96500000
      7.12500000      9.37500000      7.42500000


Z-matrix Symbol Section -------
Variables
 x           9.788224804335724E-002
 y           0.108358868077712     
 z           0.123447127874422     
 theta        89.9874595353433     
 phi          36.9873288056346     
 tau          89.9795126070755     
 x2          0.499967222367589     
 y2          0.500150307176595     
 z2          0.499962827297008     
 six         0.891581728718428     
Constants
 ho1         0.956997000000000     
 ho2         0.956997000000000     
 hoh          104.000000000000     
 siz         0.750000000000000     
------------ End of Z-matrix Information


outcell: Unit cell vectors (Ang):
        8.000000    2.000000    1.000000
        0.500000    8.000000    0.900000
        1.000000    2.500000    8.000000

outcell: Cell vector modules (Ang)   :    8.306624    8.065978    8.440972
outcell: Cell angles (23,13,12) (deg):     65.9931     72.5722     71.8241
outcell: Cell volume (Ang**3)        :    481.0500

siesta: Eharris(eV) =   -1137.109827


siesta: Eharris(eV) =   -1137.109827


zmatrix: Atomic forces (eV/Ang ; eV/deg )
zmatrix: (No information if symbols are used)
molecule    1 (     3 atoms)
     1    0.000000    0.000000    0.000000
     2    0.000000    0.000000    0.000000
     3    0.000000    0.000000    0.000000
molecule    2 (     3 atoms)
     4    0.000000    0.000000    0.000000
     5    0.000000    0.000000    0.000000
     6    0.000000    0.000000    0.000000
cartesian    1 (     2 atoms)
     7    0.000000    0.000000    0.000000
     8    0.000000    0.000000    0.000000


Variable forces (eV/Ang ; eV/deg )
 x          -0.527898582366319     
 y          -0.335417198707497     
 z           0.709550460398577     
 theta       2.633042174440761E-005
 phi        -2.837877393180848E-004
 tau        -5.534550166623961E-004
 x2         -2.562673581601043E-002
 y2          0.140744469883329     
 z2         -4.189866276315503E-002
 six          28.8982755566006     

siesta: Atomic forces (eV/Ang):
     1   -0.525777    0.559182    0.686482
     2   -0.036183   -0.488639   -0.010691
     3    0.034061   -0.405960    0.033760
     4    0.008471    1.117883   -0.058892
     5   -0.068807   -0.457700    0.016992
     6    0.034709   -0.519438    0.000001
     7   10.807144   28.898276   11.634011
     8  -10.726318  -28.843458  -11.581114
----------------------------------------
   Tot   -0.472700   -0.139855    0.720549
----------------------------------------
   Max   28.898276
   Res    9.512234    sqrt( Sum f_i^2 / 3N )
----------------------------------------
   Max   28.898276    constrained

Stress-tensor-Voigt (kbar):       28.66      -76.40       17.08      -44.72      -48.35      -17.51
Target enthalpy (eV/cell)    -1130.0450

* Maximum dynamic memory allocated =    10 MB

siesta:                 ==============================
                            Begin CG move =      4
                        ==============================

zmatrix: Z-matrix coordinates: (Ang ; deg )
zmatrix: (Fractional coordinates have been converted to cartesian)
molecule    1 (     3 atoms)
      0.09717633      0.10781182      0.12459617
      0.95699700     89.98327938     36.98310507
      0.95699700    104.00000000     89.97268348
molecule    2 (     3 atoms)
      4.74970101      6.25139196      4.94974016
      0.95699700     89.98327938     36.98310507
      0.95699700    104.00000000     89.97268348
cartesian block    1 (     2 atoms)
      7.62500000     10.82334160      7.96500000
      7.12500000      9.37500000      7.42500000


Z-matrix Symbol Section -------
Variables
 x           9.717633072447630E-002
 y           0.107811824103616     
 z           0.124596170499229     
 theta        89.9832793804577     
 phi          36.9831050741794     
 tau          89.9726834761007     
 x2          0.499956296490118     
 y2          0.500200409568794     
 z2          0.499950436396011     
 six         0.905442304957904     
Constants
 ho1         0.956997000000000     
 ho2         0.956997000000000     
 hoh          104.000000000000     
 siz         0.750000000000000     
------------ End of Z-matrix Information


outcell: Unit cell vectors (Ang):
        8.000000    2.000000    1.000000
        0.500000    8.000000    0.900000
        1.000000    2.500000    8.000000

outcell: Cell vector modules (Ang)   :    8.306624    8.065978    8.440972
outcell: Cell angles (23,13,12) (deg):     65.9931     72.5722     71.8241
outcell: Cell volume (Ang**3)        :    481.0500

siesta: Eharris(eV) =   -1139.674377


siesta: Eharris(eV) =   -1139.674377


zmatrix: Atomic forces (eV/Ang ; eV/deg )
zmatrix: (No information if symbols are used)
molecule    1 (     3 atoms)
     1    0.000000    0.000000    0.000000
     2    0.000000    0.000000    0.000000
     3    0.000000    0.000000    0.000000
molecule    2 (     3 atoms)
     4    0.000000    0.000000    0.000000
     5    0.000000    0.000000    0.000000
     6    0.000000    0.000000    0.000000
cartesian    1 (     2 atoms)
     7    0.000000    0.000000    0.000000
     8    0.000000    0.000000    0.000000


Variable forces (eV/Ang ; eV/deg )
 x          -0.552022720132061     
 y          -0.324770423738261     
 z           0.704923557212126     
 theta       1.491403347214984E-004
 phi        -3.301978206578888E-004
 tau        -6.337660200616058E-004
 x2         -2.043714358582832E-002
 y2          0.115527924707609     
 z2         -4.336307703379080E-002
 six          19.8519465966485     

siesta: Atomic forces (eV/Ang):
     1   -0.552257    0.554407    0.682514
     2   -0.026705   -0.482919   -0.015035
     3    0.026939   -0.396259    0.037444
     4    0.015954    1.092181   -0.059569
     5   -0.069216   -0.457416    0.015058
     6    0.032825   -0.519236    0.001149
     7    6.907314   19.851947    7.418519
     8   -6.828221  -19.804880   -7.370781
----------------------------------------
   Tot   -0.493366   -0.162176    0.709298
----------------------------------------
   Max   19.851947
   Res    6.432938    sqrt( Sum f_i^2 / 3N )
----------------------------------------
   Max   19.851947    constrained

Stress-tensor-Voigt (kbar):       34.61      -43.59       24.08      -30.00      -32.42      -10.62
Target enthalpy (eV/cell)    -1132.6893

* Maximum dynamic memory allocated =    10 MB

outcoor: Final (unrelaxed) atomic coordinates (Bohr):       
    0.18230273    0.20270114    0.23762411   1       1  O
    1.62700643    1.29052881    0.23828381   2       2  H
   -1.22271745    1.34132124    0.23851026   2       3  H
    8.97549641   11.81408102    9.35353425   1       4  O
   10.42020011   12.90190869    9.35419396   2       5  H
    7.57047623   12.95270112    9.35442040   2       6  H
   14.40916744   20.65315953   15.05167458   3       7  Si
   13.46430400   17.71618948   14.03122207   3       8  Si

zmatrix: Z-matrix coordinates: (Ang ; deg )
zmatrix: (Fractional coordinates have been converted to cartesian)
molecule    1 (     3 atoms)
      0.09647041      0.10726478      0.12574521
      0.95699700     89.97909923     36.97888134
      0.95699700    104.00000000     89.96585435
molecule    2 (     3 atoms)
      4.74962627      6.25173995      4.94967520
      0.95699700     89.97909923     36.97888134
      0.95699700    104.00000000     89.96585435
cartesian block    1 (     2 atoms)
      7.62500000     10.92917700      7.96500000
      7.12500000      9.37500000      7.42500000


Z-matrix Symbol Section -------
Variables
 x           9.647041340559538E-002
 y           0.107264780129520     
 z           0.125745213124037     
 theta        89.9790992255721     
 phi          36.9788813427243     
 tau          89.9658543451258     
 x2          0.499945370612647     
 y2          0.500250511960992     
 z2          0.499938045495013     
 six         0.919302881197380     
Constants
 ho1         0.956997000000000     
 ho2         0.956997000000000     
 hoh          104.000000000000     
 siz         0.750000000000000     
------------ End of Z-matrix Information


siesta: Program's energy decomposition (eV):
siesta: Eions   =      2012.511081
siesta: Ena     =       480.474013
siesta: Ekin    =       850.756536
siesta: Enl     =      -104.045251
siesta: DEna    =       -57.487140
siesta: DUscf   =         9.145990
siesta: DUext   =         0.000000
siesta: Exc     =      -299.022333
siesta: eta*DQ  =         0.000000
siesta: Emadel  =         0.000000
siesta: Emeta   =         0.000000
siesta: Emolmec =         0.000000
siesta: Ekinion =         0.000000
siesta: Eharris =     -1139.674377
siesta: Etot    =     -1132.689266
siesta: FreeEng =     -1132.689266

siesta: Final energy (eV):
siesta:       Kinetic =     850.756536
siesta:       Hartree =     880.171427
siesta:    Ext. field =       0.000000
siesta:   Exch.-corr. =    -299.022333
siesta:  Ion-electron =   -2440.007257
siesta:       Ion-ion =    -124.587640
siesta:       Ekinion =       0.000000
siesta:         Total =   -1132.689266

siesta: Atomic forces (eV/Ang):
siesta:      1   -0.552257    0.554407    0.682514
siesta:      2   -0.026705   -0.482919   -0.015035
siesta:      3    0.026939   -0.396259    0.037444
siesta:      4    0.015954    1.092181   -0.059569
siesta:      5   -0.069216   -0.457416    0.015058
siesta:      6    0.032825   -0.519236    0.001149
siesta:      7    6.907314   19.851947    7.418519
siesta:      8   -6.828221  -19.804880   -7.370781
siesta: ----------------------------------------
siesta:    Tot   -0.493366   -0.162176    0.709298

siesta: Stress tensor (static) (eV/Ang**3):
siesta:     0.021603   -0.018725   -0.006630
siesta:    -0.018725   -0.027208   -0.020236
siesta:    -0.006630   -0.020236    0.015030

siesta: Cell volume =        481.050000 Ang**3

siesta: Pressure (static):
siesta:                Solid            Molecule  Units
siesta:          -0.00003422         -0.00032713  Ry/Bohr**3
siesta:          -0.00314174         -0.03003640  eV/Ang**3
siesta:          -5.03367033        -48.12414618  kBar

* Maximum dynamic memory allocated : Node    0 =    10 MB

* Maximum memory occured during poison                        

timer: CPU execution times:
timer:  Routine       Calls   Time/call    Tot.time        %
timer:  siesta            1      19.496      19.496   100.00
timer:  Setup             1       0.978       0.978     5.02
timer:  bands             1       0.001       0.001     0.01
timer:  writewave         1       0.000       0.000     0.00
timer:  KSV_init          1       0.000       0.000     0.00
timer:  IterMD            5       3.702      18.512    94.95
timer:  hsparse           6       0.035       0.210     1.08
timer:  overfsm          10       0.249       2.486    12.75
timer:  IterSCF          10       1.589      15.891    81.51
timer:  kinefsm          10       0.242       2.420    12.41
timer:  nlefsm           10       0.512       5.117    26.25
timer:  DHSCF            10       0.817       8.174    41.93
timer:  DHSCF1            1       0.108       0.108     0.55
timer:  DHSCF2            5       0.567       2.834    14.53
timer:  REORD            90       0.000       0.023     0.12
timer:  POISON           15       0.020       0.298     1.53
timer:  DHSCF3           10       0.247       2.470    12.67
timer:  rhoofd           10       0.083       0.830     4.26
timer:  cellXC           15       0.035       0.522     2.68
timer:  vmat             10       0.103       1.034     5.30
timer:  diagon            5       0.009       0.046     0.24
timer:  rdiag             5       0.009       0.043     0.22
timer:  rdiag1            5       0.001       0.003     0.02
timer:  rdiag2            5       0.001       0.005     0.03
timer:  rdiag3            5       0.006       0.030     0.15
timer:  rdiag4            5       0.001       0.003     0.02
timer:  MolMec           10       0.000       0.000     0.00
timer:  DHSCF4            5       0.552       2.758    14.14
timer:  dfscf             5       0.455       2.273    11.66
timer:  optical           1       0.001       0.001     0.01
  

elaps: ELAPSED times:
elaps:  Routine       Calls   Time/call    Tot.time        %
elaps:  siesta            1      19.495      19.495   100.00
elaps:  Setup             1       0.978       0.978     5.02
elaps:  bands             1       0.000       0.000     0.00
elaps:  writewave         1       0.000       0.000     0.00
elaps:  KSV_init          1       0.000       0.000     0.00
elaps:  IterMD            5       3.702      18.511    94.95
elaps:  hsparse           6       0.035       0.210     1.08
elaps:  overfsm          10       0.249       2.487    12.76
elaps:  IterSCF          10       1.589      15.889    81.50
elaps:  kinefsm          10       0.242       2.421    12.42
elaps:  nlefsm           10       0.512       5.119    26.26
elaps:  DHSCF            10       0.817       8.173    41.92
elaps:  DHSCF1            1       0.108       0.108     0.55
elaps:  DHSCF2            5       0.567       2.833    14.53
elaps:  REORD            90       0.000       0.024     0.12
elaps:  POISON           15       0.020       0.297     1.52
elaps:  DHSCF3           10       0.247       2.469    12.66
elaps:  rhoofd           10       0.083       0.830     4.26
elaps:  cellXC           15       0.035       0.522     2.68
elaps:  vmat             10       0.103       1.031     5.29
elaps:  diagon            5       0.009       0.045     0.23
elaps:  rdiag             5       0.008       0.041     0.21
elaps:  rdiag1            5       0.001       0.003     0.01
elaps:  rdiag2            5       0.001       0.005     0.03
elaps:  rdiag3            5       0.006       0.030     0.15
elaps:  rdiag4            5       0.001       0.003     0.02
elaps:  MolMec           10       0.000       0.000     0.00
elaps:  DHSCF4            5       0.552       2.758    14.15
elaps:  dfscf             5       0.454       2.272    11.65
elaps:  optical           1       0.000       0.000     0.00
  
>> End of run:  25-JAN-2007  18:02:12
