SIESTA 1.0.30 -- [arch.make compilation] (May 16, 2000)
Architecture  : osfdxml
Compiler flags: f90 -fast -tune host
SERIAL version

* Running in serial mode
>> Start of run:  16-MAY-2000   0:03:51

                           ***********************       
                           *  WELCOME TO SIESTA  *       
                           ***********************       
Reading from standard input...

*: ****************** Dump of input data file ****************************
SystemName          Water molecule, using order-N method
SystemLabel         h2o
NumberOfAtoms       3
NumberOfSpecies     2
%block ChemicalSpeciesLabel
 1  8  O      # Species index, atomic number, species label
 2  1  H
%endblock ChemicalSpeciesLabel
AtomicCoordinatesFormat  Ang
%block AtomicCoordinatesAndAtomicSpecies
 0.000  0.000  0.000  1
 0.757  0.586  0.000  2
-0.757  0.586  0.000  2
%endblock AtomicCoordinatesAndAtomicSpecies
SolutionMethod   ordern
*: ****************** End of input data file *****************************

redata: ****************** Simulation parameters ******************************
redata:
redata: The following are some of the parameters of the simulation.
redata: A complete list of the parameters used, including defect values,
redata: can be found in file out.fdf             
redata:
redata: -----------------------------------------------------------------------
redata: System Name: Water molecule, using order-N method                       
redata: -----------------------------------------------------------------------
redata: System Label                     =     h2o                 
redata: Number of Atoms                  =     3
redata: Number of spin components        =     1
redata: Long output                      =     F
redata: Number of Atomic Species         =     2
redata: Dump information for DENCHAR     =     F
redata: Write Mulliken Pop.              =     NO
redata: Mesh Cutoff                      =    50.0000  Ry
redata: Net charge of the system         =     0.0000 |e|
redata: Max. number of SCF Iter          =    50
redata: Mixing is linear
redata: Mix DM in first SCF step ?       =     F
redata: Write Pulay info on disk?       =     F
redata: New DM Mixing Weight             =     0.2500
redata: No kicks to SCF
redata: DM Mixing Weight for Kicks       =     0.5000
redata: DM Tolerance for SCF             =     0.000100
redata: Use continuation files for DM    =     F
redata: Neglect nonoverlap interactions  =     F
redata: Method of Calculation            = Order-N
redata: Fix the spin of the system       =     F
redata: Maximum number of iterations     =  1000
redata: Relative tolerance               =     0.10D-07
redata: Eta (Fermi level parameter)      =     0.0000  Ry
redata: Radius of LWFs                   =     9.5000  Bohr
redata: Use continuation files for LWF   =     F
redata: Method to build LWFs             =     kim          
redata: Dynamics option                  =     Verlet MD run
redata: Initial MD time step             =     1
redata:   Final MD time step             =     1
redata: Length of MD time step           =     1.0000  fs
redata: Length of MD time step           =     1.0000  fs
redata: Initial Temperature of MD run    =     0.0000  K
redata: Perform a MD quench              =     F
recoor: Atomic-coordinates input format  =     Cartesian coordinates
recoor:                                        (in Angstroms)
redata: ***********************************************************************

siesta: Atomic coordinates (Bohr) and species
siesta:      0.00000   0.00000   0.00000  1      1
siesta:      1.43052   1.10738   0.00000  2      2
siesta:     -1.43052   1.10738   0.00000  2      3

initatom: Reading input for the pseudopotentials and atomic orbitals
rechemsp: Read atomic number and label for species   1 as    8  O
rechemsp: Read atomic number and label for species   2 as    1  H

ATOM: *************************************************************************
ATOM: Called for O   (Z =   8)

read_vps: Pseudopotential generation method:
read_vps: ATM3      Troullier-Martins                       

read_vps: Valence configuration (pseudopotential and basis set generation):
 2s( 2.00)
 2p( 4.00)
 3d( 0.00)
 4f( 0.00)

xc_check: Exchange-correlation functional:
xc_check: Ceperley-Alder

VLOCAL1: 99.0% of the norm of Vloc inside     34.126 Ry
VLOCAL1: 99.9% of the norm of Vloc inside     77.774 Ry
ATOM: Maximum radius for local-pseudopot. charge    1.37759
GHOST: No ghost state for L =  0
GHOST: No ghost state for L =  1
GHOST: No ghost state for L =  2
GHOST: No ghost state for L =  3

KBgen: Kleinman-Bylander projectors: 
   l= 0   rc=  1.294105   el= -1.742414   Ekb=  9.135903   kbcos=  0.326910
   l= 1   rc=  1.294105   el= -0.676589   Ekb= -8.124878   kbcos= -0.395047
   l= 2   rc=  1.448233   el=  0.002386   Ekb= -2.039267   kbcos= -0.003484
   l= 3   rc=  1.561052   el=  0.003508   Ekb= -0.799141   kbcos= -0.000344

KBgen: Total number of  Kleinman-Bylander projectors:   16
ATOM: -------------------------------------------------------------------------

ATOM: SANKEY-TYPE ORBITALS:
ATOM: Selected multiple-zeta basis: split     

SPLIT: Orbitals with angular momentum L= 0

SPLIT: Basis orbitals for state 2s

SPLIT: PAO cut-off radius determinated from an
SPLIT: energy shift=  0.020000 Ry

   izeta = 1
                 lambda =    1.000000
                     rc =    3.305093
                 energy =   -1.723766
                kinetic =    1.614911
    potential(screened) =   -3.338677
       potential(ionic) =  -11.304675

   izeta = 2
                 rmatch =    2.510382
              splitnorm =    0.150000
                 energy =   -1.471081
                kinetic =    2.446738
    potential(screened) =   -3.917818
       potential(ionic) =  -12.476310

SPLIT: Orbitals with angular momentum L= 1

SPLIT: Basis orbitals for state 2p

SPLIT: PAO cut-off radius determinated from an
SPLIT: energy shift=  0.020000 Ry

   izeta = 1
                 lambda =    1.000000
                     rc =    3.937239
                 energy =   -0.658841
                kinetic =    5.005986
    potential(screened) =   -5.664827
       potential(ionic) =  -13.452360

   izeta = 2
                 rmatch =    2.541963
              splitnorm =    0.150000
                 energy =   -0.367387
                kinetic =    7.530138
    potential(screened) =   -7.897525
       potential(ionic) =  -16.611418

POLgen: Perturbative polarization orbital with L=  2

POLgen: Polarization orbital for state 2p

   izeta = 1
                     rc =    3.937239
                 energy =    2.398520
                kinetic =    4.716729
    potential(screened) =   -2.318209
       potential(ionic) =   -8.603170
ATOM: Total number of Sankey-type orbitals: 13

atm_pop: Valence configuration(local Pseudopot. screening):
 2s( 2.00)                                                            
 2p( 4.00)                                                            

Vna:  Cut-off radius for the neutral-atom potential:   3.937239
ATOM: Called for H   (Z =   1)

read_vps: Pseudopotential generation method:
read_vps: ATM3      Troullier-Martins                       

read_vps: Valence configuration (pseudopotential and basis set generation):
 1s( 1.00)
 2p( 0.00)
 3d( 0.00)

xc_check: Exchange-correlation functional:
xc_check: Ceperley-Alder

VLOCAL1: 99.0% of the norm of Vloc inside     28.493 Ry
VLOCAL1: 99.9% of the norm of Vloc inside     64.935 Ry
ATOM: Maximum radius for local-pseudopot. charge    1.45251
GHOST: No ghost state for L =  0
GHOST: No ghost state for L =  1
GHOST: No ghost state for L =  2

KBgen: Kleinman-Bylander projectors: 
   l= 0   rc=  1.364359   el= -0.467325   Ekb= -2.005361   kbcos= -0.336422
   l= 1   rc=  1.434438   el=  0.001430   Ekb= -0.501708   kbcos= -0.021697
   l= 2   rc=  1.470814   el=  0.002365   Ekb= -0.190555   kbcos= -0.002281

KBgen: Total number of  Kleinman-Bylander projectors:    9
ATOM: -------------------------------------------------------------------------

ATOM: SANKEY-TYPE ORBITALS:
ATOM: Selected multiple-zeta basis: split     

SPLIT: Orbitals with angular momentum L= 0

SPLIT: Basis orbitals for state 1s

SPLIT: PAO cut-off radius determinated from an
SPLIT: energy shift=  0.020000 Ry

   izeta = 1
                 lambda =    1.000000
                     rc =    4.828263
                 energy =   -0.449375
                kinetic =    0.929372
    potential(screened) =   -1.378747
       potential(ionic) =   -1.915047

   izeta = 2
                 rmatch =    3.854947
              splitnorm =    0.150000
                 energy =   -0.335649
                kinetic =    1.505971
    potential(screened) =   -1.841620
       potential(ionic) =   -2.413776

POLgen: Perturbative polarization orbital with L=  1

POLgen: Polarization orbital for state 1s

   izeta = 1
                     rc =    4.828263
                 energy =    0.706972
                kinetic =    1.396397
    potential(screened) =   -0.689424
       potential(ionic) =   -1.169792
ATOM: Total number of Sankey-type orbitals:  5

atm_pop: Valence configuration(local Pseudopot. screening):
 1s( 1.00)                                                            

Vna:  Cut-off radius for the neutral-atom potential:   4.828263

prinput: ************************* Basis input ********************************

PAO.BasisType split     

%block ChemicalSpeciesLabel
   1   8 O     # Species index, atomic number, species label
   2   1 H     # Species index, atomic number, species label
%endblock ChemicalSpeciesLabel

%block PAO.Basis                 # Define Basis set
        O   2                    # Species label, number of l-shells
 n=2   0   2                         # n, l, Nzeta 
   3.305      2.510   
   1.000      1.000   
 n=2   1   2 P   1                   # n, l, Nzeta, Polarization, NzetaPol
   3.937      2.542   
   1.000      1.000   
        H   1                    # Species label, number of l-shells
 n=1   0   2 P   1                   # n, l, Nzeta, Polarization, NzetaPol
   4.828      3.855   
   1.000      1.000   
%endblock PAO.Basis

prinput: **********************************************************************

ATOM: *************************************************************************

siesta: Automatic unit cell vectors (Ang):
siesta:    7.286412    0.000000    0.000000
siesta:    0.000000    5.746952    0.000000
siesta:    0.000000    0.000000    5.621012

siesta: System type = molecule  


* Maximum dynamic memory allocated =     5 MB

siesta:    ===============================
siesta:        Begin MD step =      1
siesta:    ===============================

DHSCF: MESH =    32 x    30 x    24 =       23040
DHSCF: Mesh cutoff (required, used) =    50.000    50.384 Ry


* Maximum dynamic memory allocated =     7 MB

ordern: enum =      8.0000

ordern: ioptlwf =  1
cgwf: iter =    1      grad =        -400.709952      Eb(Ry) =      -0.772334
cgwf: iter =    2      grad =         -21.822178      Eb(Ry) =      -2.908658
cgwf: iter =    3      grad =         -12.245129      Eb(Ry) =      -3.371746
cgwf: iter =    4      grad =          -8.119138      Eb(Ry) =      -3.649450
cgwf: iter =    5      grad =         -12.183489      Eb(Ry) =      -3.877333
cgwf: iter =    6      grad =         -10.366603      Eb(Ry) =      -4.149655
cgwf: iter =    7      grad =          -1.874883      Eb(Ry) =      -4.312419
cgwf: iter =    8      grad =          -0.902737      Eb(Ry) =      -4.350464
cgwf: iter =    9      grad =          -0.567349      Eb(Ry) =      -4.367991
cgwf: iter =   10      grad =          -0.268926      Eb(Ry) =      -4.381120
cgwf: iter =   11      grad =          -0.243597      Eb(Ry) =      -4.398352
cgwf: iter =   12      grad =          -0.245606      Eb(Ry) =      -4.406191
cgwf: iter =   13      grad =          -0.306201      Eb(Ry) =      -4.418448
cgwf: iter =   14      grad =          -0.177644      Eb(Ry) =      -4.423427
cgwf: iter =   15      grad =          -0.079220      Eb(Ry) =      -4.430158
cgwf: iter =   16      grad =          -0.219915      Eb(Ry) =      -4.437207
cgwf: iter =   17      grad =          -0.219967      Eb(Ry) =      -4.444406
cgwf: iter =   18      grad =          -0.245725      Eb(Ry) =      -4.449424
cgwf: iter =   19      grad =          -0.123105      Eb(Ry) =      -4.459360
cgwf: iter =   20      grad =          -0.137061      Eb(Ry) =      -4.464420
cgwf: iter =   21      grad =          -0.162982      Eb(Ry) =      -4.468653
cgwf: iter =   22      grad =          -0.162300      Eb(Ry) =      -4.473080
cgwf: iter =   23      grad =          -0.092140      Eb(Ry) =      -4.477945
cgwf: iter =   24      grad =          -0.066760      Eb(Ry) =      -4.481718
cgwf: iter =   25      grad =          -0.032660      Eb(Ry) =      -4.482776
cgwf: iter =   26      grad =          -0.047079      Eb(Ry) =      -4.484037
cgwf: iter =   27      grad =          -0.034994      Eb(Ry) =      -4.486371
cgwf: iter =   28      grad =          -0.069755      Eb(Ry) =      -4.487558
cgwf: iter =   29      grad =          -0.059488      Eb(Ry) =      -4.490025
cgwf: iter =   30      grad =          -0.026229      Eb(Ry) =      -4.491350
cgwf: iter =   31      grad =          -0.039467      Eb(Ry) =      -4.492778
cgwf: iter =   32      grad =          -0.042990      Eb(Ry) =      -4.493815
cgwf: iter =   33      grad =          -0.038394      Eb(Ry) =      -4.495038
cgwf: iter =   34      grad =          -0.038108      Eb(Ry) =      -4.496526
cgwf: iter =   35      grad =          -0.036019      Eb(Ry) =      -4.498254
cgwf: iter =   36      grad =          -0.026496      Eb(Ry) =      -4.498941
cgwf: iter =   37      grad =          -0.010976      Eb(Ry) =      -4.499714
cgwf: iter =   38      grad =          -0.018161      Eb(Ry) =      -4.500194
cgwf: iter =   39      grad =          -0.014867      Eb(Ry) =      -4.500768
cgwf: iter =   40      grad =          -0.009482      Eb(Ry) =      -4.501051
cgwf: iter =   41      grad =          -0.010331      Eb(Ry) =      -4.501507
cgwf: iter =   42      grad =          -0.011483      Eb(Ry) =      -4.501859
cgwf: iter =   43      grad =          -0.024567      Eb(Ry) =      -4.502329
cgwf: iter =   44      grad =          -0.014990      Eb(Ry) =      -4.502984
cgwf: iter =   45      grad =          -0.024592      Eb(Ry) =      -4.503861
cgwf: iter =   46      grad =          -0.020796      Eb(Ry) =      -4.504576
cgwf: iter =   47      grad =          -0.011281      Eb(Ry) =      -4.504982
cgwf: iter =   48      grad =          -0.007764      Eb(Ry) =      -4.505330
cgwf: iter =   49      grad =          -0.007844      Eb(Ry) =      -4.505649
cgwf: iter =   50      grad =          -0.005101      Eb(Ry) =      -4.505813
cgwf: iter =   51      grad =          -0.003830      Eb(Ry) =      -4.505948
cgwf: iter =   52      grad =          -0.001642      Eb(Ry) =      -4.506049
cgwf: iter =   53      grad =          -0.002996      Eb(Ry) =      -4.506137
cgwf: iter =   54      grad =          -0.000969      Eb(Ry) =      -4.506184
cgwf: iter =   55      grad =          -0.002007      Eb(Ry) =      -4.506236
cgwf: iter =   56      grad =          -0.002040      Eb(Ry) =      -4.506324
cgwf: iter =   57      grad =          -0.001900      Eb(Ry) =      -4.506371
cgwf: iter =   58      grad =          -0.001337      Eb(Ry) =      -4.506426
cgwf: iter =   59      grad =          -0.001564      Eb(Ry) =      -4.506479
cgwf: iter =   60      grad =          -0.002341      Eb(Ry) =      -4.506540
cgwf: iter =   61      grad =          -0.002940      Eb(Ry) =      -4.506610
cgwf: iter =   62      grad =          -0.001248      Eb(Ry) =      -4.506693
cgwf: iter =   63      grad =          -0.001535      Eb(Ry) =      -4.506745
cgwf: iter =   64      grad =          -0.001225      Eb(Ry) =      -4.506784
cgwf: iter =   65      grad =          -0.000573      Eb(Ry) =      -4.506808
cgwf: iter =   66      grad =          -0.000652      Eb(Ry) =      -4.506835
cgwf: iter =   67      grad =          -0.001443      Eb(Ry) =      -4.506865
cgwf: iter =   68      grad =          -0.000792      Eb(Ry) =      -4.506902
cgwf: iter =   69      grad =          -0.000390      Eb(Ry) =      -4.506918
cgwf: iter =   70      grad =          -0.000538      Eb(Ry) =      -4.506943
cgwf: iter =   71      grad =          -0.000515      Eb(Ry) =      -4.506955
cgwf: iter =   72      grad =          -0.000506      Eb(Ry) =      -4.506972
cgwf: iter =   73      grad =          -0.000427      Eb(Ry) =      -4.506991
cgwf: iter =   74      grad =          -0.000476      Eb(Ry) =      -4.507007
cgwf: iter =   75      grad =          -0.000315      Eb(Ry) =      -4.507016
cgwf: iter =   76      grad =          -0.000157      Eb(Ry) =      -4.507026
cgwf: iter =   77      grad =          -0.000208      Eb(Ry) =      -4.507032
cgwf: iter =   78      grad =          -0.000180      Eb(Ry) =      -4.507039
cgwf: iter =   79      grad =          -0.000097      Eb(Ry) =      -4.507042
cgwf: iter =   80      grad =          -0.000079      Eb(Ry) =      -4.507046
cgwf: iter =   81      grad =          -0.000050      Eb(Ry) =      -4.507048
cgwf: iter =   82      grad =          -0.000064      Eb(Ry) =      -4.507050
cgwf: iter =   83      grad =          -0.000042      Eb(Ry) =      -4.507052
cgwf: iter =   84      grad =          -0.000113      Eb(Ry) =      -4.507055
cgwf: iter =   85      grad =          -0.000091      Eb(Ry) =      -4.507058
cgwf: iter =   86      grad =          -0.000076      Eb(Ry) =      -4.507060
cgwf: iter =   87      grad =          -0.000090      Eb(Ry) =      -4.507063
cgwf: iter =   88      grad =          -0.000091      Eb(Ry) =      -4.507067
cgwf: iter =   89      grad =          -0.000055      Eb(Ry) =      -4.507069
cgwf: iter =   90      grad =          -0.000059      Eb(Ry) =      -4.507071
cgwf: iter =   91      grad =          -0.000027      Eb(Ry) =      -4.507073
cgwf: iter =   92      grad =          -0.000036      Eb(Ry) =      -4.507073
cgwf: iter =   93      grad =          -0.000013      Eb(Ry) =      -4.507074
cgwf: iter =   94      grad =          -0.000019      Eb(Ry) =      -4.507075
cgwf: iter =   95      grad =          -0.000013      Eb(Ry) =      -4.507075
cgwf: iter =   96      grad =          -0.000023      Eb(Ry) =      -4.507076
cgwf: iter =   97      grad =          -0.000022      Eb(Ry) =      -4.507077
cgwf: iter =   98      grad =          -0.000015      Eb(Ry) =      -4.507077
cgwf: iter =   99      grad =          -0.000028      Eb(Ry) =      -4.507078
cgwf: iter =  100      grad =          -0.000022      Eb(Ry) =      -4.507079
cgwf: iter =  101      grad =          -0.000016      Eb(Ry) =      -4.507080
cgwf: iter =  102      grad =          -0.000020      Eb(Ry) =      -4.507080
cgwf: iter =  103      grad =          -0.000012      Eb(Ry) =      -4.507081
cgwf: iter =  104      grad =          -0.000009      Eb(Ry) =      -4.507081
cgwf: iter =  105      grad =          -0.000005      Eb(Ry) =      -4.507081
cgwf: iter =  106      grad =          -0.000005      Eb(Ry) =      -4.507081
cgwf: iter =  107      grad =          -0.000007      Eb(Ry) =      -4.507082
cgwf: iter =  108      grad =          -0.000003      Eb(Ry) =      -4.507082
cgwf: iter =  109      grad =          -0.000005      Eb(Ry) =      -4.507082
cgwf: iter =  110      grad =          -0.000004      Eb(Ry) =      -4.507082
cgwf: iter =  111      grad =          -0.000004      Eb(Ry) =      -4.507082
cgwf: iter =  112      grad =          -0.000005      Eb(Ry) =      -4.507082
cgwf: iter =  113      grad =          -0.000008      Eb(Ry) =      -4.507083
cgwf: iter =  114      grad =          -0.000007      Eb(Ry) =      -4.507083
cgwf: iter =  115      grad =          -0.000003      Eb(Ry) =      -4.507083
cgwf: iter =  116      grad =          -0.000002      Eb(Ry) =      -4.507083
cgwf: iter =  117      grad =          -0.000003      Eb(Ry) =      -4.507083
cgwf: iter =  118      grad =          -0.000001      Eb(Ry) =      -4.507083
cgwf: iter =  119      grad =          -0.000002      Eb(Ry) =      -4.507083
cgwf: iter =  120      grad =          -0.000001      Eb(Ry) =      -4.507083

cgwf:  CG tolerance reached

denmat: qtot (before DM normalization) =       8.0000
ordern: qtot (after  DM normalization) =       8.0000

siesta: Program's energy decomposition (eV):
siesta: Eions   =     815.854478
siesta: Ena     =     175.154399
siesta: Ekin    =     341.667405
siesta: Enl     =     -52.736793
siesta: DEna    =      -0.000001
siesta: DUscf   =       0.000000
siesta: DUext   =       0.000000
siesta: Exc     =    -109.951257
siesta: eta*DQ  =       0.000000
siesta: Emadel  =       0.000000
siesta: Eharris =    -466.430247
siesta: Etot    =    -461.720725
siesta: FreeEng =    -461.720725

siesta: iscf =    1
Eharris(eV) =       -466.4302  E_KS(eV) =       -461.7207  dDmax =  1.4398

timer: Routine,Calls,Time,% = IterSCF        1      14.120  71.64

ordern: enum =      8.0000
cgwf: iter =    1      grad =          -0.399356      Eb(Ry) =      -3.180185
cgwf: iter =    2      grad =          -0.678780      Eb(Ry) =      -3.221615
cgwf: iter =    3      grad =          -0.107738      Eb(Ry) =      -3.229880
cgwf: iter =    4      grad =          -0.072376      Eb(Ry) =      -3.235209
cgwf: iter =    5      grad =          -0.017114      Eb(Ry) =      -3.237947
cgwf: iter =    6      grad =          -0.005643      Eb(Ry) =      -3.238531
cgwf: iter =    7      grad =          -0.005506      Eb(Ry) =      -3.238655
cgwf: iter =    8      grad =          -0.001213      Eb(Ry) =      -3.238893
cgwf: iter =    9      grad =          -0.000972      Eb(Ry) =      -3.239074
cgwf: iter =   10      grad =          -0.002006      Eb(Ry) =      -3.239120
cgwf: iter =   11      grad =          -0.004451      Eb(Ry) =      -3.239213
cgwf: iter =   12      grad =          -0.001091      Eb(Ry) =      -3.239381
cgwf: iter =   13      grad =          -0.001821      Eb(Ry) =      -3.239525
cgwf: iter =   14      grad =          -0.001123      Eb(Ry) =      -3.239574
cgwf: iter =   15      grad =          -0.000774      Eb(Ry) =      -3.239606
cgwf: iter =   16      grad =          -0.000764      Eb(Ry) =      -3.239633
cgwf: iter =   17      grad =          -0.000840      Eb(Ry) =      -3.239671
cgwf: iter =   18      grad =          -0.000652      Eb(Ry) =      -3.239689
cgwf: iter =   19      grad =          -0.000584      Eb(Ry) =      -3.239733
cgwf: iter =   20      grad =          -0.000216      Eb(Ry) =      -3.239750
cgwf: iter =   21      grad =          -0.000682      Eb(Ry) =      -3.239762
cgwf: iter =   22      grad =          -0.000590      Eb(Ry) =      -3.239791
cgwf: iter =   23      grad =          -0.000259      Eb(Ry) =      -3.239806
cgwf: iter =   24      grad =          -0.000398      Eb(Ry) =      -3.239829
cgwf: iter =   25      grad =          -0.000367      Eb(Ry) =      -3.239841
cgwf: iter =   26      grad =          -0.000461      Eb(Ry) =      -3.239853
cgwf: iter =   27      grad =          -0.000299      Eb(Ry) =      -3.239879
cgwf: iter =   28      grad =          -0.000336      Eb(Ry) =      -3.239891
cgwf: iter =   29      grad =          -0.000281      Eb(Ry) =      -3.239905
cgwf: iter =   30      grad =          -0.000248      Eb(Ry) =      -3.239912
cgwf: iter =   31      grad =          -0.000129      Eb(Ry) =      -3.239924
cgwf: iter =   32      grad =          -0.000080      Eb(Ry) =      -3.239927
cgwf: iter =   33      grad =          -0.000047      Eb(Ry) =      -3.239929
cgwf: iter =   34      grad =          -0.000056      Eb(Ry) =      -3.239934
cgwf: iter =   35      grad =          -0.000081      Eb(Ry) =      -3.239938
cgwf: iter =   36      grad =          -0.000080      Eb(Ry) =      -3.239940
cgwf: iter =   37      grad =          -0.000104      Eb(Ry) =      -3.239943
cgwf: iter =   38      grad =          -0.000037      Eb(Ry) =      -3.239947
cgwf: iter =   39      grad =          -0.000067      Eb(Ry) =      -3.239950
cgwf: iter =   40      grad =          -0.000038      Eb(Ry) =      -3.239952
cgwf: iter =   41      grad =          -0.000038      Eb(Ry) =      -3.239953
cgwf: iter =   42      grad =          -0.000024      Eb(Ry) =      -3.239955
cgwf: iter =   43      grad =          -0.000028      Eb(Ry) =      -3.239956
cgwf: iter =   44      grad =          -0.000029      Eb(Ry) =      -3.239957
cgwf: iter =   45      grad =          -0.000029      Eb(Ry) =      -3.239958
cgwf: iter =   46      grad =          -0.000022      Eb(Ry) =      -3.239960
cgwf: iter =   47      grad =          -0.000014      Eb(Ry) =      -3.239961
cgwf: iter =   48      grad =          -0.000017      Eb(Ry) =      -3.239961
cgwf: iter =   49      grad =          -0.000019      Eb(Ry) =      -3.239962
cgwf: iter =   50      grad =          -0.000015      Eb(Ry) =      -3.239963
cgwf: iter =   51      grad =          -0.000012      Eb(Ry) =      -3.239963
cgwf: iter =   52      grad =          -0.000012      Eb(Ry) =      -3.239964
cgwf: iter =   53      grad =          -0.000014      Eb(Ry) =      -3.239964
cgwf: iter =   54      grad =          -0.000016      Eb(Ry) =      -3.239965
cgwf: iter =   55      grad =          -0.000008      Eb(Ry) =      -3.239966
cgwf: iter =   56      grad =          -0.000021      Eb(Ry) =      -3.239966
cgwf: iter =   57      grad =          -0.000017      Eb(Ry) =      -3.239967
cgwf: iter =   58      grad =          -0.000007      Eb(Ry) =      -3.239967
cgwf: iter =   59      grad =          -0.000007      Eb(Ry) =      -3.239968
cgwf: iter =   60      grad =          -0.000004      Eb(Ry) =      -3.239968
cgwf: iter =   61      grad =          -0.000004      Eb(Ry) =      -3.239968
cgwf: iter =   62      grad =          -0.000009      Eb(Ry) =      -3.239968
cgwf: iter =   63      grad =          -0.000011      Eb(Ry) =      -3.239969
cgwf: iter =   64      grad =          -0.000007      Eb(Ry) =      -3.239969
cgwf: iter =   65      grad =          -0.000007      Eb(Ry) =      -3.239970
cgwf: iter =   66      grad =          -0.000007      Eb(Ry) =      -3.239970
cgwf: iter =   67      grad =          -0.000004      Eb(Ry) =      -3.239970
cgwf: iter =   68      grad =          -0.000002      Eb(Ry) =      -3.239970
cgwf: iter =   69      grad =          -0.000004      Eb(Ry) =      -3.239970
cgwf: iter =   70      grad =          -0.000004      Eb(Ry) =      -3.239970
cgwf: iter =   71      grad =          -0.000003      Eb(Ry) =      -3.239971
cgwf: iter =   72      grad =          -0.000004      Eb(Ry) =      -3.239971
cgwf: iter =   73      grad =          -0.000005      Eb(Ry) =      -3.239971
cgwf: iter =   74      grad =          -0.000022      Eb(Ry) =      -3.239971
cgwf: iter =   75      grad =          -0.000006      Eb(Ry) =      -3.239972
cgwf: iter =   76      grad =          -0.000004      Eb(Ry) =      -3.239972
cgwf: iter =   77      grad =          -0.000006      Eb(Ry) =      -3.239972
cgwf: iter =   78      grad =          -0.000002      Eb(Ry) =      -3.239972
cgwf: iter =   79      grad =          -0.000002      Eb(Ry) =      -3.239972
cgwf: iter =   80      grad =          -0.000001      Eb(Ry) =      -3.239972
cgwf: iter =   81      grad =          -0.000001      Eb(Ry) =      -3.239973

cgwf:  CG tolerance reached

denmat: qtot (before DM normalization) =       8.0000
ordern: qtot (after  DM normalization) =       8.0000

siesta: iscf =    2
Eharris(eV) =       -466.8696  E_KS(eV) =       -465.2427  dDmax =  0.1758


ordern: enum =      8.0000
cgwf: iter =    1      grad =          -0.082110      Eb(Ry) =      -3.657827
cgwf: iter =    2      grad =          -0.080019      Eb(Ry) =      -3.667872
cgwf: iter =    3      grad =          -0.015735      Eb(Ry) =      -3.668785
cgwf: iter =    4      grad =          -0.009115      Eb(Ry) =      -3.669920
cgwf: iter =    5      grad =          -0.001190      Eb(Ry) =      -3.670132
cgwf: iter =    6      grad =          -0.000475      Eb(Ry) =      -3.670166
cgwf: iter =    7      grad =          -0.000848      Eb(Ry) =      -3.670202
cgwf: iter =    8      grad =          -0.000388      Eb(Ry) =      -3.670233
cgwf: iter =    9      grad =          -0.000789      Eb(Ry) =      -3.670245
cgwf: iter =   10      grad =          -0.000255      Eb(Ry) =      -3.670276
cgwf: iter =   11      grad =          -0.000404      Eb(Ry) =      -3.670289
cgwf: iter =   12      grad =          -0.000950      Eb(Ry) =      -3.670307
cgwf: iter =   13      grad =          -0.000301      Eb(Ry) =      -3.670331
cgwf: iter =   14      grad =          -0.000324      Eb(Ry) =      -3.670348
cgwf: iter =   15      grad =          -0.000497      Eb(Ry) =      -3.670360
cgwf: iter =   16      grad =          -0.000251      Eb(Ry) =      -3.670371
cgwf: iter =   17      grad =          -0.000328      Eb(Ry) =      -3.670386
cgwf: iter =   18      grad =          -0.000282      Eb(Ry) =      -3.670400
cgwf: iter =   19      grad =          -0.000195      Eb(Ry) =      -3.670405
cgwf: iter =   20      grad =          -0.000275      Eb(Ry) =      -3.670414
cgwf: iter =   21      grad =          -0.000088      Eb(Ry) =      -3.670424
cgwf: iter =   22      grad =          -0.000156      Eb(Ry) =      -3.670427
cgwf: iter =   23      grad =          -0.000144      Eb(Ry) =      -3.670431
cgwf: iter =   24      grad =          -0.000062      Eb(Ry) =      -3.670436
cgwf: iter =   25      grad =          -0.000098      Eb(Ry) =      -3.670440
cgwf: iter =   26      grad =          -0.000035      Eb(Ry) =      -3.670442
cgwf: iter =   27      grad =          -0.000039      Eb(Ry) =      -3.670443
cgwf: iter =   28      grad =          -0.000057      Eb(Ry) =      -3.670447
cgwf: iter =   29      grad =          -0.000055      Eb(Ry) =      -3.670448
cgwf: iter =   30      grad =          -0.000035      Eb(Ry) =      -3.670450
cgwf: iter =   31      grad =          -0.000019      Eb(Ry) =      -3.670451
cgwf: iter =   32      grad =          -0.000021      Eb(Ry) =      -3.670452
cgwf: iter =   33      grad =          -0.000011      Eb(Ry) =      -3.670452
cgwf: iter =   34      grad =          -0.000015      Eb(Ry) =      -3.670453
cgwf: iter =   35      grad =          -0.000008      Eb(Ry) =      -3.670453
cgwf: iter =   36      grad =          -0.000007      Eb(Ry) =      -3.670454
cgwf: iter =   37      grad =          -0.000009      Eb(Ry) =      -3.670454
cgwf: iter =   38      grad =          -0.000007      Eb(Ry) =      -3.670454
cgwf: iter =   39      grad =          -0.000011      Eb(Ry) =      -3.670455
cgwf: iter =   40      grad =          -0.000017      Eb(Ry) =      -3.670455
cgwf: iter =   41      grad =          -0.000018      Eb(Ry) =      -3.670456
cgwf: iter =   42      grad =          -0.000009      Eb(Ry) =      -3.670456
cgwf: iter =   43      grad =          -0.000005      Eb(Ry) =      -3.670457
cgwf: iter =   44      grad =          -0.000009      Eb(Ry) =      -3.670457
cgwf: iter =   45      grad =          -0.000007      Eb(Ry) =      -3.670457
cgwf: iter =   46      grad =          -0.000005      Eb(Ry) =      -3.670457
cgwf: iter =   47      grad =          -0.000005      Eb(Ry) =      -3.670458
cgwf: iter =   48      grad =          -0.000004      Eb(Ry) =      -3.670458
cgwf: iter =   49      grad =          -0.000008      Eb(Ry) =      -3.670458
cgwf: iter =   50      grad =          -0.000005      Eb(Ry) =      -3.670458
cgwf: iter =   51      grad =          -0.000003      Eb(Ry) =      -3.670458
cgwf: iter =   52      grad =          -0.000004      Eb(Ry) =      -3.670459
cgwf: iter =   53      grad =          -0.000004      Eb(Ry) =      -3.670459
cgwf: iter =   54      grad =          -0.000002      Eb(Ry) =      -3.670459
cgwf: iter =   55      grad =          -0.000002      Eb(Ry) =      -3.670459
cgwf: iter =   56      grad =          -0.000003      Eb(Ry) =      -3.670459
cgwf: iter =   57      grad =          -0.000002      Eb(Ry) =      -3.670459
cgwf: iter =   58      grad =          -0.000001      Eb(Ry) =      -3.670459
cgwf: iter =   59      grad =          -0.000002      Eb(Ry) =      -3.670459
cgwf: iter =   60      grad =          -0.000001      Eb(Ry) =      -3.670459

cgwf:  CG tolerance reached

denmat: qtot (before DM normalization) =       8.0000
ordern: qtot (after  DM normalization) =       8.0000

siesta: iscf =    3
Eharris(eV) =       -465.9264  E_KS(eV) =       -465.4657  dDmax =  0.0518


ordern: enum =      8.0000
cgwf: iter =    1      grad =          -0.006666      Eb(Ry) =      -3.795155
cgwf: iter =    2      grad =          -0.009084      Eb(Ry) =      -3.795916
cgwf: iter =    3      grad =          -0.001273      Eb(Ry) =      -3.796016
cgwf: iter =    4      grad =          -0.001293      Eb(Ry) =      -3.796094
cgwf: iter =    5      grad =          -0.000097      Eb(Ry) =      -3.796126
cgwf: iter =    6      grad =          -0.000106      Eb(Ry) =      -3.796131
cgwf: iter =    7      grad =          -0.000054      Eb(Ry) =      -3.796135
cgwf: iter =    8      grad =          -0.000031      Eb(Ry) =      -3.796136
cgwf: iter =    9      grad =          -0.000043      Eb(Ry) =      -3.796137
cgwf: iter =   10      grad =          -0.000020      Eb(Ry) =      -3.796138
cgwf: iter =   11      grad =          -0.000020      Eb(Ry) =      -3.796139
cgwf: iter =   12      grad =          -0.000153      Eb(Ry) =      -3.796142
cgwf: iter =   13      grad =          -0.000111      Eb(Ry) =      -3.796146
cgwf: iter =   14      grad =          -0.000055      Eb(Ry) =      -3.796149
cgwf: iter =   15      grad =          -0.000043      Eb(Ry) =      -3.796151
cgwf: iter =   16      grad =          -0.000070      Eb(Ry) =      -3.796153
cgwf: iter =   17      grad =          -0.000039      Eb(Ry) =      -3.796154
cgwf: iter =   18      grad =          -0.000033      Eb(Ry) =      -3.796157
cgwf: iter =   19      grad =          -0.000027      Eb(Ry) =      -3.796157
cgwf: iter =   20      grad =          -0.000046      Eb(Ry) =      -3.796158
cgwf: iter =   21      grad =          -0.000016      Eb(Ry) =      -3.796160
cgwf: iter =   22      grad =          -0.000024      Eb(Ry) =      -3.796161
cgwf: iter =   23      grad =          -0.000018      Eb(Ry) =      -3.796161
cgwf: iter =   24      grad =          -0.000009      Eb(Ry) =      -3.796162
cgwf: iter =   25      grad =          -0.000004      Eb(Ry) =      -3.796162
cgwf: iter =   26      grad =          -0.000007      Eb(Ry) =      -3.796162
cgwf: iter =   27      grad =          -0.000007      Eb(Ry) =      -3.796162
cgwf: iter =   28      grad =          -0.000006      Eb(Ry) =      -3.796163
cgwf: iter =   29      grad =          -0.000006      Eb(Ry) =      -3.796163
cgwf: iter =   30      grad =          -0.000007      Eb(Ry) =      -3.796163
cgwf: iter =   31      grad =          -0.000003      Eb(Ry) =      -3.796163
cgwf: iter =   32      grad =          -0.000005      Eb(Ry) =      -3.796164
cgwf: iter =   33      grad =          -0.000005      Eb(Ry) =      -3.796164
cgwf: iter =   34      grad =          -0.000002      Eb(Ry) =      -3.796164
cgwf: iter =   35      grad =          -0.000002      Eb(Ry) =      -3.796164
cgwf: iter =   36      grad =          -0.000002      Eb(Ry) =      -3.796164
cgwf: iter =   37      grad =          -0.000002      Eb(Ry) =      -3.796164
cgwf: iter =   38      grad =          -0.000001      Eb(Ry) =      -3.796164
cgwf: iter =   39      grad =          -0.000001      Eb(Ry) =      -3.796164

cgwf:  CG tolerance reached

denmat: qtot (before DM normalization) =       8.0000
ordern: qtot (after  DM normalization) =       8.0000

siesta: iscf =    4
Eharris(eV) =       -465.8472  E_KS(eV) =       -465.5657  dDmax =  0.0151


ordern: enum =      8.0000
cgwf: iter =    1      grad =          -0.000623      Eb(Ry) =      -3.833638
cgwf: iter =    2      grad =          -0.001280      Eb(Ry) =      -3.833700
cgwf: iter =    3      grad =          -0.000124      Eb(Ry) =      -3.833715
cgwf: iter =    4      grad =          -0.000142      Eb(Ry) =      -3.833721
cgwf: iter =    5      grad =          -0.000016      Eb(Ry) =      -3.833725
cgwf: iter =    6      grad =          -0.000009      Eb(Ry) =      -3.833726
cgwf: iter =    7      grad =          -0.000006      Eb(Ry) =      -3.833726
cgwf: iter =    8      grad =          -0.000003      Eb(Ry) =      -3.833726
cgwf: iter =    9      grad =          -0.000003      Eb(Ry) =      -3.833726
cgwf: iter =   10      grad =          -0.000005      Eb(Ry) =      -3.833726
cgwf: iter =   11      grad =          -0.000009      Eb(Ry) =      -3.833727
cgwf: iter =   12      grad =          -0.000006      Eb(Ry) =      -3.833727
cgwf: iter =   13      grad =          -0.000006      Eb(Ry) =      -3.833727
cgwf: iter =   14      grad =          -0.000005      Eb(Ry) =      -3.833727
cgwf: iter =   15      grad =          -0.000007      Eb(Ry) =      -3.833728
cgwf: iter =   16      grad =          -0.000002      Eb(Ry) =      -3.833728
cgwf: iter =   17      grad =          -0.000005      Eb(Ry) =      -3.833728
cgwf: iter =   18      grad =          -0.000002      Eb(Ry) =      -3.833728
cgwf: iter =   19      grad =          -0.000001      Eb(Ry) =      -3.833728
cgwf: iter =   20      grad =          -0.000003      Eb(Ry) =      -3.833728
cgwf: iter =   21      grad =          -0.000001      Eb(Ry) =      -3.833728

cgwf:  CG tolerance reached

denmat: qtot (before DM normalization) =       8.0000
ordern: qtot (after  DM normalization) =       8.0000

siesta: iscf =    5
Eharris(eV) =       -465.8397  E_KS(eV) =       -465.6346  dDmax =  0.0095


ordern: enum =      8.0000
cgwf: iter =    1      grad =          -0.000062      Eb(Ry) =      -3.845043
cgwf: iter =    2      grad =          -0.000016      Eb(Ry) =      -3.845050
cgwf: iter =    3      grad =          -0.000022      Eb(Ry) =      -3.845050
cgwf: iter =    4      grad =          -0.000015      Eb(Ry) =      -3.845051
cgwf: iter =    5      grad =          -0.000001      Eb(Ry) =      -3.845051
cgwf: iter =    6      grad =          -0.000001      Eb(Ry) =      -3.845051
cgwf: iter =    7      grad =          -0.000001      Eb(Ry) =      -3.845051

cgwf:  CG tolerance reached

denmat: qtot (before DM normalization) =       8.0000
ordern: qtot (after  DM normalization) =       8.0000

siesta: iscf =    6
Eharris(eV) =       -465.8388  E_KS(eV) =       -465.6857  dDmax =  0.0074


ordern: enum =      8.0000
cgwf: iter =    1      grad =          -0.000009      Eb(Ry) =      -3.848568
cgwf: iter =    2      grad =          -0.000012      Eb(Ry) =      -3.848569
cgwf: iter =    3      grad =          -0.000003      Eb(Ry) =      -3.848569
cgwf: iter =    4      grad =          -0.000003      Eb(Ry) =      -3.848569
cgwf: iter =    5      grad =          -0.000002      Eb(Ry) =      -3.848570
cgwf: iter =    6      grad =          -0.000001      Eb(Ry) =      -3.848570
cgwf: iter =    7      grad =          -0.000002      Eb(Ry) =      -3.848570
cgwf: iter =    8      grad =          -0.000004      Eb(Ry) =      -3.848570
cgwf: iter =    9      grad =          -0.000002      Eb(Ry) =      -3.848571
cgwf: iter =   10      grad =          -0.000002      Eb(Ry) =      -3.848571
cgwf: iter =   11      grad =          -0.000002      Eb(Ry) =      -3.848571
cgwf: iter =   12      grad =           0.000000      Eb(Ry) =      -3.848571
cgwf: iter =   13      grad =          -0.000001      Eb(Ry) =      -3.848571

cgwf:  CG tolerance reached

denmat: qtot (before DM normalization) =       8.0000
ordern: qtot (after  DM normalization) =       8.0000

siesta: iscf =    7
Eharris(eV) =       -465.8387  E_KS(eV) =       -465.7240  dDmax =  0.0094


ordern: enum =      8.0000
cgwf: iter =    1      grad =          -0.000002      Eb(Ry) =      -3.849220
cgwf: iter =    2      grad =          -0.000002      Eb(Ry) =      -3.849220

cgwf:  CG tolerance reached

denmat: qtot (before DM normalization) =       8.0000
ordern: qtot (after  DM normalization) =       8.0000

siesta: iscf =    8
Eharris(eV) =       -465.8387  E_KS(eV) =       -465.7527  dDmax =  0.0070


ordern: enum =      8.0000
cgwf: iter =    1      grad =          -0.000001      Eb(Ry) =      -3.849506

cgwf:  CG tolerance reached

denmat: qtot (before DM normalization) =       8.0000
ordern: qtot (after  DM normalization) =       8.0000

siesta: iscf =    9
Eharris(eV) =       -465.8387  E_KS(eV) =       -465.7742  dDmax =  0.0052


ordern: enum =      8.0000
cgwf: iter =    1      grad =          -0.000001      Eb(Ry) =      -3.849613

cgwf:  CG tolerance reached

denmat: qtot (before DM normalization) =       8.0000
ordern: qtot (after  DM normalization) =       8.0000

siesta: iscf =   10
Eharris(eV) =       -465.8387  E_KS(eV) =       -465.7903  dDmax =  0.0039


ordern: enum =      8.0000
cgwf: iter =    1      grad =          -0.000001      Eb(Ry) =      -3.849664

cgwf:  CG tolerance reached

denmat: qtot (before DM normalization) =       8.0000
ordern: qtot (after  DM normalization) =       8.0000

siesta: iscf =   11
Eharris(eV) =       -465.8387  E_KS(eV) =       -465.8024  dDmax =  0.0029


ordern: enum =      8.0000
cgwf: iter =    1      grad =          -0.000001      Eb(Ry) =      -3.849665

cgwf:  CG tolerance reached

denmat: qtot (before DM normalization) =       8.0000
ordern: qtot (after  DM normalization) =       8.0000

siesta: iscf =   12
Eharris(eV) =       -465.8387  E_KS(eV) =       -465.8115  dDmax =  0.0022


ordern: enum =      8.0000
cgwf: iter =    1      grad =          -0.000001      Eb(Ry) =      -3.849645

cgwf:  CG tolerance reached

denmat: qtot (before DM normalization) =       8.0000
ordern: qtot (after  DM normalization) =       8.0000

siesta: iscf =   13
Eharris(eV) =       -465.8387  E_KS(eV) =       -465.8183  dDmax =  0.0016


ordern: enum =      8.0000
cgwf: iter =    1      grad =          -0.000001      Eb(Ry) =      -3.849620

cgwf:  CG tolerance reached

denmat: qtot (before DM normalization) =       8.0000
ordern: qtot (after  DM normalization) =       8.0000

siesta: iscf =   14
Eharris(eV) =       -465.8387  E_KS(eV) =       -465.8233  dDmax =  0.0012


ordern: enum =      8.0000
cgwf: iter =    1      grad =           0.000000      Eb(Ry) =      -3.849585

cgwf:  CG tolerance reached

denmat: qtot (before DM normalization) =       8.0000
ordern: qtot (after  DM normalization) =       8.0000

siesta: iscf =   15
Eharris(eV) =       -465.8387  E_KS(eV) =       -465.8272  dDmax =  0.0009


ordern: enum =      8.0000
cgwf: iter =    1      grad =           0.000000      Eb(Ry) =      -3.849554

cgwf:  CG tolerance reached

denmat: qtot (before DM normalization) =       8.0000
ordern: qtot (after  DM normalization) =       8.0000

siesta: iscf =   16
Eharris(eV) =       -465.8387  E_KS(eV) =       -465.8301  dDmax =  0.0007


ordern: enum =      8.0000
cgwf: iter =    1      grad =           0.000000      Eb(Ry) =      -3.849523

cgwf:  CG tolerance reached

denmat: qtot (before DM normalization) =       8.0000
ordern: qtot (after  DM normalization) =       8.0000

siesta: iscf =   17
Eharris(eV) =       -465.8387  E_KS(eV) =       -465.8322  dDmax =  0.0005


ordern: enum =      8.0000
cgwf: iter =    1      grad =           0.000000      Eb(Ry) =      -3.849498

cgwf:  CG tolerance reached

denmat: qtot (before DM normalization) =       8.0000
ordern: qtot (after  DM normalization) =       8.0000

siesta: iscf =   18
Eharris(eV) =       -465.8387  E_KS(eV) =       -465.8339  dDmax =  0.0004


ordern: enum =      8.0000
cgwf: iter =    1      grad =           0.000000      Eb(Ry) =      -3.849478

cgwf:  CG tolerance reached

denmat: qtot (before DM normalization) =       8.0000
ordern: qtot (after  DM normalization) =       8.0000

siesta: iscf =   19
Eharris(eV) =       -465.8387  E_KS(eV) =       -465.8350  dDmax =  0.0003


ordern: enum =      8.0000
cgwf: iter =    1      grad =           0.000000      Eb(Ry) =      -3.849463

cgwf:  CG tolerance reached

denmat: qtot (before DM normalization) =       8.0000
ordern: qtot (after  DM normalization) =       8.0000

siesta: iscf =   20
Eharris(eV) =       -465.8387  E_KS(eV) =       -465.8360  dDmax =  0.0002


ordern: enum =      8.0000
cgwf: iter =    1      grad =           0.000000      Eb(Ry) =      -3.849451

cgwf:  CG tolerance reached

denmat: qtot (before DM normalization) =       8.0000
ordern: qtot (after  DM normalization) =       8.0000

siesta: iscf =   21
Eharris(eV) =       -465.8387  E_KS(eV) =       -465.8366  dDmax =  0.0001


ordern: enum =      8.0000
cgwf: iter =    1      grad =           0.000000      Eb(Ry) =      -3.849445

cgwf:  CG tolerance reached

denmat: qtot (before DM normalization) =       8.0000
ordern: qtot (after  DM normalization) =       8.0000

siesta: iscf =   22
Eharris(eV) =       -465.8387  E_KS(eV) =       -465.8372  dDmax =  0.0001


ordern: enum =      8.0000
cgwf: iter =    1      grad =           0.000000      Eb(Ry) =      -3.849441

cgwf:  CG tolerance reached

denmat: qtot (before DM normalization) =       8.0000
ordern: qtot (after  DM normalization) =       8.0000

siesta: iscf =   23
Eharris(eV) =       -465.8387  E_KS(eV) =       -465.8375  dDmax =  0.0001


ordern: enum =      8.0000
cgwf: iter =    1      grad =           0.000000      Eb(Ry) =      -3.849441

cgwf:  CG tolerance reached

denmat: qtot (before DM normalization) =       8.0000
ordern: qtot (after  DM normalization) =       8.0000

siesta: iscf =   24
Eharris(eV) =       -465.8387  E_KS(eV) =       -465.8378  dDmax =  0.0001


siesta: E_KS(eV) =      -465.8378

siesta: Atomic forces (eV/Ang):
----------------------------------------
 Tot   -0.000002    0.054713    0.000003
----------------------------------------
 Max    0.719980
 Res    0.401429    sqrt( Sum f_i^2 / 3N )
----------------------------------------
 Max    0.719980    constrained

siesta: Temp_ion =       0.000 K


* Maximum dynamic memory allocated =     8 MB

siesta: Program's energy decomposition (eV):
siesta:-Eions   =    -815.854478
siesta: Ena     =     175.154399
siesta: Ekin    =     350.783367
siesta: Enl     =     -61.958216
siesta: DEna    =      -1.777999
siesta: DUscf   =       0.727092
siesta: DUext   =       0.000000
siesta: Exc     =    -112.912003
siesta: eta*DQ  =       0.000000
siesta: Emadel  =       0.000000
siesta: Ekinion =       0.000000
siesta: Eharris =    -465.838701
siesta: Etot    =    -465.837839
siesta: FreeEng =    -465.837839

siesta: Final energy (eV):
siesta:       Kinetic =     350.783367
siesta:       Hartree =     382.612151
siesta:    Ext. field =       0.000000
siesta:   Exch.-corr. =    -112.912003
siesta:  Ion-electron =   -1072.815570
siesta:       Ion-ion =     -13.505783
siesta:       Ekinion =       0.000000
siesta:         Total =    -465.837839

siesta: Atomic forces (eV/Ang):
siesta:    1   -0.000024   -0.506231    0.000005
siesta:    2    0.719980    0.280469   -0.000002
siesta:    3   -0.719957    0.280475    0.000000
siesta: ----------------------------------------
siesta:  Tot   -0.000002    0.054713    0.000003

siesta: Stress tensor (eV/Ang**3):
siesta:    -0.012627    0.000000    0.000000
siesta:     0.000000   -0.002313    0.000000
siesta:     0.000000    0.000000    0.014003

siesta: Cell volume =        235.378012 Ang**3

siesta: Pressure:
siesta:                Solid            Molecule  Units
siesta:           0.00000340         -0.00001815  Ry/Bohr**3
siesta:           0.00031227         -0.00166664  eV/Ang**3
siesta:           0.50031065         -2.67027607  kBar

siesta: Electric dipole (a.u.)  =    0.000001    0.557708   -0.000001
siesta: Electric dipole (Debye) =    0.000003    1.417553   -0.000002


* Maximum dynamic memory allocated : Node    0 =     8 MB
* Maximum memory occured during matel                         

timer: CPU execution times:
timer:  Routine       Calls   Time/call    Tot.time        %
timer:  siesta            1      24.049      24.049    99.99
timer:  Setup             1       1.169       1.169     4.86
timer:  bands             1       0.001       0.001     0.00
timer:  KSV_init          1       0.000       0.000     0.00
timer:  IterMD            1      22.873      22.873    95.10
timer:  hsparse           2       0.012       0.024     0.10
timer:  overfsm           2       2.202       4.404    18.31
timer:  IterSCF          24       0.768      18.437    76.65
timer:  kinefsm           2       1.873       3.747    15.58
timer:  nlefsm            2       4.846       9.693    40.30
timer:  DHSCF            24       0.156       3.748    15.58
timer:  DHSCF1            1       0.087       0.087     0.36
timer:  DHSCF2            1       0.303       0.303     1.26
timer:  REORD           194       0.001       0.124     0.52
timer:  POISON           25       0.026       0.649     2.70
timer:  DHSCF3           24       0.118       2.827    11.76
timer:  rhoofd           24       0.030       0.716     2.98
timer:  CELLXC           24       0.019       0.465     1.93
timer:  vmat             24       0.029       0.694     2.89
timer:  gradient        383       0.000       0.153     0.64
timer:  ener3           359       0.000       0.143     0.59
timer:  denmat           24       0.001       0.013     0.05
timer:  DHSCF4            1       0.527       0.527     2.19
timer:  dfscf             1       0.488       0.488     2.03
  
>> End of run:  16-MAY-2000   0:04:15
