 
prdate: PROGRAM = siesta, SYSTEM = cefeo.fmc.uam.es
prdate: DATE = Mon Apr 19 18:09:28 MET DST 1999
 
              SIESTA Version 0.11    (Apr 20, 1999, 12:00:00)             

                           ***********************       
                           *  WELCOME TO SIESTA  *       
                           ***********************       

redata: ****************** Dump of input data file ****************************
SystemName          Water molecule, using order-N method
SystemLabel         h2o
NumberOfAtoms       3
NumberOfSpecies     2
%block ChemicalSpeciesLabel
 1  8  O      # Species index, atomic number, species label
 2  1  H
%endblock ChemicalSpeciesLabel
AtomicCoordinatesFormat  Ang
%block AtomicCoordinatesAndAtomicSpecies
 0.000  0.000  0.000  1
 0.757  0.586  0.000  2
-0.757  0.586  0.000  2
%endblock AtomicCoordinatesAndAtomicSpecies
SolutionMethod   ordern
redata: ****************** End of input data file *****************************

redata: ****************** Simulation parameters ******************************
redata:
redata: The following are some of the parameters of the simulation.
redata: A complete list of the parameters used, including defect values,
redata: can be found in file out.fdf             
redata:
redata: -----------------------------------------------------------------------
redata: System Name: Water molecule, using order-N method                       
redata: -----------------------------------------------------------------------
redata: System Label                     =     h2o                 
redata: Long output                      =     F
redata: Number of Atoms                  =     3
redata: Number of Atomic Species         =     2
redata: Write minimum siesta dimensions  =     F
redata: Dump information for DENCHAR     =     F
redata: Write Mulliken Pop.              =     NO
redata: Number of spin components        =     1
redata: Mesh Cutoff                      =    50.0000  Ry
redata: Net charge of the system         =     0.0000 |e|
redata: Max. number of SCF Iter          =    50
redata: Mixing is linear
redata: Mix DM in first SCF step ?       =     F
redata: Write Pulay info on disk         =     F
redata: New DM Mixing Weight             =     0.2500
redata: No kicks to SCF
redata: DM Mixing Weight for Kicks       =     0.5000
redata: DM Tolerance for SCF             =     0.000100
redata: Use continuation files for DM    =     F
redata: Neglect nonoverlap interactions  =     F
redata: Method of Calculation            =     Order-N
redata: Maximum number of iterations     =  1000
redata: Relative tolerance               =     0.10D-07
redata: Eta (Fermi level parameter)      =     0.0000  Ry
redata: Radius of LWFs                   =     9.5000  Bohr
redata: Use continuation files for LWF   =     F
redata: Method to build LWFs             =     kim          
redata: Dynamics option                  =     Verlet MD run
redata: Initial MD time step             =     1
redata:   Final MD time step             =     1
redata: Length of MD time step           =     1.0000  fs
redata: Length of MD time step           =     1.0000  fs
redata: Initial Temperature of MD run    =     0.0000  K
redata: Perform a MD quench              =     F
recoor: Atomic-coordinates input format  =     Cartesian coordinates
recoor:                                        (in Angstroms)
redata: ***********************************************************************

siesta: Atomic coordinates (Bohr) and species
siesta:      0.00000   0.00000   0.00000  1      1
siesta:      1.43052   1.10738   0.00000  2      2
siesta:     -1.43052   1.10738   0.00000  2      3

initatom: Reading input for the pseudopotentials and atomic orbitals
rechemsp: Read atomic number and label for species   1 as    8  O
rechemsp: Read atomic number and label for species   2 as    1  H

ATOM: *************************************************************************

ATOM: CALLED FOR O   (Z =   8)

read_vps: Pseudopotential generation method:
read_vps: ATM3      Troullier-Martins                       

read_vps: Valence configuration (pseudopotential generation):
 2s( 2.00)
 2p( 4.00)
 3d( 0.00)
 4f( 0.00)

xc_check: Exchange-correlation functional:
xc_check: Ceperley-Alder

VLOCAL1: 99.0% of the norm of Vloc inside     34.126 Ry
VLOCAL1: 99.9% of the norm of Vloc inside     77.774 Ry
ATOM: Maximum radius for local-pseudopot. charge    1.37759
GHOST: No ghost state for L =  0
GHOST: No ghost state for L =  1
GHOST: No ghost state for L =  2
GHOST: No ghost state for L =  3

KBgen: Kleinman-Bylander projectors: 
   l= 0   rc=  1.294105   el= -1.742414   kbcos=  9.135903
   l= 1   rc=  1.294105   el= -0.676589   kbcos= -8.124878
   l= 2   rc=  1.448233   el=  0.002386   kbcos= -2.039267
   l= 3   rc=  1.561052   el=  0.003508   kbcos= -0.799329

KBgen: Total number of  Kleinman-Bylander projectors:   16
ATOM: -------------------------------------------------------------------------

ATOM: SANKEY-TYPE ORBITALS:
ATOM: Selected multiple-zeta basis: split     

SPLIT: Orbitals with angular momentum L= 0

SPLIT: PAO cut-off radius determinated from an
SPLIT: energy shift=  0.020000 Ry

   izeta = 1
                 lambda =    1.000000
                     rc =    3.305093
                 energy =   -1.723766
                kinetic =    1.614911
    potential(screened) =   -3.338677
       potential(ionic) =  -11.304675

   izeta = 2
                 rmatch =    2.510382
              splitnorm =    0.150000
                 energy =   -1.471081
                kinetic =    2.446738
    potential(screened) =   -3.917818
       potential(ionic) =  -12.476310

SPLIT: Orbitals with angular momentum L= 1

SPLIT: PAO cut-off radius determinated from an
SPLIT: energy shift=  0.020000 Ry

   izeta = 1
                 lambda =    1.000000
                     rc =    3.937239
                 energy =   -0.658841
                kinetic =    5.005986
    potential(screened) =   -5.664827
       potential(ionic) =  -13.452360

   izeta = 2
                 rmatch =    2.541963
              splitnorm =    0.150000
                 energy =   -0.367387
                kinetic =    7.530138
    potential(screened) =   -7.897525
       potential(ionic) =  -16.611418

POLgen: Perturbative polarization orbital with L=  2

   izeta = 1
                     rc =    3.937239
                 energy =    2.471848
                kinetic =    4.716729
    potential(screened) =   -2.244881
       potential(ionic) =   -8.529842
ATOM: Total number of Sankey-type orbitals: 13

atm_pop: Valence configuration(local Pseudopot. screening):
        2s( 2.00)
        2p( 4.00)
        3d( 0.00)

Vna:  Cut-off radius for the neutral-atom potential:   3.937239

ATOM: *************************************************************************

ATOM: CALLED FOR H   (Z =   1)

read_vps: Pseudopotential generation method:
read_vps: ATM3      Troullier-Martins                       

read_vps: Valence configuration (pseudopotential generation):
 1s( 1.00)
 2p( 0.00)
 3d( 0.00)

xc_check: Exchange-correlation functional:
xc_check: Ceperley-Alder

VLOCAL1: 99.0% of the norm of Vloc inside     28.493 Ry
VLOCAL1: 99.9% of the norm of Vloc inside     64.935 Ry
ATOM: Maximum radius for local-pseudopot. charge    1.45251
GHOST: No ghost state for L =  0
GHOST: No ghost state for L =  1
GHOST: No ghost state for L =  2

KBgen: Kleinman-Bylander projectors: 
   l= 0   rc=  1.364359   el= -0.467325   kbcos= -2.005361
   l= 1   rc=  1.434438   el=  0.001430   kbcos= -0.501708
   l= 2   rc=  1.470814   el=  0.002365   kbcos= -0.190555

KBgen: Total number of  Kleinman-Bylander projectors:    9
ATOM: -------------------------------------------------------------------------

ATOM: SANKEY-TYPE ORBITALS:
ATOM: Selected multiple-zeta basis: split     

SPLIT: Orbitals with angular momentum L= 0

SPLIT: PAO cut-off radius determinated from an
SPLIT: energy shift=  0.020000 Ry

   izeta = 1
                 lambda =    1.000000
                     rc =    4.828263
                 energy =   -0.449375
                kinetic =    0.929372
    potential(screened) =   -1.378747
       potential(ionic) =   -1.915047

   izeta = 2
                 rmatch =    3.854947
              splitnorm =    0.150000
                 energy =   -0.335649
                kinetic =    1.505971
    potential(screened) =   -1.841620
       potential(ionic) =   -2.413776

POLgen: Perturbative polarization orbital with L=  1

   izeta = 1
                     rc =    4.828263
                 energy =    0.717182
                kinetic =    1.396397
    potential(screened) =   -0.679215
       potential(ionic) =   -1.159582
ATOM: Total number of Sankey-type orbitals:  5

atm_pop: Valence configuration(local Pseudopot. screening):
        1s( 1.00)
        2p( 0.00)

Vna:  Cut-off radius for the neutral-atom potential:   4.828263

prinput: ************************* Basis input ********************************

PAO.BasisType split     

%block ChemicalSpeciesLabel
   1   8 O                       # Species index, atomic number, species label
   2   1 H                       # Species index, atomic number, species label
%endblock ChemicalSpeciesLabel

%block PAO.Basis                 # Define Basis set
O           2                    # Species label, number of l-shells
   0   2                         # l, Nzeta 
   3.305      2.510   
   1.000      1.000   
   1   2 P   1                   # l, Nzeta, Polarization, NzetaPol
   3.937      2.542   
   1.000      1.000   
H           1                    # Species label, number of l-shells
   0   2 P   1                   # l, Nzeta, Polarization, NzetaPol
   4.828      3.855   
   1.000      1.000   
%endblock PAO.Basis

prinput: **********************************************************************
ATOM: *************************************************************************

siesta: Automatic unit cell vectors (Ang):
siesta:    7.286412    0.000000    0.000000
siesta:    0.000000    5.746952    0.000000
siesta:    0.000000    0.000000    5.621012

siesta: System type = molecule  

siesta:    ===============================
siesta:        Begin MD step =      1
siesta:    ===============================

DHSCF: MESH =    32 x    30 x    24 =       23040
DHSCF: Mesh cutoff (required, used) =    50.000    50.384 Ry

ordern: enum =      8.0000

ordern: ioptlwf =  1
cgwf: iter =    1      grad =        -234.449685      Eb(Ry) =      -1.653473
cgwf: iter =    2      grad =         -19.302681      Eb(Ry) =      -3.070696
cgwf: iter =    3      grad =          -5.425879      Eb(Ry) =      -3.482818
cgwf: iter =    4      grad =         -11.368537      Eb(Ry) =      -3.842278
cgwf: iter =    5      grad =          -7.649814      Eb(Ry) =      -4.128716
cgwf: iter =    6      grad =          -1.912974      Eb(Ry) =      -4.287243
cgwf: iter =    7      grad =          -1.921597      Eb(Ry) =      -4.343389
cgwf: iter =    8      grad =          -0.678940      Eb(Ry) =      -4.376210
cgwf: iter =    9      grad =          -0.279018      Eb(Ry) =      -4.394848
cgwf: iter =   10      grad =          -0.139553      Eb(Ry) =      -4.404064
cgwf: iter =   11      grad =          -0.375066      Eb(Ry) =      -4.409621
cgwf: iter =   12      grad =          -0.146943      Eb(Ry) =      -4.419281
cgwf: iter =   13      grad =          -0.153721      Eb(Ry) =      -4.426188
cgwf: iter =   14      grad =          -0.137629      Eb(Ry) =      -4.431644
cgwf: iter =   15      grad =          -0.182324      Eb(Ry) =      -4.435220
cgwf: iter =   16      grad =          -0.107905      Eb(Ry) =      -4.440420
cgwf: iter =   17      grad =          -0.300202      Eb(Ry) =      -4.448152
cgwf: iter =   18      grad =          -0.156358      Eb(Ry) =      -4.459671
cgwf: iter =   19      grad =          -0.161625      Eb(Ry) =      -4.465914
cgwf: iter =   20      grad =          -0.163248      Eb(Ry) =      -4.469384
cgwf: iter =   21      grad =          -0.122284      Eb(Ry) =      -4.475090
cgwf: iter =   22      grad =          -0.121285      Eb(Ry) =      -4.480044
cgwf: iter =   23      grad =          -0.067509      Eb(Ry) =      -4.484516
cgwf: iter =   24      grad =          -0.051185      Eb(Ry) =      -4.486440
cgwf: iter =   25      grad =          -0.076113      Eb(Ry) =      -4.488389
cgwf: iter =   26      grad =          -0.021810      Eb(Ry) =      -4.489630
cgwf: iter =   27      grad =          -0.022513      Eb(Ry) =      -4.490970
cgwf: iter =   28      grad =          -0.037650      Eb(Ry) =      -4.492123
cgwf: iter =   29      grad =          -0.029258      Eb(Ry) =      -4.493682
cgwf: iter =   30      grad =          -0.040865      Eb(Ry) =      -4.494828
cgwf: iter =   31      grad =          -0.036294      Eb(Ry) =      -4.495782
cgwf: iter =   32      grad =          -0.021916      Eb(Ry) =      -4.496716
cgwf: iter =   33      grad =          -0.024687      Eb(Ry) =      -4.498345
cgwf: iter =   34      grad =          -0.038657      Eb(Ry) =      -4.499617
cgwf: iter =   35      grad =          -0.020236      Eb(Ry) =      -4.500418
cgwf: iter =   36      grad =          -0.018024      Eb(Ry) =      -4.500856
cgwf: iter =   37      grad =          -0.012556      Eb(Ry) =      -4.501675
cgwf: iter =   38      grad =          -0.009461      Eb(Ry) =      -4.502143
cgwf: iter =   39      grad =          -0.013115      Eb(Ry) =      -4.502593
cgwf: iter =   40      grad =          -0.010468      Eb(Ry) =      -4.502841
cgwf: iter =   41      grad =          -0.006356      Eb(Ry) =      -4.503228
cgwf: iter =   42      grad =          -0.009837      Eb(Ry) =      -4.503562
cgwf: iter =   43      grad =          -0.010832      Eb(Ry) =      -4.503943
cgwf: iter =   44      grad =          -0.019031      Eb(Ry) =      -4.504430
cgwf: iter =   45      grad =          -0.009893      Eb(Ry) =      -4.504765
cgwf: iter =   46      grad =          -0.009653      Eb(Ry) =      -4.505305
cgwf: iter =   47      grad =          -0.003950      Eb(Ry) =      -4.505611
cgwf: iter =   48      grad =          -0.004985      Eb(Ry) =      -4.505792
cgwf: iter =   49      grad =          -0.004541      Eb(Ry) =      -4.505898
cgwf: iter =   50      grad =          -0.004013      Eb(Ry) =      -4.506048
cgwf: iter =   51      grad =          -0.001433      Eb(Ry) =      -4.506149
cgwf: iter =   52      grad =          -0.001171      Eb(Ry) =      -4.506218
cgwf: iter =   53      grad =          -0.001835      Eb(Ry) =      -4.506262
cgwf: iter =   54      grad =          -0.002631      Eb(Ry) =      -4.506318
cgwf: iter =   55      grad =          -0.000883      Eb(Ry) =      -4.506383
cgwf: iter =   56      grad =          -0.001962      Eb(Ry) =      -4.506457
cgwf: iter =   57      grad =          -0.001913      Eb(Ry) =      -4.506529
cgwf: iter =   58      grad =          -0.002562      Eb(Ry) =      -4.506590
cgwf: iter =   59      grad =          -0.001669      Eb(Ry) =      -4.506646
cgwf: iter =   60      grad =          -0.001859      Eb(Ry) =      -4.506713
cgwf: iter =   61      grad =          -0.001057      Eb(Ry) =      -4.506792
cgwf: iter =   62      grad =          -0.001217      Eb(Ry) =      -4.506840
cgwf: iter =   63      grad =          -0.000775      Eb(Ry) =      -4.506860
cgwf: iter =   64      grad =          -0.000467      Eb(Ry) =      -4.506889
cgwf: iter =   65      grad =          -0.000608      Eb(Ry) =      -4.506909
cgwf: iter =   66      grad =          -0.000531      Eb(Ry) =      -4.506935
cgwf: iter =   67      grad =          -0.000539      Eb(Ry) =      -4.506950
cgwf: iter =   68      grad =          -0.000286      Eb(Ry) =      -4.506961
cgwf: iter =   69      grad =          -0.000197      Eb(Ry) =      -4.506970
cgwf: iter =   70      grad =          -0.000238      Eb(Ry) =      -4.506984
cgwf: iter =   71      grad =          -0.000460      Eb(Ry) =      -4.506996
cgwf: iter =   72      grad =          -0.000272      Eb(Ry) =      -4.507005
cgwf: iter =   73      grad =          -0.000363      Eb(Ry) =      -4.507015
cgwf: iter =   74      grad =          -0.000133      Eb(Ry) =      -4.507028
cgwf: iter =   75      grad =          -0.000147      Eb(Ry) =      -4.507033
cgwf: iter =   76      grad =          -0.000212      Eb(Ry) =      -4.507039
cgwf: iter =   77      grad =          -0.000095      Eb(Ry) =      -4.507042
cgwf: iter =   78      grad =          -0.000067      Eb(Ry) =      -4.507047
cgwf: iter =   79      grad =          -0.000064      Eb(Ry) =      -4.507050
cgwf: iter =   80      grad =          -0.000059      Eb(Ry) =      -4.507052
cgwf: iter =   81      grad =          -0.000059      Eb(Ry) =      -4.507053
cgwf: iter =   82      grad =          -0.000061      Eb(Ry) =      -4.507056
cgwf: iter =   83      grad =          -0.000059      Eb(Ry) =      -4.507058
cgwf: iter =   84      grad =          -0.000042      Eb(Ry) =      -4.507061
cgwf: iter =   85      grad =          -0.000080      Eb(Ry) =      -4.507062
cgwf: iter =   86      grad =          -0.000046      Eb(Ry) =      -4.507064
cgwf: iter =   87      grad =          -0.000038      Eb(Ry) =      -4.507066
cgwf: iter =   88      grad =          -0.000025      Eb(Ry) =      -4.507067
cgwf: iter =   89      grad =          -0.000030      Eb(Ry) =      -4.507068
cgwf: iter =   90      grad =          -0.000021      Eb(Ry) =      -4.507069
cgwf: iter =   91      grad =          -0.000011      Eb(Ry) =      -4.507069
cgwf: iter =   92      grad =          -0.000006      Eb(Ry) =      -4.507070
cgwf: iter =   93      grad =          -0.000018      Eb(Ry) =      -4.507071
cgwf: iter =   94      grad =          -0.000016      Eb(Ry) =      -4.507071
cgwf: iter =   95      grad =          -0.000015      Eb(Ry) =      -4.507071
cgwf: iter =   96      grad =          -0.000012      Eb(Ry) =      -4.507072
cgwf: iter =   97      grad =          -0.000017      Eb(Ry) =      -4.507073
cgwf: iter =   98      grad =          -0.000014      Eb(Ry) =      -4.507073
cgwf: iter =   99      grad =          -0.000022      Eb(Ry) =      -4.507074
cgwf: iter =  100      grad =          -0.000008      Eb(Ry) =      -4.507074
cgwf: iter =  101      grad =          -0.000008      Eb(Ry) =      -4.507075
cgwf: iter =  102      grad =          -0.000011      Eb(Ry) =      -4.507075
cgwf: iter =  103      grad =          -0.000010      Eb(Ry) =      -4.507075
cgwf: iter =  104      grad =          -0.000005      Eb(Ry) =      -4.507076
cgwf: iter =  105      grad =          -0.000005      Eb(Ry) =      -4.507076
cgwf: iter =  106      grad =          -0.000002      Eb(Ry) =      -4.507076
cgwf: iter =  107      grad =          -0.000003      Eb(Ry) =      -4.507076
cgwf: iter =  108      grad =          -0.000002      Eb(Ry) =      -4.507076
cgwf: iter =  109      grad =          -0.000002      Eb(Ry) =      -4.507076
cgwf: iter =  110      grad =          -0.000003      Eb(Ry) =      -4.507076
cgwf: iter =  111      grad =          -0.000002      Eb(Ry) =      -4.507076
cgwf: iter =  112      grad =          -0.000003      Eb(Ry) =      -4.507076
cgwf: iter =  113      grad =          -0.000003      Eb(Ry) =      -4.507076
cgwf: iter =  114      grad =          -0.000002      Eb(Ry) =      -4.507077
cgwf: iter =  115      grad =          -0.000002      Eb(Ry) =      -4.507077
cgwf: iter =  116      grad =          -0.000002      Eb(Ry) =      -4.507077

cgwf:  CG tolerance reached

denmat: qtot (before DM normalization) =       8.0000
ordern: qtot (after  DM normalization) =       8.0000

siesta: Program's energy decomposition (eV):
siesta: Eions   =     815.854478
siesta: Ena     =     175.155496
siesta: Ekin    =     341.667410
siesta: Enl     =     -52.736807
siesta: DEna    =      -0.000020
siesta: DUscf   =       0.000000
siesta: DUext   =       0.000000
siesta: Exc     =    -109.951267
siesta: eta*DQ  =       0.000000
siesta: Emadel  =       0.000000
siesta: Eharris =    -466.429026
siesta: Etot    =    -461.719667
siesta: FreeEng =    -461.719667

siesta: iscf =    1
Eharris(eV) =       -466.4290  E_KS(eV) =       -461.7197  dDmax =  1.4411

timer: Routine,Calls,Time,% = IterSCF        1       8.479  88.32

ordern: enum =      8.0000
cgwf: iter =    1      grad =          -0.399544      Eb(Ry) =      -3.180154
cgwf: iter =    2      grad =          -0.691306      Eb(Ry) =      -3.221432
cgwf: iter =    3      grad =          -0.107611      Eb(Ry) =      -3.229852
cgwf: iter =    4      grad =          -0.072678      Eb(Ry) =      -3.235177
cgwf: iter =    5      grad =          -0.017098      Eb(Ry) =      -3.237927
cgwf: iter =    6      grad =          -0.005716      Eb(Ry) =      -3.238512
cgwf: iter =    7      grad =          -0.005453      Eb(Ry) =      -3.238636
cgwf: iter =    8      grad =          -0.001216      Eb(Ry) =      -3.238874
cgwf: iter =    9      grad =          -0.000996      Eb(Ry) =      -3.239056
cgwf: iter =   10      grad =          -0.001938      Eb(Ry) =      -3.239101
cgwf: iter =   11      grad =          -0.004495      Eb(Ry) =      -3.239193
cgwf: iter =   12      grad =          -0.001174      Eb(Ry) =      -3.239363
cgwf: iter =   13      grad =          -0.002705      Eb(Ry) =      -3.239465
cgwf: iter =   14      grad =          -0.000898      Eb(Ry) =      -3.239556
cgwf: iter =   15      grad =          -0.000668      Eb(Ry) =      -3.239580
cgwf: iter =   16      grad =          -0.000387      Eb(Ry) =      -3.239598
cgwf: iter =   17      grad =          -0.001333      Eb(Ry) =      -3.239635
cgwf: iter =   18      grad =          -0.000441      Eb(Ry) =      -3.239658
cgwf: iter =   19      grad =          -0.000594      Eb(Ry) =      -3.239709
cgwf: iter =   20      grad =          -0.000188      Eb(Ry) =      -3.239723
cgwf: iter =   21      grad =          -0.000675      Eb(Ry) =      -3.239749
cgwf: iter =   22      grad =          -0.000541      Eb(Ry) =      -3.239766
cgwf: iter =   23      grad =          -0.000326      Eb(Ry) =      -3.239782
cgwf: iter =   24      grad =          -0.000324      Eb(Ry) =      -3.239804
cgwf: iter =   25      grad =          -0.000290      Eb(Ry) =      -3.239826
cgwf: iter =   26      grad =          -0.000878      Eb(Ry) =      -3.239844
cgwf: iter =   27      grad =          -0.000344      Eb(Ry) =      -3.239866
cgwf: iter =   28      grad =          -0.000218      Eb(Ry) =      -3.239879
cgwf: iter =   29      grad =          -0.000154      Eb(Ry) =      -3.239898
cgwf: iter =   30      grad =          -0.000315      Eb(Ry) =      -3.239906
cgwf: iter =   31      grad =          -0.000216      Eb(Ry) =      -3.239915
cgwf: iter =   32      grad =          -0.000130      Eb(Ry) =      -3.239921
cgwf: iter =   33      grad =          -0.000035      Eb(Ry) =      -3.239927
cgwf: iter =   34      grad =          -0.000180      Eb(Ry) =      -3.239935
cgwf: iter =   35      grad =          -0.000055      Eb(Ry) =      -3.239938
cgwf: iter =   36      grad =          -0.000035      Eb(Ry) =      -3.239942
cgwf: iter =   37      grad =          -0.000034      Eb(Ry) =      -3.239944
cgwf: iter =   38      grad =          -0.000043      Eb(Ry) =      -3.239946
cgwf: iter =   39      grad =          -0.000019      Eb(Ry) =      -3.239947
cgwf: iter =   40      grad =          -0.000023      Eb(Ry) =      -3.239948
cgwf: iter =   41      grad =          -0.000013      Eb(Ry) =      -3.239948
cgwf: iter =   42      grad =          -0.000013      Eb(Ry) =      -3.239949
cgwf: iter =   43      grad =          -0.000029      Eb(Ry) =      -3.239950
cgwf: iter =   44      grad =          -0.000037      Eb(Ry) =      -3.239951
cgwf: iter =   45      grad =          -0.000045      Eb(Ry) =      -3.239953
cgwf: iter =   46      grad =          -0.000004      Eb(Ry) =      -3.239956
cgwf: iter =   47      grad =          -0.000007      Eb(Ry) =      -3.239956
cgwf: iter =   48      grad =          -0.000001      Eb(Ry) =      -3.239956
cgwf: iter =   49      grad =          -0.000003      Eb(Ry) =      -3.239957
cgwf: iter =   50      grad =          -0.000001      Eb(Ry) =      -3.239957
cgwf: iter =   51      grad =          -0.000004      Eb(Ry) =      -3.239957
cgwf: iter =   52      grad =          -0.000001      Eb(Ry) =      -3.239957
cgwf: iter =   53      grad =          -0.000001      Eb(Ry) =      -3.239957
cgwf: iter =   54      grad =          -0.000001      Eb(Ry) =      -3.239957

cgwf:  CG tolerance reached

denmat: qtot (before DM normalization) =       8.0000
ordern: qtot (after  DM normalization) =       8.0000

siesta: iscf =    2
Eharris(eV) =       -466.8687  E_KS(eV) =       -465.2413  dDmax =  0.1765


ordern: enum =      8.0000
cgwf: iter =    1      grad =          -0.082168      Eb(Ry) =      -3.657899
cgwf: iter =    2      grad =          -0.085959      Eb(Ry) =      -3.667880
cgwf: iter =    3      grad =          -0.015649      Eb(Ry) =      -3.668855
cgwf: iter =    4      grad =          -0.009787      Eb(Ry) =      -3.669977
cgwf: iter =    5      grad =          -0.001209      Eb(Ry) =      -3.670206
cgwf: iter =    6      grad =          -0.000478      Eb(Ry) =      -3.670241
cgwf: iter =    7      grad =          -0.000853      Eb(Ry) =      -3.670277
cgwf: iter =    8      grad =          -0.000427      Eb(Ry) =      -3.670306
cgwf: iter =    9      grad =          -0.000667      Eb(Ry) =      -3.670318
cgwf: iter =   10      grad =          -0.000256      Eb(Ry) =      -3.670351
cgwf: iter =   11      grad =          -0.000438      Eb(Ry) =      -3.670362
cgwf: iter =   12      grad =          -0.000823      Eb(Ry) =      -3.670377
cgwf: iter =   13      grad =          -0.000269      Eb(Ry) =      -3.670407
cgwf: iter =   14      grad =          -0.000168      Eb(Ry) =      -3.670414
cgwf: iter =   15      grad =          -0.000376      Eb(Ry) =      -3.670422
cgwf: iter =   16      grad =          -0.000196      Eb(Ry) =      -3.670431
cgwf: iter =   17      grad =          -0.000107      Eb(Ry) =      -3.670436
cgwf: iter =   18      grad =          -0.000112      Eb(Ry) =      -3.670449
cgwf: iter =   19      grad =          -0.000177      Eb(Ry) =      -3.670453
cgwf: iter =   20      grad =          -0.000177      Eb(Ry) =      -3.670458
cgwf: iter =   21      grad =          -0.000167      Eb(Ry) =      -3.670466
cgwf: iter =   22      grad =          -0.000183      Eb(Ry) =      -3.670473
cgwf: iter =   23      grad =          -0.000430      Eb(Ry) =      -3.670487
cgwf: iter =   24      grad =          -0.000190      Eb(Ry) =      -3.670496
cgwf: iter =   25      grad =          -0.000093      Eb(Ry) =      -3.670500
cgwf: iter =   26      grad =          -0.000051      Eb(Ry) =      -3.670503
cgwf: iter =   27      grad =          -0.000072      Eb(Ry) =      -3.670504
cgwf: iter =   28      grad =          -0.000044      Eb(Ry) =      -3.670506
cgwf: iter =   29      grad =          -0.000031      Eb(Ry) =      -3.670507
cgwf: iter =   30      grad =          -0.000144      Eb(Ry) =      -3.670513
cgwf: iter =   31      grad =          -0.000035      Eb(Ry) =      -3.670515
cgwf: iter =   32      grad =          -0.000020      Eb(Ry) =      -3.670516
cgwf: iter =   33      grad =          -0.000011      Eb(Ry) =      -3.670517
cgwf: iter =   34      grad =          -0.000017      Eb(Ry) =      -3.670517
cgwf: iter =   35      grad =          -0.000022      Eb(Ry) =      -3.670519
cgwf: iter =   36      grad =          -0.000029      Eb(Ry) =      -3.670519
cgwf: iter =   37      grad =          -0.000022      Eb(Ry) =      -3.670520
cgwf: iter =   38      grad =          -0.000017      Eb(Ry) =      -3.670520
cgwf: iter =   39      grad =          -0.000011      Eb(Ry) =      -3.670521
cgwf: iter =   40      grad =          -0.000010      Eb(Ry) =      -3.670522
cgwf: iter =   41      grad =          -0.000034      Eb(Ry) =      -3.670522
cgwf: iter =   42      grad =          -0.000085      Eb(Ry) =      -3.670525
cgwf: iter =   43      grad =          -0.000123      Eb(Ry) =      -3.670529
cgwf: iter =   44      grad =          -0.000101      Eb(Ry) =      -3.670532
cgwf: iter =   45      grad =          -0.000064      Eb(Ry) =      -3.670536
cgwf: iter =   46      grad =          -0.000017      Eb(Ry) =      -3.670538
cgwf: iter =   47      grad =          -0.000014      Eb(Ry) =      -3.670538
cgwf: iter =   48      grad =          -0.000008      Eb(Ry) =      -3.670539
cgwf: iter =   49      grad =          -0.000004      Eb(Ry) =      -3.670539
cgwf: iter =   50      grad =          -0.000004      Eb(Ry) =      -3.670539
cgwf: iter =   51      grad =          -0.000002      Eb(Ry) =      -3.670539
cgwf: iter =   52      grad =          -0.000001      Eb(Ry) =      -3.670539
cgwf: iter =   53      grad =          -0.000002      Eb(Ry) =      -3.670539
cgwf: iter =   54      grad =          -0.000002      Eb(Ry) =      -3.670539
cgwf: iter =   55      grad =          -0.000006      Eb(Ry) =      -3.670539
cgwf: iter =   56      grad =          -0.000007      Eb(Ry) =      -3.670540
cgwf: iter =   57      grad =          -0.000002      Eb(Ry) =      -3.670540
cgwf: iter =   58      grad =          -0.000004      Eb(Ry) =      -3.670540
cgwf: iter =   59      grad =          -0.000003      Eb(Ry) =      -3.670540
cgwf: iter =   60      grad =          -0.000002      Eb(Ry) =      -3.670540
cgwf: iter =   61      grad =          -0.000003      Eb(Ry) =      -3.670540
cgwf: iter =   62      grad =          -0.000001      Eb(Ry) =      -3.670540

cgwf:  CG tolerance reached

denmat: qtot (before DM normalization) =       8.0000
ordern: qtot (after  DM normalization) =       8.0000

siesta: iscf =    3
Eharris(eV) =       -465.9252  E_KS(eV) =       -465.4644  dDmax =  0.0506


ordern: enum =      8.0000
cgwf: iter =    1      grad =          -0.006662      Eb(Ry) =      -3.794967
cgwf: iter =    2      grad =          -0.010023      Eb(Ry) =      -3.795715
cgwf: iter =    3      grad =          -0.001238      Eb(Ry) =      -3.795824
cgwf: iter =    4      grad =          -0.001164      Eb(Ry) =      -3.795908
cgwf: iter =    5      grad =          -0.000090      Eb(Ry) =      -3.795935
cgwf: iter =    6      grad =          -0.000079      Eb(Ry) =      -3.795941
cgwf: iter =    7      grad =          -0.000058      Eb(Ry) =      -3.795944
cgwf: iter =    8      grad =          -0.000030      Eb(Ry) =      -3.795945
cgwf: iter =    9      grad =          -0.000036      Eb(Ry) =      -3.795946
cgwf: iter =   10      grad =          -0.000046      Eb(Ry) =      -3.795948
cgwf: iter =   11      grad =          -0.000034      Eb(Ry) =      -3.795949
cgwf: iter =   12      grad =          -0.000071      Eb(Ry) =      -3.795953
cgwf: iter =   13      grad =          -0.000058      Eb(Ry) =      -3.795955
cgwf: iter =   14      grad =          -0.000064      Eb(Ry) =      -3.795957
cgwf: iter =   15      grad =          -0.000031      Eb(Ry) =      -3.795958
cgwf: iter =   16      grad =          -0.000026      Eb(Ry) =      -3.795960
cgwf: iter =   17      grad =          -0.000041      Eb(Ry) =      -3.795961
cgwf: iter =   18      grad =          -0.000035      Eb(Ry) =      -3.795962
cgwf: iter =   19      grad =          -0.000020      Eb(Ry) =      -3.795963
cgwf: iter =   20      grad =          -0.000018      Eb(Ry) =      -3.795965
cgwf: iter =   21      grad =          -0.000014      Eb(Ry) =      -3.795965
cgwf: iter =   22      grad =          -0.000009      Eb(Ry) =      -3.795965
cgwf: iter =   23      grad =          -0.000009      Eb(Ry) =      -3.795966
cgwf: iter =   24      grad =          -0.000010      Eb(Ry) =      -3.795966
cgwf: iter =   25      grad =          -0.000003      Eb(Ry) =      -3.795966
cgwf: iter =   26      grad =          -0.000005      Eb(Ry) =      -3.795966
cgwf: iter =   27      grad =          -0.000003      Eb(Ry) =      -3.795967
cgwf: iter =   28      grad =          -0.000005      Eb(Ry) =      -3.795967
cgwf: iter =   29      grad =          -0.000007      Eb(Ry) =      -3.795967
cgwf: iter =   30      grad =          -0.000004      Eb(Ry) =      -3.795967
cgwf: iter =   31      grad =          -0.000005      Eb(Ry) =      -3.795967
cgwf: iter =   32      grad =          -0.000001      Eb(Ry) =      -3.795968
cgwf: iter =   33      grad =          -0.000003      Eb(Ry) =      -3.795968
cgwf: iter =   34      grad =          -0.000002      Eb(Ry) =      -3.795968
cgwf: iter =   35      grad =          -0.000002      Eb(Ry) =      -3.795968
cgwf: iter =   36      grad =          -0.000002      Eb(Ry) =      -3.795968
cgwf: iter =   37      grad =          -0.000004      Eb(Ry) =      -3.795968
cgwf: iter =   38      grad =          -0.000005      Eb(Ry) =      -3.795968
cgwf: iter =   39      grad =          -0.000003      Eb(Ry) =      -3.795968
cgwf: iter =   40      grad =          -0.000001      Eb(Ry) =      -3.795968
cgwf: iter =   41      grad =          -0.000001      Eb(Ry) =      -3.795969

cgwf:  CG tolerance reached

denmat: qtot (before DM normalization) =       8.0000
ordern: qtot (after  DM normalization) =       8.0000

siesta: iscf =    4
Eharris(eV) =       -465.8460  E_KS(eV) =       -465.5644  dDmax =  0.0170


ordern: enum =      8.0000
cgwf: iter =    1      grad =          -0.000624      Eb(Ry) =      -3.833488
cgwf: iter =    2      grad =          -0.001183      Eb(Ry) =      -3.833551
cgwf: iter =    3      grad =          -0.000122      Eb(Ry) =      -3.833565
cgwf: iter =    4      grad =          -0.000129      Eb(Ry) =      -3.833572
cgwf: iter =    5      grad =          -0.000015      Eb(Ry) =      -3.833575
cgwf: iter =    6      grad =          -0.000008      Eb(Ry) =      -3.833575
cgwf: iter =    7      grad =          -0.000023      Eb(Ry) =      -3.833576
cgwf: iter =    8      grad =          -0.000006      Eb(Ry) =      -3.833576
cgwf: iter =    9      grad =          -0.000005      Eb(Ry) =      -3.833577
cgwf: iter =   10      grad =          -0.000004      Eb(Ry) =      -3.833577
cgwf: iter =   11      grad =          -0.000004      Eb(Ry) =      -3.833577
cgwf: iter =   12      grad =          -0.000004      Eb(Ry) =      -3.833577
cgwf: iter =   13      grad =          -0.000014      Eb(Ry) =      -3.833578
cgwf: iter =   14      grad =          -0.000006      Eb(Ry) =      -3.833578
cgwf: iter =   15      grad =          -0.000002      Eb(Ry) =      -3.833578
cgwf: iter =   16      grad =          -0.000003      Eb(Ry) =      -3.833578
cgwf: iter =   17      grad =          -0.000002      Eb(Ry) =      -3.833578
cgwf: iter =   18      grad =          -0.000003      Eb(Ry) =      -3.833579
cgwf: iter =   19      grad =          -0.000003      Eb(Ry) =      -3.833579
cgwf: iter =   20      grad =          -0.000001      Eb(Ry) =      -3.833579

cgwf:  CG tolerance reached

denmat: qtot (before DM normalization) =       8.0000
ordern: qtot (after  DM normalization) =       8.0000

siesta: iscf =    5
Eharris(eV) =       -465.8384  E_KS(eV) =       -465.6334  dDmax =  0.0083


ordern: enum =      8.0000
cgwf: iter =    1      grad =          -0.000068      Eb(Ry) =      -3.845045
cgwf: iter =    2      grad =          -0.000149      Eb(Ry) =      -3.845051
cgwf: iter =    3      grad =           0.000375      Eb(Ry) =      -3.845050
cgwf: iter =    4      grad =          -0.000331      Eb(Ry) =      -3.845050
cgwf: iter =    5      grad =          -0.000018      Eb(Ry) =      -3.845053
cgwf: iter =    6      grad =          -0.000002      Eb(Ry) =      -3.845054
cgwf: iter =    7      grad =          -0.000001      Eb(Ry) =      -3.845054
cgwf: iter =    8      grad =          -0.000001      Eb(Ry) =      -3.845054
cgwf: iter =    9      grad =          -0.000002      Eb(Ry) =      -3.845054

cgwf:  CG tolerance reached

denmat: qtot (before DM normalization) =       8.0000
ordern: qtot (after  DM normalization) =       8.0000

siesta: iscf =    6
Eharris(eV) =       -465.8376  E_KS(eV) =       -465.6845  dDmax =  0.0065


ordern: enum =      8.0000
cgwf: iter =    1      grad =          -0.000009      Eb(Ry) =      -3.848419
cgwf: iter =    2      grad =          -0.000011      Eb(Ry) =      -3.848420
cgwf: iter =    3      grad =          -0.000003      Eb(Ry) =      -3.848420
cgwf: iter =    4      grad =          -0.000002      Eb(Ry) =      -3.848420
cgwf: iter =    5      grad =          -0.000002      Eb(Ry) =      -3.848420
cgwf: iter =    6      grad =          -0.000001      Eb(Ry) =      -3.848420

cgwf:  CG tolerance reached

denmat: qtot (before DM normalization) =       8.0000
ordern: qtot (after  DM normalization) =       8.0000

siesta: iscf =    7
Eharris(eV) =       -465.8375  E_KS(eV) =       -465.7227  dDmax =  0.0046


ordern: enum =      8.0000
cgwf: iter =    1      grad =          -0.000002      Eb(Ry) =      -3.849244
cgwf: iter =    2      grad =          -0.000002      Eb(Ry) =      -3.849244
cgwf: iter =    3      grad =           0.000000      Eb(Ry) =      -3.849244

cgwf:  CG tolerance reached

denmat: qtot (before DM normalization) =       8.0000
ordern: qtot (after  DM normalization) =       8.0000

siesta: iscf =    8
Eharris(eV) =       -465.8375  E_KS(eV) =       -465.7514  dDmax =  0.0035


ordern: enum =      8.0000
cgwf: iter =    1      grad =          -0.000001      Eb(Ry) =      -3.849667

cgwf:  CG tolerance reached

denmat: qtot (before DM normalization) =       8.0000
ordern: qtot (after  DM normalization) =       8.0000

siesta: iscf =    9
Eharris(eV) =       -465.8375  E_KS(eV) =       -465.7730  dDmax =  0.0027


ordern: enum =      8.0000
cgwf: iter =    1      grad =          -0.000001      Eb(Ry) =      -3.849962

cgwf:  CG tolerance reached

denmat: qtot (before DM normalization) =       8.0000
ordern: qtot (after  DM normalization) =       8.0000

siesta: iscf =   10
Eharris(eV) =       -465.8375  E_KS(eV) =       -465.7891  dDmax =  0.0020


ordern: enum =      8.0000
cgwf: iter =    1      grad =          -0.000002      Eb(Ry) =      -3.850106

cgwf:  CG tolerance reached

denmat: qtot (before DM normalization) =       8.0000
ordern: qtot (after  DM normalization) =       8.0000

siesta: iscf =   11
Eharris(eV) =       -465.8375  E_KS(eV) =       -465.8012  dDmax =  0.0015


ordern: enum =      8.0000
cgwf: iter =    1      grad =          -0.000001      Eb(Ry) =      -3.850195

cgwf:  CG tolerance reached

denmat: qtot (before DM normalization) =       8.0000
ordern: qtot (after  DM normalization) =       8.0000

siesta: iscf =   12
Eharris(eV) =       -465.8375  E_KS(eV) =       -465.8103  dDmax =  0.0012


ordern: enum =      8.0000
cgwf: iter =    1      grad =          -0.000002      Eb(Ry) =      -3.850217

cgwf:  CG tolerance reached

denmat: qtot (before DM normalization) =       8.0000
ordern: qtot (after  DM normalization) =       8.0000

siesta: iscf =   13
Eharris(eV) =       -465.8375  E_KS(eV) =       -465.8171  dDmax =  0.0009


ordern: enum =      8.0000
cgwf: iter =    1      grad =          -0.000001      Eb(Ry) =      -3.850220

cgwf:  CG tolerance reached

denmat: qtot (before DM normalization) =       8.0000
ordern: qtot (after  DM normalization) =       8.0000

siesta: iscf =   14
Eharris(eV) =       -465.8374  E_KS(eV) =       -465.8221  dDmax =  0.0007


ordern: enum =      8.0000
cgwf: iter =    1      grad =          -0.000001      Eb(Ry) =      -3.850185

cgwf:  CG tolerance reached

denmat: qtot (before DM normalization) =       8.0000
ordern: qtot (after  DM normalization) =       8.0000

siesta: iscf =   15
Eharris(eV) =       -465.8375  E_KS(eV) =       -465.8260  dDmax =  0.0005


ordern: enum =      8.0000
cgwf: iter =    1      grad =          -0.000001      Eb(Ry) =      -3.850152

cgwf:  CG tolerance reached

denmat: qtot (before DM normalization) =       8.0000
ordern: qtot (after  DM normalization) =       8.0000

siesta: iscf =   16
Eharris(eV) =       -465.8375  E_KS(eV) =       -465.8288  dDmax =  0.0004


ordern: enum =      8.0000
cgwf: iter =    1      grad =          -0.000001      Eb(Ry) =      -3.850104

cgwf:  CG tolerance reached

denmat: qtot (before DM normalization) =       8.0000
ordern: qtot (after  DM normalization) =       8.0000

siesta: iscf =   17
Eharris(eV) =       -465.8375  E_KS(eV) =       -465.8310  dDmax =  0.0003


ordern: enum =      8.0000
cgwf: iter =    1      grad =           0.000000      Eb(Ry) =      -3.850066

cgwf:  CG tolerance reached

denmat: qtot (before DM normalization) =       8.0000
ordern: qtot (after  DM normalization) =       8.0000

siesta: iscf =   18
Eharris(eV) =       -465.8375  E_KS(eV) =       -465.8326  dDmax =  0.0003


ordern: enum =      8.0000
cgwf: iter =    1      grad =          -0.000001      Eb(Ry) =      -3.850025

cgwf:  CG tolerance reached

denmat: qtot (before DM normalization) =       8.0000
ordern: qtot (after  DM normalization) =       8.0000

siesta: iscf =   19
Eharris(eV) =       -465.8375  E_KS(eV) =       -465.8338  dDmax =  0.0002


ordern: enum =      8.0000
cgwf: iter =    1      grad =           0.000000      Eb(Ry) =      -3.849994

cgwf:  CG tolerance reached

denmat: qtot (before DM normalization) =       8.0000
ordern: qtot (after  DM normalization) =       8.0000

siesta: iscf =   20
Eharris(eV) =       -465.8375  E_KS(eV) =       -465.8348  dDmax =  0.0002


ordern: enum =      8.0000
cgwf: iter =    1      grad =          -0.000001      Eb(Ry) =      -3.849966

cgwf:  CG tolerance reached

denmat: qtot (before DM normalization) =       8.0000
ordern: qtot (after  DM normalization) =       8.0000

siesta: iscf =   21
Eharris(eV) =       -465.8375  E_KS(eV) =       -465.8354  dDmax =  0.0001


ordern: enum =      8.0000
cgwf: iter =    1      grad =           0.000000      Eb(Ry) =      -3.849948

cgwf:  CG tolerance reached

denmat: qtot (before DM normalization) =       8.0000
ordern: qtot (after  DM normalization) =       8.0000

siesta: iscf =   22
Eharris(eV) =       -465.8375  E_KS(eV) =       -465.8359  dDmax =  0.0001


ordern: enum =      8.0000
cgwf: iter =    1      grad =          -0.000001      Eb(Ry) =      -3.849931

cgwf:  CG tolerance reached

denmat: qtot (before DM normalization) =       8.0000
ordern: qtot (after  DM normalization) =       8.0000

siesta: iscf =   23
Eharris(eV) =       -465.8375  E_KS(eV) =       -465.8363  dDmax =  0.0001


ordern: enum =      8.0000
cgwf: iter =    1      grad =           0.000000      Eb(Ry) =      -3.849923

cgwf:  CG tolerance reached

denmat: qtot (before DM normalization) =       8.0000
ordern: qtot (after  DM normalization) =       8.0000

siesta: iscf =   24
Eharris(eV) =       -465.8375  E_KS(eV) =       -465.8366  dDmax =  0.0001


ordern: enum =      8.0000
cgwf: iter =    1      grad =           0.000000      Eb(Ry) =      -3.849915

cgwf:  CG tolerance reached

denmat: qtot (before DM normalization) =       8.0000
ordern: qtot (after  DM normalization) =       8.0000

siesta: iscf =   25
Eharris(eV) =       -465.8375  E_KS(eV) =       -465.8368  dDmax =  0.0001


ordern: enum =      8.0000
cgwf: iter =    1      grad =           0.000000      Eb(Ry) =      -3.849911

cgwf:  CG tolerance reached

denmat: qtot (before DM normalization) =       8.0000
ordern: qtot (after  DM normalization) =       8.0000

siesta: iscf =   26
Eharris(eV) =       -465.8375  E_KS(eV) =       -465.8370  dDmax =  0.0001


siesta: E_KS(eV) =      -465.8370

siesta: Atomic forces (eV/Ang):
----------------------------------------
 Tot   -0.000002    0.056378   -0.000001
----------------------------------------
 Max    0.698273
 Res    0.385872    sqrt( Sum f_i^2 / 3N )
----------------------------------------
 Max    0.698273    constrained

siesta: Temp_ion =       0.000 K

siesta: Program's energy decomposition (eV):
siesta:-Eions   =    -815.854478
siesta: Ena     =     175.155496
siesta: Ekin    =     350.746197
siesta: Enl     =     -61.946563
siesta: DEna    =      -1.756906
siesta: DUscf   =       0.727406
siesta: DUext   =       0.000000
siesta: Exc     =    -112.908154
siesta: eta*DQ  =       0.000000
siesta: Emadel  =       0.000000
siesta: Ekinion =       0.000000
siesta: Eharris =    -465.837488
siesta: Etot    =    -465.837003
siesta: FreeEng =    -465.837003

siesta: Final energy (eV):
siesta:       Kinetic =     350.746197
siesta:       Hartree =     382.597949
siesta:    Ext. field =       0.000000
siesta:   Exch.-corr. =    -112.908154
siesta:  Ion-electron =   -1072.768277
siesta:       Ion-ion =     -13.504717
siesta:       Ekinion =       0.000000
siesta:         Total =    -465.837003

siesta: Atomic forces (eV/Ang):
siesta:    1    0.000011   -0.473726   -0.000002
siesta:    2    0.698259    0.265052   -0.000002
siesta:    3   -0.698273    0.265052    0.000003
siesta: ----------------------------------------
siesta:  Tot   -0.000002    0.056378   -0.000001

siesta: Stress tensor (eV/Ang**3):
siesta:    -0.012486    0.000000    0.000000
siesta:     0.000000   -0.002236    0.000000
siesta:     0.000000    0.000000    0.013993

siesta: Cell volume =        235.378012 Ang**3

siesta: Pressure:
siesta:                Solid            Molecule  Units
siesta:           0.00000265         -0.00001819  Ry/Bohr**3
siesta:           0.00024308         -0.00167030  eV/Ang**3
siesta:           0.38946395         -2.67614403  kBar

siesta: Electric dipole (a.u.)  =   -0.000001    0.558923    0.000002
siesta: Electric dipole (Debye) =   -0.000002    1.420642    0.000004

timer: CPU execution times:
timer:  Routine       Calls   Time/call    Tot.time        %
timer:  siesta            1      13.888      13.888   100.00
timer:  bands             2       0.001       0.002     0.01
timer:  IterMD            1      12.774      12.774    91.98
timer:  hsparse           1       0.011       0.011     0.08
timer:  IterSCF          26       0.490      12.742    91.75
timer:  nlefsm            2       2.098       4.197    30.22
timer:  DHSCF            26       0.160       4.169    30.02
timer:  POISON           28       0.030       0.847     6.10
timer:  DHSCF2            1       0.239       0.239     1.72
timer:  REORD           210       0.001       0.129     0.93
timer:  RFFT             54       0.014       0.750     5.40
timer:  DHSCF3           26       0.121       3.138    22.59
timer:  rhoofd           26       0.027       0.707     5.09
timer:  CELLXC           26       0.019       0.489     3.52
timer:  vmat             26       0.027       0.692     4.98
timer:  gradient        355       0.000       0.088     0.63
timer:  ener3           328       0.000       0.129     0.93
timer:  denmat           26       0.001       0.015     0.11
timer:  DHSCF4            1       0.757       0.757     5.45
timer:  dfscf            46       0.011       0.522     3.76
  
 
prdate: PROGRAM = siesta, SYSTEM = cefeo.fmc.uam.es
prdate: DATE = Mon Apr 19 18:09:54 MET DST 1999
 
