Siesta Version: siesta-trunk-479
Architecture  : atto-intel12-openmpi
Compiler flags: /share/apps/openmpi-1.6.5-intel/bin/mpif90 -w  -O2 -mp
PP flags      : -DCDF -DMPI -DTRANSIESTA  -DTRANSIESTA
PARALLEL version
TRANSIESTA support
NetCDF support

* Running on    4 nodes in parallel
>> Start of run:   3-OCT-2015   4:59:55

                           ***********************       
                           *  WELCOME TO SIESTA  *       
                           ***********************       

reinit: Reading from standard input
************************** Dump of input data file ****************************
SystemName  scat.fast
SystemLabel scat.fast
==================================================
==================================================
# SPECIES AND BASIS
# Number of species
NumberOfSpecies 1
%block ChemicalSpeciesLabel
  1  1 H
%endblock ChemicalSpeciesLabel
PAO.BasisSize    SZ
PAO.EnergyShift  0.05 Ry
==================================================
==================================================
# K-points
%block kgrid_Monkhorst_Pack
3   0   0   0.0
0   3   0   0.0
0   0   60  0.0
%endblock kgrid_Monkhorst_Pack
==================================================
==================================================
# UNIT CELL AND ATOMIC POSITIONS
# UNIT CELL
LatticeConstant       2.92311 Ang
%block LatticeVectors
1.000000000   0.00000000000   0.0000000000
0.500000000   0.86602540378   0.0000000000
0.000000000   0.00000000000   2.4494897428
%endblock LatticeVectors
# Atomic coordinates
NumberOfAtoms 3
AtomicCoordinatesFormat ScaledCartesian
%block AtomicCoordinatesAndAtomicSpecies
       0.000000000       0.000000000       0.000000000    1
       0.500000000       0.288675135       0.816496581    1
       0.500000000      -0.288675135       1.632993162    1
%endblock AtomicCoordinatesAndAtomicSpecies
%block SuperCell
1 0 0
0 1 0
0 0 3
%endblock SuperCell
==================================================
==================================================
# General variables
ElectronicTemperature  100 K
MeshCutoff           350. Ry
xc.functional         LDA           # Exchange-correlation functional
xc.authors            CA
SpinPolarized .false.
SolutionMethod Transiesta
==================================================
==================================================
# SCF variables
DM.MixSCF1   T
MaxSCFIterations      300           # Maximum number of SCF iter
DM.MixingWeight       0.03          # New DM amount for next SCF cycle
DM.Tolerance          1.d-4         # Tolerance in maximum difference
DM.UseSaveDM          true          # to use continuation files
DM.NumberPulay         5
Diag.DivideAndConquer  no
Diag.ParallelOverK     yes
==================================================
==================================================
# MD variables
MD.FinalTimeStep 1
MD.TypeOfRun CG
MD.NumCGsteps     000
MD.UseSaveXV      .true.
==================================================
==================================================
# Output variables
WriteMullikenPop                1
WriteBands                      .false.
SaveRho                         .false.
SaveDeltaRho                    .false.
SaveHS                          .false.
SaveElectrostaticPotential      True
SaveTotalPotential              no
WriteCoorXmol                   .true.
WriteMDXmol                     .true.
WriteMDhistory                  .false.
WriteEigenvalues                yes
==================================================
==================================================
# Transiesta/tbrans information
# GF OPTIONS
TS.ComplexContour.Emin    -30.0 eV
TS.ComplexContour.NPoles       03
TS.ComplexContour.NCircle      30
TS.ComplexContour.NLine        10
# BIAS CONTOUR OPTIONS
TS.biasContour.NumPoints       00
# TS VOLTAGE
TS.Voltage 0.000000 eV
# TBT OPTIONS
TS.TBT.Emin -1.0 eV
TS.TBT.Emax +1.0 eV
TS.TBT.NPoints 100
TS.TBT.NEigen 3
TS.TBT.Eta        0.000001 Ry
TS.TBT.PDOSFrom   5
TS.TBT.PDOSTo     5
TS.TBT.CalcIeig  yes
# Write hamiltonian
TS.SaveHS   .true.
# LEFT ELECTRODE
TS.HSFileLeft  ./elec.fast.TSHS
TS.NumUsedAtomsLeft   03
TS.BufferAtomsLeft    0
# RIGHT ELECTRODE
TS.HSFileRight  ./elec.fast.TSHS
TS.NumUsedAtomsRight  03
TS.BufferAtomsRight   0
==================================================
==================================================
************************** End of input data file *****************************

reinit: -----------------------------------------------------------------------
reinit: System Name: scat.fast
reinit: -----------------------------------------------------------------------
reinit: System Label: scat.fast                                                   
reinit: -----------------------------------------------------------------------

initatom: Reading input for the pseudopotentials and atomic orbitals ----------
 Species number:            1  Label: H Atomic number:           1
Ground state valence configuration:   1s01
Reading pseudopotential information in formatted form from H.psf

Valence configuration for pseudopotential generation:
1s( 1.00) rc: 1.25
2p( 0.00) rc: 1.25
3d( 0.00) rc: 1.25
4f( 0.00) rc: 1.25
For H, standard SIESTA heuristics set lmxkb to 1
 (one more than the basis l, including polarization orbitals).
Use PS.lmax or PS.KBprojectors blocks to override.

<basis_specs>
===============================================================================
H                    Z=   1    Mass=  1.0100        Charge= 0.17977+309
Lmxo=0 Lmxkb= 1    BasisType=split      Semic=F
L=0  Nsemic=0  Cnfigmx=1
          n=1  nzeta=1  polorb=0
            splnorm:   0.15000    
               vcte:    0.0000    
               rinn:    0.0000    
               qcoe:    0.0000    
               qyuk:    0.0000    
               qwid:   0.10000E-01
                rcs:    0.0000    
            lambdas:   1.00000    
-------------------------------------------------------------------------------
L=0  Nkbl=1  erefs: 0.17977+309
L=1  Nkbl=1  erefs: 0.17977+309
===============================================================================
</basis_specs>

atom: Called for H                     (Z =   1)

read_vps: Pseudopotential generation method:
read_vps: ATM3      Troullier-Martins                       
Total valence charge:    1.00000

xc_check: Exchange-correlation functional:
xc_check: Ceperley-Alder
V l=0 = -2*Zval/r beyond r=  1.2343
V l=1 = -2*Zval/r beyond r=  1.2189
All V_l potentials equal beyond r=  1.2343
This should be close to max(r_c) in ps generation
All pots = -2*Zval/r beyond r=  1.2343

VLOCAL1: 99.0% of the norm of Vloc inside     28.493 Ry
VLOCAL1: 99.9% of the norm of Vloc inside     64.935 Ry
atom: Maximum radius for 4*pi*r*r*local-pseudopot. charge    1.45251
atom: Maximum radius for r*vlocal+2*Zval:    1.21892
GHOST: No ghost state for L =  0
GHOST: No ghost state for L =  1

KBgen: Kleinman-Bylander projectors: 
   l= 0   rc=  1.364359   el= -0.467325   Ekb= -2.005361   kbcos= -0.336422
   l= 1   rc=  1.434438   el=  0.001430   Ekb= -0.501708   kbcos= -0.021697

KBgen: Total number of  Kleinman-Bylander projectors:    4
atom: -------------------------------------------------------------------------

atom: SANKEY-TYPE ORBITALS:

SPLIT: Orbitals with angular momentum L= 0

SPLIT: Basis orbitals for state 1s

SPLIT: PAO cut-off radius determined from an
SPLIT: energy shift=  0.050000 Ry

   izeta = 1
                 lambda =    1.000000
                     rc =    4.052721
                 energy =   -0.419090
                kinetic =    1.051136
    potential(screened) =   -1.470226
       potential(ionic) =   -2.016826
atom: Total number of Sankey-type orbitals:  1

atm_pop: Valence configuration (for local Pseudopot. screening):
 1s( 1.00)                                                            
Vna: chval, zval:    1.00000   1.00000

Vna:  Cut-off radius for the neutral-atom potential:   4.052721

atom: _________________________________________________________________________

prinput: Basis input ----------------------------------------------------------

PAO.BasisType split     

%block ChemicalSpeciesLabel
    1    1 H                       # Species index, atomic number, species label
%endblock ChemicalSpeciesLabel

%block PAO.Basis                 # Define Basis set
H                     1                    # Species label, number of l-shells
 n=1   0   1                         # n, l, Nzeta 
   4.053   
   1.000   
%endblock PAO.Basis

prinput: ----------------------------------------------------------------------

Dumping basis to NetCDF file H.ion.nc
coor:   Atomic-coordinates input format  =     Cartesian coordinates
coor:                                          (in units of alat)

siesta: WARNING: XV file not found

siesta: Atomic coordinates (Bohr) and species
siesta:      0.00000   0.00000   0.00000  1        1
siesta:      2.76194   1.59461   4.51023  1        2
siesta:      2.76194  -1.59461   9.02046  1        3
siesta:      0.00000   0.00000  13.53069  1        4
siesta:      2.76194   1.59461  18.04092  1        5
siesta:      2.76194  -1.59461  22.55114  1        6
siesta:      0.00000   0.00000  27.06137  1        7
siesta:      2.76194   1.59461  31.57160  1        8
siesta:      2.76194  -1.59461  36.08183  1        9

siesta: System type = bulk      

initatomlists: Number of atoms, orbitals, and projectors:      9     9    36

coxmol: Writing XMOL coordinates into file scat.fast.xyz                                                   

siesta: ******************** Simulation parameters ****************************
siesta:
siesta: The following are some of the parameters of the simulation.
siesta: A complete list of the parameters used, including default values,
siesta: can be found in file out.fdf
siesta:
redata: Non-Collinear-spin run           =     F
redata: SpinPolarized (Up/Down) run      =     F
redata: Number of spin components        =     1
redata: Long output                      =     F
redata: Number of Atomic Species         =        1
redata: Charge density info will appear in .RHO file
redata: Write Mulliken Pop.              =     Atomic and Orbital charges
redata: Mesh Cutoff                      =   350.0000  Ry
redata: Net charge of the system         =     0.0000 |e|
redata: Min. number of SCF Iter          =        0
redata: Max. number of SCF Iter          =      300
redata: Mix DM or H after convergence    =     F
redata: Recompute H after scf cycle      =     F
redata: Performing Pulay mixing using    =     5 iterations
redata: Mix DM in first SCF step ?       =     T
redata: Write Pulay info on disk?        =     F
redata: Discard 1st Pulay DM after  kick =     F
redata: New DM Mixing Weight             =     0.0300
redata: New DM Occupancy tolerance       = 0.000000000001
redata: No kicks to SCF
redata: DM Mixing Weight for Kicks       =     0.5000
redata: DM Tolerance for SCF             =     0.000100
redata: Require (free) Energy convergence in SCF =     F
redata: DM (free)Energy tolerance for SCF =     0.000010 eV
redata: Require Harris convergence for SCF =     F
redata: DM Harris energy tolerance for SCF =     0.000010 eV
redata: Using Saved Data (generic)   =     F
redata: Use continuation files for DM    =     T
redata: Neglect nonoverlap interactions  =     F
redata: Method of Calculation            =         Transiesta
redata: Fix the spin of the system       =     F
redata: Dynamics option                  =     Single-point calculation
redata: ***********************************************************************
Total number of electrons:     9.000000
Total ionic charge:     9.000000

* ProcessorY, Blocksize:    2   2


* Orbital distribution balance (max,min):     3     2

k-point displ. along   3 input, could be:     0.00    0.50
 Kpoints in:          279 . Kpoints trimmed:          275

siesta: k-grid: Number of k-points =   275
siesta: k-grid: Cutoff (effective) =     4.385 Ang
siesta: k-grid: Supercell and displacements
siesta: k-grid:    3   0   0      0.000
siesta: k-grid:    0   3   0      0.000
siesta: k-grid:    0   0  60      0.000

ts_read_options: **************************************************************
ts_read_options: Save H and S matrices        =    T
ts_read_options: Save S and quit (onlyS)      =    F
ts_read_options: TranSIESTA no voltage applied
ts_read_options: Bulk Values in Electrodes    =    T
ts_read_options: TriDiag                      =    F
ts_read_options: Update DM Contact Reg. only  =    T
ts_read_options: N. Buffer At. Left           =    0
ts_read_options: N. Buffer At. Right          =    0
ts_read_options: N. Pts. Circle               =   30
ts_read_options: N. Pts. Line                 =   10
ts_read_options: N. Poles in Contour          =    3
ts_read_options: N. Pts. Bias Contour         =    0
ts_read_options: Contour E Min.               =   -2.2049 Ry
ts_read_options: GFEta                        =    0.000001 Ry
ts_read_options: Electronic Temperature       =    0.0006 Ry
ts_read_options: Bias Contour Method          =    gaussfermi
ts_read_options: Will not correct charge fluctuations
ts_read_options: Calc. band bottom in elec.   =    F
ts_read_options: GF title                     =    Generated GF file
ts_read_options: Left GF File                 =    scat.fast.TSGFL
ts_read_options: Right GF File                =    scat.fast.TSGFR
ts_read_options: Re-use GF file if exists     =    T
ts_read_options: Left electrode TSHS file     =    ./elec.fast.TSHS
ts_read_options: # atoms used in left elec.   =     3
ts_read_options: Left elec. repetition A1/A2  =   1 X   1
ts_read_options: Right electrode TSHS file    =    ./elec.fast.TSHS
ts_read_options: # atoms used in right elec.  =     3
ts_read_options: Right elec. repetition A1/A2 =   1 X   1
ts_read_options: **************************************************************

************************ Begin: TS CHECKS AND WARNINGS ************************
 NOTICE: Total number of energy points is not divisable by the number of nodes.
         There are no computational costs associated with increasing this.
         Used # of energy points   :   43
         Optimal # of energy points:   44
************************ End: TS CHECKS AND WARNINGS **************************
 
 Kpoints in:            6 . Kpoints trimmed:            5

transiesta: ts_k-grid: Number of Transport k-points =     5
transiesta: ts_k-grid: Supercell and displacements
transiesta: ts_k-grid:    3   0   0      0.000
transiesta: ts_k-grid:    0   3   0      0.000

transiesta: Atomic coordinates and regions (Ang):
##############################################
#     0.0000000     0.0000000     0.0000000  #
#     1.4615550     0.8438292     2.3867093  #     Left electrode
#     1.4615550    -0.8438292     4.7734186  #
##############################################
      0.0000000     0.0000000     7.1601280
      1.4615550     0.8438292     9.5468373        Device
      1.4615550    -0.8438292    11.9335466
##############################################
#     0.0000000     0.0000000    14.3202559  #
#     1.4615550     0.8438292    16.7069652  #     Right electrode
#     1.4615550    -0.8438292    19.0936746  #
##############################################
 
transiesta: contour integration path:
 Type         Re(c)[eV]    Im(c)[eV]     Re(weight)     Im(weight)
 Equilibrium:
 resi   :       0.00000      0.02707    0.000000000   -0.003979496
 resi   :       0.00000      0.08122    0.000000000   -0.003979496
 resi   :       0.00000      0.13536    0.000000000   -0.003979496
 fermi  :       0.19107      0.16243    0.000000000    0.000000000
 fermi  :       0.12325      0.16243    0.000000003    0.000000000
 fermi  :       0.07467      0.16243    0.000000534    0.000000000
 fermi  :       0.03770      0.16243    0.000029330    0.000000000
 fermi  :       0.00989      0.16243    0.000426928    0.000000000
 fermi  :      -0.01288      0.16243    0.001357550    0.000000000
 fermi  :      -0.03584      0.16243    0.001649495    0.000000000
 fermi  :      -0.05723      0.16243    0.001427686    0.000000000
 fermi  :      -0.07389      0.16243    0.000994590    0.000000000
 fermi  :      -0.08379      0.16243    0.000447478    0.000000000
 circle :      -0.08714      0.23516    0.000215126   -0.013710786
 circle :      -0.09521      0.54471    0.001157073   -0.031756715
 circle :      -0.12561      1.09749    0.003634542   -0.049401014
 circle :      -0.20459      1.88534    0.008415965   -0.066235554
 circle :      -0.36789      2.89377    0.016114794   -0.081720641
 circle :      -0.65813      4.09978    0.027118691   -0.095148678
 circle :      -1.12128      5.46974    0.041517660   -0.105668982
 circle :      -1.80213      6.95781    0.059042090   -0.112355286
 circle :      -2.73913      8.50563    0.079026526   -0.114312802
 circle :      -3.95899     10.04365    0.100415832   -0.110813590
 circle :      -5.47173     11.49434    0.121826529   -0.101440259
 circle :      -7.26697     12.77737    0.141667241   -0.086211518
 circle :      -9.31220     13.81608    0.158309667   -0.065661390
 circle :     -11.55362     14.54472    0.170288177   -0.040848962
 circle :     -13.91976     14.91513    0.176495843   -0.013287325
 circle :     -16.32741     14.90206    0.176341138    0.015203238
 circle :     -18.68938     14.50597    0.169834526    0.042695837
 circle :     -20.92276     13.75304    0.157587267    0.067376718
 circle :     -22.95659     12.69217    0.140722653    0.087744902
 circle :     -24.73779     11.38973    0.120717731    0.102757281
 circle :     -26.23469      9.92269    0.099206504    0.111897544
 circle :     -27.43777      8.37152    0.077780459    0.115164267
 circle :     -28.35791      6.81361    0.057818460    0.112989841
 circle :     -29.02256      5.31823    0.040367675    0.106113622
 circle :     -29.47080      3.94333    0.026083803    0.095437569
 circle :     -29.74793      2.73423    0.015226380    0.081890824
 circle :     -29.90027      1.72409    0.007696168    0.066323044
 circle :     -29.97069      0.93543    0.003097869    0.049437567
 circle :     -29.99508      0.38235    0.000812334    0.031767873
 circle :     -29.99979      0.07273    0.000066680    0.013712003
 

Creating Green's function file for: left 
 Left unit cell (Ang):
  2.9231  0.0000  0.0000
  1.4616  2.5315  0.0000
  0.0000  0.0000  7.1601
 Structure of the Left electrode  | System electrode:
     X (Ang)   Y (Ang)   Z (Ang)  |   X (Ang)   Y (Ang)   Z (Ang)
     0.00000   0.00000   0.00000  |   0.00000   0.00000   0.00000
     1.46156   0.84383   2.38671  |   1.46156   0.84383   2.38671
     1.46156  -0.84383   4.77342  |   1.46156  -0.84383   4.77342
 Electrodes with transport k-points  (Bohr**-1) and weights:
   1    -0.37915E+00   0.21890E+00   0.22222E+00
   2     0.00000E+00   0.00000E+00   0.11111E+00
   3    -0.37915E+00   0.65671E+00   0.22222E+00
   4     0.00000E+00   0.43781E+00   0.22222E+00
   5     0.37915E+00   0.21890E+00   0.22222E+00
 Atoms available    / used atoms   :      3 /      3
 Orbitals available / used orbitals:      3 /      3
 q-points for expanding electrode (Bohr**-1):
   1     0.00000E+00   0.00000E+00   0.10000E+01
 Fermi level shift in electrode :        0.00000  eV
Done creating 'scat.fast.TSGFL'.

Creating Green's function file for: right
 Right unit cell (Ang):
  2.9231  0.0000  0.0000
  1.4616  2.5315  0.0000
  0.0000  0.0000  7.1601
 Structure of the Right electrode | System electrode:
     X (Ang)   Y (Ang)   Z (Ang)  |   X (Ang)   Y (Ang)   Z (Ang)
     0.00000   0.00000   0.00000  |   0.00000   0.00000   0.00000
     1.46156   0.84383   2.38671  |   1.46156   0.84383   2.38671
     1.46156  -0.84383   4.77342  |   1.46156  -0.84383   4.77342
 Electrodes with transport k-points  (Bohr**-1) and weights:
   1    -0.37915E+00   0.21890E+00   0.22222E+00
   2     0.00000E+00   0.00000E+00   0.11111E+00
   3    -0.37915E+00   0.65671E+00   0.22222E+00
   4     0.00000E+00   0.43781E+00   0.22222E+00
   5     0.37915E+00   0.21890E+00   0.22222E+00
 Atoms available    / used atoms   :      3 /      3
 Orbitals available / used orbitals:      3 /      3
 q-points for expanding electrode (Bohr**-1):
   1     0.00000E+00   0.00000E+00   0.10000E+01
 Fermi level shift in electrode :        0.00000  eV
Done creating 'scat.fast.TSGFR'.

Left : GF atoms    / Expanded atoms    :      3 /      3
Left : GF orbitals / Expanded orbitals :      3 /      3
Right: GF atoms    / Expanded atoms    :      3 /      3
Right: GF orbitals / Expanded orbitals :      3 /      3
 
Naive supercell factors:     4    4    1

superc: Internal auxiliary supercell:     4 x     4 x     1  =      16
superc: Number of atoms, orbitals, and projectors:    144    144    576

                     ====================================
                        Single-point calculation
                     ====================================

superc: Internal auxiliary supercell:     4 x     4 x     1  =      16
superc: Number of atoms, orbitals, and projectors:    144    144    576

outcell: Unit cell vectors (Ang):
        2.923110    0.000000    0.000000
        1.461555    2.531488    0.000000
        0.000000    0.000000   21.480384

outcell: Cell vector modules (Ang)   :    2.923110    2.923110   21.480384
outcell: Cell angles (23,13,12) (deg):     90.0000     90.0000     60.0000
outcell: Cell volume (Ang**3)        :    158.9509
New_DM. Step:     1
Initializing Density Matrix...
TRANSIESTA: No TS-DensityMatrix file found
TRANSIESTA: Initialization runs using diagon
New grid distribution:   1
           1       1:   15    1:    8    1:   63
           2       1:   15    1:    8   64:  125
           3       1:   15    9:   15    1:   63
           4       1:   15    9:   15   64:  125

InitMesh: MESH =    30 x    30 x   250 =      225000
InitMesh: (bp) =    15 x    15 x   125 =       28125
InitMesh: Mesh cutoff (required, used) =   350.000   374.367 Ry
ExtMesh (bp) on 0 =    67 x    60 x   115 =      462300
New grid distribution:   2
           1       1:   15    1:   15    1:   32
           2       1:   15    1:   15   64:   94
           3       1:   15    1:   15   33:   63
           4       1:   15    1:   15   95:  125
New grid distribution:   3
           1       1:   15    1:   15    1:   32
           2       1:   15    1:   15   64:   94
           3       1:   15    1:   15   33:   63
           4       1:   15    1:   15   95:  125
Setting up quadratic distribution...
ExtMesh (bp) on 0 =    67 x    67 x    84 =      377076
PhiOnMesh: Number of (b)points on node 0 =                 7200
PhiOnMesh: nlist on node 0 =                18332

stepf: Fermi-Dirac step function

siesta: Program's energy decomposition (eV):
siesta: Ebs     =       -50.140917
siesta: Eions   =       177.365894
siesta: Ena     =        43.257184
siesta: Ekin    =       128.750035
siesta: Enl     =       -33.039288
siesta: DEna    =         0.000000
siesta: DUscf   =         0.000000
siesta: DUext   =         0.000000
siesta: Exc     =       -65.061150
siesta: eta*DQ  =         0.000000
siesta: Emadel  =         0.000000
siesta: Emeta   =         0.000000
siesta: Emolmec =         0.000000
siesta: Ekinion =         0.000000
siesta: Eharris =      -110.198628
siesta: Etot    =      -103.459113
siesta: FreeEng =      -103.460059

   scf: iscf   Eharris(eV)      E_KS(eV)   FreeEng(eV)    dDmax  Ef(eV)
   scf:    1     -110.1986     -103.4591     -103.4601  0.22280 -4.5609
timer: Routine,Calls,Time,% =    IterSCF     1       0.166  21.07
   scf:    2     -110.1990     -103.6613     -103.6623  0.21611 -4.5625
   scf:    3     -110.2046     -110.2046     -110.2055  0.00004 -4.6115

SCF Convergence by dMax criterion
max |DM_out - DM_in|:     0.00003602
SCF cycle converged after    3 iterations

                          ************************       
                          *   TRANSIESTA BEGIN   *       
                          ************************       

Creating update lists and calculating SIESTA charge distribution...

transiesta: Total elements / Updated elements :      171 /       45

Efermi from SIESTA                   :    -4.61154
Total charge                  [Qt0]  :     9.00000
Charge in update region       [Qc]   :     2.98505
Charge outside update region  [Qcn]  :     6.01495
Left electrode                [L]    :     2.98504
Left electrode/device         [L-C]  :     0.01496
Device                        [C]    :     2.98505
Device/right electrode        [C-R]  :     0.01496
Right electrode               [R]    :     2.98502
Other                         [O]    :     0.01496

 Reading GF file, with title:
   /home/albertog/code/SIESTA/trunk-ag/TS_ParIntel/Tests/TranSiesta-TBTrans/ts_fast/work/Scat/scat.fast.TSGFL
 Title: 'Generated GF file'

 Reading GF file, with title:
   /home/albertog/code/SIESTA/trunk-ag/TS_ParIntel/Tests/TranSiesta-TBTrans/ts_fast/work/Scat/scat.fast.TSGFR
 Title: 'Generated GF file'

ts-charge:        O        L      L-C        C      C-R        R       Qt
ts-charge:    0.015    2.985    0.015    2.987    0.015    2.985    9.002

siesta: Program's energy decomposition (eV):
siesta: Ebs     =       -50.630397
siesta: Eions   =       177.365894
siesta: Ena     =        43.257184
siesta: Ekin    =       118.232270
siesta: Enl     =       -32.081888
siesta: DEna    =         1.533480
siesta: DUscf   =         0.024881
siesta: DUext   =         0.000000
siesta: Exc     =       -63.804601
siesta: eta*DQ  =         0.000000
siesta: Emadel  =         0.000000
siesta: Emeta   =         0.000000
siesta: Emolmec =         0.000000
siesta: Ekinion =         0.000000
siesta: Eharris =      -110.213401
siesta: Etot    =      -110.204569
siesta: FreeEng =      -110.205514

transiesta: iscf   Eharris(eV)      E_KS(eV)   FreeEng(eV)    dDmax  Ef(eV)
transiesta:    1     -110.2134     -110.2046     -110.2055  0.00095 -4.6115
timer: Routine,Calls,Time,% =         TS     1       0.006   0.60
timer: Routine,Calls,Time,% =    TS_calc     2       0.006   0.60
ts-charge:        O        L      L-C        C      C-R        R       Qt
ts-charge:    0.015    2.985    0.015    2.984    0.015    2.985    8.999
transiesta:    2     -110.1994     -110.2048     -110.2058  0.00053 -4.6115
ts-charge:        O        L      L-C        C      C-R        R       Qt
ts-charge:    0.015    2.985    0.015    2.985    0.015    2.985    9.000
transiesta:    3     -110.2054     -110.2047     -110.2057  0.00013 -4.6115
ts-charge:        O        L      L-C        C      C-R        R       Qt
ts-charge:    0.015    2.985    0.015    2.985    0.015    2.985    9.000
transiesta:    4     -110.2048     -110.2048     -110.2057  0.00004 -4.6115

SCF Convergence by dMax criterion
max |DM_out - DM_in|:     0.00004003
SCF cycle converged after    4 iterations

Using DM_out to compute the final energy and forces

siesta: E_KS(eV) =             -110.2048

siesta: E_KS - E_eggbox =      -110.2048

siesta: Atomic forces (eV/Ang):
----------------------------------------
   Tot   -0.000000   -0.000000   -0.000000
----------------------------------------
   Max    0.001937
   Res    0.000734    sqrt( Sum f_i^2 / 3N )
----------------------------------------
   Max    0.001937    constrained

Stress-tensor-Voigt (kbar):      131.70      131.70      137.80       -0.00       -0.00       -0.00
(Free)E + p*V (eV/cell)     -123.4732
Target enthalpy (eV/cell)     -110.2058
 
mulliken: Atomic and Orbital Populations:

Species: H                   
Atom  Qatom  Qorb
               1s      
   1  1.000   1.000
   2  1.000   1.000
   3  1.000   1.000
   4  1.000   1.000
   5  1.000   1.000
   6  1.000   1.000
   7  1.000   1.000
   8  1.000   1.000
   9  1.000   1.000

mulliken: Qtot =        9.000

coxmol: Writing XMOL coordinates into file scat.fast.xyz                                                   

siesta: Program's energy decomposition (eV):
siesta: Ebs     =       -50.616406
siesta: Eions   =       177.365894
siesta: Ena     =        43.257184
siesta: Ekin    =       118.232896
siesta: Enl     =       -32.082055
siesta: DEna    =         1.533205
siesta: DUscf   =         0.024874
siesta: DUext   =         0.000000
siesta: Exc     =       -63.805032
siesta: eta*DQ  =         0.000000
siesta: Emadel  =         0.000000
siesta: Emeta   =         0.000000
siesta: Emolmec =         0.000000
siesta: Ekinion =         0.000000
siesta: Eharris =      -110.204821
siesta: Etot    =      -110.204822
siesta: FreeEng =      -110.205767

siesta: Final energy (eV):
siesta:  Band Struct. =     -50.616406
siesta:       Kinetic =     118.232896
siesta:       Hartree =      17.777102
siesta:    Ext. field =       0.000000
siesta:   Exch.-corr. =     -63.805032
siesta:  Ion-electron =    -121.228416
siesta:       Ion-ion =     -61.181372
siesta:       Ekinion =       0.000000
siesta:         Total =    -110.204822

siesta: Stress tensor (static) (eV/Ang**3):
siesta:     0.082200   -0.000000   -0.000000
siesta:    -0.000000    0.082200   -0.000000
siesta:    -0.000000   -0.000000    0.086007

siesta: Cell volume =        158.950899 Ang**3

siesta: Pressure (static):
siesta:                Solid            Molecule  Units
siesta:          -0.00090908         -0.00090821  Ry/Bohr**3
siesta:          -0.08346876         -0.08338836  eV/Ang**3
siesta:        -133.73315006       -133.60432792  kBar
(Free)E+ p_basis*V_orbitals  =        -109.741584
(Free)Eharris+ p_basis*V_orbitals  =        -109.741584
>> End of run:   3-OCT-2015   4:59:56
