
                           ***********************       
                           *  WELCOME TO TBTRANS *       
                           ***********************       

reinit: Reading from standard input
************************** Dump of input data file ****************************
SystemName  scat.fast
SystemLabel scat.fast
==================================================
==================================================
# SPECIES AND BASIS
# Number of species
NumberOfSpecies 1
%block ChemicalSpeciesLabel
  1  1 H
%endblock ChemicalSpeciesLabel
PAO.BasisSize    SZ
PAO.EnergyShift  0.05 Ry
==================================================
==================================================
# K-points
%block kgrid_Monkhorst_Pack
3   0   0   0.0
0   3   0   0.0
0   0   60  0.0
%endblock kgrid_Monkhorst_Pack
==================================================
==================================================
# UNIT CELL AND ATOMIC POSITIONS
# UNIT CELL
LatticeConstant       2.92311 Ang
%block LatticeVectors
1.000000000   0.00000000000   0.0000000000
0.500000000   0.86602540378   0.0000000000
0.000000000   0.00000000000   2.4494897428
%endblock LatticeVectors
# Atomic coordinates
NumberOfAtoms 3
AtomicCoordinatesFormat ScaledCartesian
%block AtomicCoordinatesAndAtomicSpecies
       0.000000000       0.000000000       0.000000000    1
       0.500000000       0.288675135       0.816496581    1
       0.500000000      -0.288675135       1.632993162    1
%endblock AtomicCoordinatesAndAtomicSpecies
%block SuperCell
1 0 0
0 1 0
0 0 3
%endblock SuperCell
==================================================
==================================================
# General variables
ElectronicTemperature  100 K
MeshCutoff           350. Ry
xc.functional         LDA           # Exchange-correlation functional
xc.authors            CA
SpinPolarized .false.
SolutionMethod Transiesta
==================================================
==================================================
# SCF variables
DM.MixSCF1   T
MaxSCFIterations      300           # Maximum number of SCF iter
DM.MixingWeight       0.03          # New DM amount for next SCF cycle
DM.Tolerance          1.d-4         # Tolerance in maximum difference
DM.UseSaveDM          true          # to use continuation files
DM.NumberPulay         5
Diag.DivideAndConquer  no
Diag.ParallelOverK     yes
==================================================
==================================================
# MD variables
MD.FinalTimeStep 1
MD.TypeOfRun CG
MD.NumCGsteps     000
MD.UseSaveXV      .true.
==================================================
==================================================
# Output variables
WriteMullikenPop                1
WriteBands                      .false.
SaveRho                         .false.
SaveDeltaRho                    .false.
SaveHS                          .false.
SaveElectrostaticPotential      True
SaveTotalPotential              no
WriteCoorXmol                   .true.
WriteMDXmol                     .true.
WriteMDhistory                  .false.
WriteEigenvalues                yes
==================================================
==================================================
# Transiesta/tbrans information
# GF OPTIONS
TS.ComplexContour.Emin    -30.0 eV
TS.ComplexContour.NPoles       03
TS.ComplexContour.NCircle      30
TS.ComplexContour.NLine        10
# BIAS CONTOUR OPTIONS
TS.biasContour.NumPoints       00
# TS VOLTAGE
TS.Voltage 0.000000 eV
# TBT OPTIONS
TS.TBT.Emin -1.0 eV
TS.TBT.Emax +1.0 eV
TS.TBT.NPoints 100
TS.TBT.NEigen 3
TS.TBT.Eta        0.000001 Ry
TS.TBT.PDOSFrom   5
TS.TBT.PDOSTo     5
TS.TBT.CalcIeig  yes
# Write hamiltonian
TS.SaveHS   .true.
# LEFT ELECTRODE
TS.HSFileLeft  ./elec.fast.TSHS
TS.NumUsedAtomsLeft   03
TS.BufferAtomsLeft    0
# RIGHT ELECTRODE
TS.HSFileRight  ./elec.fast.TSHS
TS.NumUsedAtomsRight  03
TS.BufferAtomsRight   0
==================================================
==================================================
************************** End of input data file *****************************

reinit: -----------------------------------------------------------------------
reinit: System Name: scat.fast
reinit: -----------------------------------------------------------------------
reinit: System Label: scat.fast                                                   
reinit: -----------------------------------------------------------------------
tbtrans: Voltage                         =     0.0000
Emin,Emax =      -0.999999      0.999999
Energy points in tbtrans =        100
tbtrans: Spin-polarized = F
 contour:  Simple Line Contour:
 contour:     -0.99000      0.00001      0.019999979   1
 contour:     -0.97000      0.00001      0.019999979   2
 contour:     -0.95000      0.00001      0.019999979   3
 contour:     -0.93000      0.00001      0.019999979   4
 contour:     -0.91000      0.00001      0.019999979   5
 contour:     -0.89000      0.00001      0.019999979   6
 contour:     -0.87000      0.00001      0.019999979   7
 contour:     -0.85000      0.00001      0.019999979   8
 contour:     -0.83000      0.00001      0.019999979   9
 contour:     -0.81000      0.00001      0.019999979  10
 contour:     -0.79000      0.00001      0.019999979  11
 contour:     -0.77000      0.00001      0.019999979  12
 contour:     -0.75000      0.00001      0.019999979  13
 contour:     -0.73000      0.00001      0.019999979  14
 contour:     -0.71000      0.00001      0.019999979  15
 contour:     -0.69000      0.00001      0.019999979  16
 contour:     -0.67000      0.00001      0.019999979  17
 contour:     -0.65000      0.00001      0.019999979  18
 contour:     -0.63000      0.00001      0.019999979  19
 contour:     -0.61000      0.00001      0.019999979  20
 contour:     -0.59000      0.00001      0.019999979  21
 contour:     -0.57000      0.00001      0.019999979  22
 contour:     -0.55000      0.00001      0.019999979  23
 contour:     -0.53000      0.00001      0.019999979  24
 contour:     -0.51000      0.00001      0.019999979  25
 contour:     -0.49000      0.00001      0.019999979  26
 contour:     -0.47000      0.00001      0.019999979  27
 contour:     -0.45000      0.00001      0.019999979  28
 contour:     -0.43000      0.00001      0.019999979  29
 contour:     -0.41000      0.00001      0.019999979  30
 contour:     -0.39000      0.00001      0.019999979  31
 contour:     -0.37000      0.00001      0.019999979  32
 contour:     -0.35000      0.00001      0.019999979  33
 contour:     -0.33000      0.00001      0.019999979  34
 contour:     -0.31000      0.00001      0.019999979  35
 contour:     -0.29000      0.00001      0.019999979  36
 contour:     -0.27000      0.00001      0.019999979  37
 contour:     -0.25000      0.00001      0.019999979  38
 contour:     -0.23000      0.00001      0.019999979  39
 contour:     -0.21000      0.00001      0.019999979  40
 contour:     -0.19000      0.00001      0.019999979  41
 contour:     -0.17000      0.00001      0.019999979  42
 contour:     -0.15000      0.00001      0.019999979  43
 contour:     -0.13000      0.00001      0.019999979  44
 contour:     -0.11000      0.00001      0.019999979  45
 contour:     -0.09000      0.00001      0.019999979  46
 contour:     -0.07000      0.00001      0.019999979  47
 contour:     -0.05000      0.00001      0.019999979  48
 contour:     -0.03000      0.00001      0.019999979  49
 contour:     -0.01000      0.00001      0.019999979  50
 contour:      0.01000      0.00001      0.019999979  51
 contour:      0.03000      0.00001      0.019999979  52
 contour:      0.05000      0.00001      0.019999979  53
 contour:      0.07000      0.00001      0.019999979  54
 contour:      0.09000      0.00001      0.019999979  55
 contour:      0.11000      0.00001      0.019999979  56
 contour:      0.13000      0.00001      0.019999979  57
 contour:      0.15000      0.00001      0.019999979  58
 contour:      0.17000      0.00001      0.019999979  59
 contour:      0.19000      0.00001      0.019999979  60
 contour:      0.21000      0.00001      0.019999979  61
 contour:      0.23000      0.00001      0.019999979  62
 contour:      0.25000      0.00001      0.019999979  63
 contour:      0.27000      0.00001      0.019999979  64
 contour:      0.29000      0.00001      0.019999979  65
 contour:      0.31000      0.00001      0.019999979  66
 contour:      0.33000      0.00001      0.019999979  67
 contour:      0.35000      0.00001      0.019999979  68
 contour:      0.37000      0.00001      0.019999979  69
 contour:      0.39000      0.00001      0.019999979  70
 contour:      0.41000      0.00001      0.019999979  71
 contour:      0.43000      0.00001      0.019999979  72
 contour:      0.45000      0.00001      0.019999979  73
 contour:      0.47000      0.00001      0.019999979  74
 contour:      0.49000      0.00001      0.019999979  75
 contour:      0.51000      0.00001      0.019999979  76
 contour:      0.53000      0.00001      0.019999979  77
 contour:      0.55000      0.00001      0.019999979  78
 contour:      0.57000      0.00001      0.019999979  79
 contour:      0.59000      0.00001      0.019999979  80
 contour:      0.61000      0.00001      0.019999979  81
 contour:      0.63000      0.00001      0.019999979  82
 contour:      0.65000      0.00001      0.019999979  83
 contour:      0.67000      0.00001      0.019999979  84
 contour:      0.69000      0.00001      0.019999979  85
 contour:      0.71000      0.00001      0.019999979  86
 contour:      0.73000      0.00001      0.019999979  87
 contour:      0.75000      0.00001      0.019999979  88
 contour:      0.77000      0.00001      0.019999979  89
 contour:      0.79000      0.00001      0.019999979  90
 contour:      0.81000      0.00001      0.019999979  91
 contour:      0.83000      0.00001      0.019999979  92
 contour:      0.85000      0.00001      0.019999979  93
 contour:      0.87000      0.00001      0.019999979  94
 contour:      0.89000      0.00001      0.019999979  95
 contour:      0.91000      0.00001      0.019999979  96
 contour:      0.93000      0.00001      0.019999979  97
 contour:      0.95000      0.00001      0.019999979  98
 contour:      0.97000      0.00001      0.019999979  99
 contour:      0.99000      0.00001      0.019999979 100
 WARNING !!!!
 Number of Nodes greater than number of k-Points !!
 Some nodes will be innactive in k-point parallelization !!

************************************************************************
 K-Points On Nodes:

 Node  Numb. K Pts.  Tot. K Pts. 
  0        0            6
  1        1            6
  2        1            6
  3        1            6
  4        1            6
  5        1            6
  6        1            6
  7        0            6
------------------------------------------------------------------------
 K-Points Coordinates and Weights (Node,kx,ky,kz,wk),:

        1    -0.37915     0.21890     0.00000     0.11111
        2     0.00000     0.00000     0.00000     0.11111
        3     0.37915    -0.21890     0.00000     0.11111
        4    -0.37915     0.65671     0.00000     0.22222
        5     0.00000     0.43781     0.00000     0.22222
        6     0.37915     0.21890     0.00000     0.22222
************************************************************************

 unit cell:
  5.5239  0.0000  0.0000
  2.7619  4.7838  0.0000
  0.0000  0.0000 13.5307
 unit cell:
  5.5239  0.0000  0.0000
  2.7619  4.7838  0.0000
  0.0000  0.0000 13.5307
 ==============================================================
  Projection Region: atoms : [         5;         5]
  Projection Region: states: [         2;         2] Tot:         1

  Starting K-Point loop for spin:   1

 Transport for spin ->  1  , kxy-point ->   1, of Node     1
           kxy=(-.379 0.219 0.000 ),w= 0.1111
    E           T(E)            TotDOS         PDOS
 -0.99000  0.19999999E+01  0.40948251E+02  0.13973311E+02
 -0.97000  0.20000000E+01  0.39523507E+02  0.13478316E+02
 -0.95000  0.20000000E+01  0.38267218E+02  0.13041382E+02
 -0.93000  0.20000000E+01  0.37150559E+02  0.12652578E+02
 -0.91000  0.20000000E+01  0.36151215E+02  0.12304215E+02
 -0.89000  0.20000000E+01  0.35251609E+02  0.11990233E+02
 -0.87000  0.20000000E+01  0.34437683E+02  0.11705787E+02
 -0.85000  0.20000000E+01  0.33698050E+02  0.11446951E+02
 -0.83000  0.20000000E+01  0.33023374E+02  0.11210504E+02
 -0.81000  0.20000000E+01  0.32405923E+02  0.10993780E+02
 -0.79000  0.20000000E+01  0.31839237E+02  0.10794551E+02
 -0.77000  0.20000000E+01  0.31317867E+02  0.10610942E+02
 -0.75000  0.20000000E+01  0.30837186E+02  0.10441232E+02
 -0.73000  0.20000000E+01  0.30393250E+02  0.10284356E+02
 -0.71000  0.20000000E+01  0.29982652E+02  0.10138888E+02
 -0.69000  0.20000000E+01  0.29602455E+02  0.10003876E+02
 -0.67000  0.20000000E+01  0.29250106E+02  0.98784428E+01
 -0.65000  0.20000000E+01  0.28923377E+02  0.97618165E+01
 -0.63000  0.20000000E+01  0.28620316E+02  0.96533222E+01
 -0.61000  0.20000000E+01  0.28339209E+02  0.95523659E+01
 -0.59000  0.20000000E+01  0.28078544E+02  0.94584235E+01
 -0.57000  0.20000000E+01  0.27836983E+02  0.93710316E+01
 -0.55000  0.20000000E+01  0.27613346E+02  0.92897794E+01
 -0.53000  0.20000000E+01  0.27406581E+02  0.92143021E+01
 -0.51000  0.20000000E+01  0.27215758E+02  0.91442755E+01
 -0.49000  0.20000000E+01  0.27040050E+02  0.90794111E+01
 -0.47000  0.20000000E+01  0.26878723E+02  0.90194526E+01
 -0.45000  0.20000000E+01  0.26731124E+02  0.89641719E+01
 -0.43000  0.20000000E+01  0.26596678E+02  0.89133665E+01
 -0.41000  0.20000000E+01  0.26474876E+02  0.88668571E+01
 -0.39000  0.20000000E+01  0.26365269E+02  0.88244857E+01
 -0.37000  0.19999999E+01  0.26267466E+02  0.87861131E+01
 -0.35000  0.19999999E+01  0.26181129E+02  0.87516184E+01
 -0.33000  0.19999999E+01  0.26105968E+02  0.87208967E+01
 -0.31000  0.19999999E+01  0.26041735E+02  0.86938589E+01
 -0.29000  0.19999999E+01  0.25988230E+02  0.86704302E+01
 -0.27000  0.19999999E+01  0.25945291E+02  0.86505497E+01
 -0.25000  0.19999999E+01  0.25912795E+02  0.86341696E+01
 -0.23000  0.19999999E+01  0.25890658E+02  0.86212552E+01
 -0.21000  0.19999999E+01  0.25878834E+02  0.86117839E+01
 -0.19000  0.19999999E+01  0.25877312E+02  0.86057458E+01
 -0.17000  0.19999999E+01  0.25886119E+02  0.86031430E+01
 -0.15000  0.19999999E+01  0.25905319E+02  0.86039901E+01
 -0.13000  0.19999999E+01  0.25935015E+02  0.86083140E+01
 -0.11000  0.19999999E+01  0.25975346E+02  0.86161548E+01
 -0.09000  0.19999999E+01  0.26026495E+02  0.86275656E+01
 -0.07000  0.20000000E+01  0.26088685E+02  0.86426136E+01
 -0.05000  0.20000000E+01  0.26162184E+02  0.86613807E+01
 -0.03000  0.20000000E+01  0.26247311E+02  0.86839642E+01
 -0.01000  0.20000000E+01  0.26344431E+02  0.87104783E+01
  0.01000  0.20000000E+01  0.26453970E+02  0.87410552E+01
  0.03000  0.20000000E+01  0.26576411E+02  0.87758468E+01
  0.05000  0.20000000E+01  0.26712305E+02  0.88150267E+01
  0.07000  0.20000000E+01  0.26862276E+02  0.88587921E+01
  0.09000  0.20000000E+01  0.27027032E+02  0.89073668E+01
  0.11000  0.20000000E+01  0.27207369E+02  0.89610041E+01
  0.13000  0.20000000E+01  0.27404188E+02  0.90199904E+01
  0.15000  0.20000000E+01  0.27618506E+02  0.90846497E+01
  0.17000  0.20000000E+01  0.27851473E+02  0.91553488E+01
  0.19000  0.20000000E+01  0.28104389E+02  0.92325034E+01
  0.21000  0.20000000E+01  0.28378729E+02  0.93165856E+01
  0.23000  0.20000000E+01  0.28676170E+02  0.94081359E+01
  0.25000  0.20000000E+01  0.28998636E+02  0.95074629E+01
  0.27000  0.20000000E+01  0.29348279E+02  0.96161183E+01
  0.29000  0.20000000E+01  0.29727643E+02  0.97340980E+01
  0.31000  0.20000000E+01  0.30139615E+02  0.98625827E+01
  0.33000  0.20000000E+01  0.30587551E+02  0.10002653E+02
  0.35000  0.20000000E+01  0.31075365E+02  0.10155564E+02
  0.37000  0.20000000E+01  0.31607647E+02  0.10322792E+02
  0.39000  0.20000000E+01  0.32189816E+02  0.10506076E+02
  0.41000  0.20000000E+01  0.32828321E+02  0.10707487E+02
  0.43000  0.20000000E+01  0.33530900E+02  0.10929513E+02
  0.45000  0.20000000E+01  0.34306927E+02  0.11175165E+02
  0.47000  0.20000000E+01  0.35167881E+02  0.11448134E+02
  0.49000  0.20000000E+01  0.36127987E+02  0.11752994E+02
  0.51000  0.20000000E+01  0.37205117E+02  0.12095491E+02
  0.53000  0.20000000E+01  0.38422080E+02  0.12482961E+02
  0.55000  0.20000000E+01  0.39808512E+02  0.12924937E+02
  0.57000  0.20000000E+01  0.41403741E+02  0.13434071E+02
  0.59000  0.20000000E+01  0.43261265E+02  0.14027578E+02
  0.61000  0.20000000E+01  0.45456050E+02  0.14729583E+02
  0.63000  0.20000000E+01  0.48097018E+02  0.15575141E+02
  0.65000  0.20000000E+01  0.51349719E+02  0.16617542E+02
  0.67000  0.20000000E+01  0.55480753E+02  0.17942616E+02
  0.69000  0.20000000E+01  0.60953803E+02  0.19699658E+02
  0.71000  0.20000000E+01  0.68667361E+02  0.22178004E+02
  0.73000  0.20000000E+01  0.80673226E+02  0.26038467E+02
  0.75000  0.19999999E+01  0.10321380E+03  0.33291793E+02
  0.77000  0.19999992E+01  0.17479906E+03  0.56344436E+02
  0.79000  0.46797134E-06  0.90778112E-01  0.28522417E-01
  0.81000  0.26147496E-07  0.12704814E-01  0.37906216E-02
  0.83000  0.60796004E-08  0.49315477E-02  0.13997219E-02
  0.85000  0.21845890E-08  0.25983277E-02  0.70270362E-03
  0.87000  0.97734667E-09  0.15930847E-02  0.41113591E-03
  0.89000  0.49992480E-09  0.10702654E-02  0.26394268E-03
  0.91000  0.28012299E-09  0.76458923E-03  0.18041886E-03
  0.93000  0.16774579E-09  0.57093235E-03  0.12906345E-03
  0.95000  0.10568863E-09  0.44083099E-03  0.95577000E-04
  0.97000  0.69326518E-10  0.34941909E-03  0.72737725E-04
  0.99000  0.46991580E-10  0.28287497E-03  0.56595548E-04
 Transport for spin ->  1  , kxy-point ->   1, of Node     2
           kxy=(0.000 0.000 0.000 ),w= 0.1111
    E           T(E)            TotDOS         PDOS
 -0.99000  0.20000000E+01  0.19219533E+02  0.63291913E+01
 -0.97000  0.20000000E+01  0.19391579E+02  0.63841346E+01
 -0.95000  0.20000000E+01  0.19573372E+02  0.64422564E+01
 -0.93000  0.20000000E+01  0.19765586E+02  0.65037752E+01
 -0.91000  0.20000000E+01  0.19968962E+02  0.65689326E+01
 -0.89000  0.20000000E+01  0.20184326E+02  0.66379973E+01
 -0.87000  0.20000000E+01  0.20412598E+02  0.67112684E+01
 -0.85000  0.20000000E+01  0.20654805E+02  0.67890804E+01
 -0.83000  0.20000000E+01  0.20912100E+02  0.68718081E+01
 -0.81000  0.20000000E+01  0.21185780E+02  0.69598737E+01
 -0.79000  0.20000000E+01  0.21477308E+02  0.70537539E+01
 -0.77000  0.20000000E+01  0.21788347E+02  0.71539896E+01
 -0.75000  0.20000000E+01  0.22120790E+02  0.72611974E+01
 -0.73000  0.20000000E+01  0.22476807E+02  0.73760832E+01
 -0.71000  0.20000000E+01  0.22858892E+02  0.74994599E+01
 -0.69000  0.20000000E+01  0.23269937E+02  0.76322687E+01
 -0.67000  0.20000000E+01  0.23713310E+02  0.77756062E+01
 -0.65000  0.20000000E+01  0.24192961E+02  0.79307592E+01
 -0.63000  0.20000000E+01  0.24713559E+02  0.80992484E+01
 -0.61000  0.20000000E+01  0.25280670E+02  0.82828864E+01
 -0.59000  0.20000000E+01  0.25900986E+02  0.84838533E+01
 -0.57000  0.20000000E+01  0.26582640E+02  0.87047983E+01
 -0.55000  0.20000000E+01  0.27335626E+02  0.89489769E+01
 -0.53000  0.20000000E+01  0.28172384E+02  0.92204423E+01
 -0.51000  0.20000000E+01  0.29108629E+02  0.95243140E+01
 -0.49000  0.20000000E+01  0.30164540E+02  0.98671674E+01
 -0.47000  0.20000000E+01  0.31366541E+02  0.10257612E+02
 -0.45000  0.20000000E+01  0.32750016E+02  0.10707178E+02
 -0.43000  0.20000000E+01  0.34363628E+02  0.11231724E+02
 -0.41000  0.20000000E+01  0.36276495E+02  0.11853774E+02
 -0.39000  0.20000000E+01  0.38590741E+02  0.12606611E+02
 -0.37000  0.20000000E+01  0.41464950E+02  0.13541922E+02
 -0.35000  0.20000000E+01  0.45161838E+02  0.14745338E+02
 -0.33000  0.20000000E+01  0.50156571E+02  0.16371742E+02
 -0.31000  0.20000000E+01  0.57424686E+02  0.18739137E+02
 -0.29000  0.20000000E+01  0.69416786E+02  0.22646406E+02
 -0.27000  0.19999999E+01  0.95205329E+02  0.31051296E+02
 -0.25000  0.19999880E+01  0.29289251E+03  0.95501410E+02
 -0.23000  0.12799542E-06  0.27650113E-01  0.87669744E-02
 -0.21000  0.18982703E-07  0.74911635E-02  0.23025749E-02
 -0.19000  0.60092740E-08  0.34976686E-02  0.10428417E-02
 -0.17000  0.25783699E-08  0.20259946E-02  0.58628114E-03
 -0.15000  0.13078200E-08  0.13198038E-02  0.37089189E-03
 -0.13000  0.73825141E-09  0.92616565E-03  0.25288889E-03
 -0.11000  0.44907276E-09  0.68430327E-03  0.18164213E-03
 -0.09000  0.28873174E-09  0.52513122E-03  0.13557447E-03
 -0.07000  0.19377295E-09  0.41487951E-03  0.10422729E-03
 -0.05000  0.13457661E-09  0.33542354E-03  0.82035537E-04
 -0.03000  0.96124606E-10  0.27631852E-03  0.65820333E-04
 -0.01000  0.70289054E-10  0.23119809E-03  0.53661366E-04
  0.01000  0.52432225E-10  0.19600144E-03  0.44344892E-04
  0.03000  0.39789418E-10  0.16803920E-03  0.37074493E-04
  0.05000  0.30650544E-10  0.14547303E-03  0.31310863E-04
  0.07000  0.23923933E-10  0.12701190E-03  0.26678855E-04
  0.09000  0.18893402E-10  0.11172776E-03  0.22911376E-04
  0.11000  0.15077749E-10  0.98939750E-04  0.19814375E-04
  0.13000  0.12146768E-10  0.88139298E-04  0.17244324E-04
  0.15000  0.98695836E-11  0.78940439E-04  0.15093370E-04
  0.17000  0.80820345E-11  0.71046045E-04  0.13279311E-04
  0.19000  0.66656189E-11  0.64224429E-04  0.11738689E-04
  0.21000  0.55336134E-11  0.58292825E-04  0.10421953E-04
  0.23000  0.46217535E-11  0.53105531E-04  0.92899994E-05
  0.25000  0.38818704E-11  0.48545272E-04  0.83116737E-05
  0.27000  0.32774791E-11  0.44516816E-04  0.74619372E-05
  0.29000  0.27806756E-11  0.40942200E-04  0.67205022E-05
  0.31000  0.23699269E-11  0.37757122E-04  0.60708078E-05
  0.33000  0.20284777E-11  0.34908175E-04  0.54992418E-05
  0.35000  0.17431893E-11  0.32350714E-04  0.49945435E-05
  0.37000  0.15036841E-11  0.30047198E-04  0.45473417E-05
  0.39000  0.13017103E-11  0.27965877E-04  0.41497940E-05
  0.41000  0.11306640E-11  0.26079761E-04  0.37953030E-05
  0.43000  0.98522939E-12  0.24365791E-04  0.34782913E-05
  0.45000  0.86110273E-12  0.22804177E-04  0.31940223E-05
  0.47000  0.75478164E-12  0.21377861E-04  0.29384555E-05
  0.49000  0.66340142E-12  0.20072076E-04  0.27081304E-05
  0.51000  0.58460783E-12  0.18873993E-04  0.25000715E-05
  0.53000  0.51645743E-12  0.17772422E-04  0.23117113E-05
  0.55000  0.45733905E-12  0.16757570E-04  0.21408260E-05
  0.57000  0.40591152E-12  0.15820841E-04  0.19854838E-05
  0.59000  0.36105412E-12  0.14954660E-04  0.18440008E-05
  0.61000  0.32182686E-12  0.14152337E-04  0.17149051E-05
  0.63000  0.28743857E-12  0.13407945E-04  0.15969060E-05
  0.65000  0.25722110E-12  0.12716219E-04  0.14888691E-05
  0.67000  0.23060833E-12  0.12072468E-04  0.13897947E-05
  0.69000  0.20711915E-12  0.11472505E-04  0.12987991E-05
  0.71000  0.18634345E-12  0.10912582E-04  0.12151000E-05
  0.73000  0.16793066E-12  0.10389338E-04  0.11380027E-05
  0.75000  0.15158029E-12  0.98997500E-05  0.10668894E-05
  0.77000  0.13703408E-12  0.94410963E-05  0.10012090E-05
  0.79000  0.12406951E-12  0.90109190E-05  0.94046933E-06
  0.81000  0.11249441E-12  0.86069957E-05  0.88422997E-06
  0.83000  0.10214238E-12  0.82273126E-05  0.83209584E-06
  0.85000  0.92869065E-13  0.78700417E-05  0.78371201E-06
  0.87000  0.84548903E-13  0.75335211E-05  0.73875910E-06
  0.89000  0.77072492E-13  0.72162371E-05  0.69694918E-06
  0.91000  0.70344291E-13  0.69168087E-05  0.65802227E-06
  0.93000  0.64280707E-13  0.66339745E-05  0.62174326E-06
  0.95000  0.58808457E-13  0.63665801E-05  0.58789922E-06
  0.97000  0.53863178E-13  0.61135678E-05  0.55629699E-06
  0.99000  0.49388242E-13  0.58739672E-05  0.52676114E-06
 Transport for spin ->  1  , kxy-point ->   1, of Node     3
           kxy=(0.379 -.219 0.000 ),w= 0.1111
    E           T(E)            TotDOS         PDOS
 -0.99000  0.19999999E+01  0.40948251E+02  0.13973224E+02
 -0.97000  0.20000000E+01  0.39523507E+02  0.13478234E+02
 -0.95000  0.20000000E+01  0.38267218E+02  0.13041306E+02
 -0.93000  0.20000000E+01  0.37150559E+02  0.12652508E+02
 -0.91000  0.20000000E+01  0.36151215E+02  0.12304150E+02
 -0.89000  0.20000000E+01  0.35251609E+02  0.11990173E+02
 -0.87000  0.20000000E+01  0.34437683E+02  0.11705733E+02
 -0.85000  0.20000000E+01  0.33698050E+02  0.11446901E+02
 -0.83000  0.20000000E+01  0.33023374E+02  0.11210459E+02
 -0.81000  0.20000000E+01  0.32405923E+02  0.10993740E+02
 -0.79000  0.20000000E+01  0.31839237E+02  0.10794515E+02
 -0.77000  0.20000000E+01  0.31317867E+02  0.10610910E+02
 -0.75000  0.20000000E+01  0.30837186E+02  0.10441205E+02
 -0.73000  0.20000000E+01  0.30393250E+02  0.10284332E+02
 -0.71000  0.20000000E+01  0.29982652E+02  0.10138868E+02
 -0.69000  0.20000000E+01  0.29602455E+02  0.10003860E+02
 -0.67000  0.20000000E+01  0.29250106E+02  0.98784303E+01
 -0.65000  0.20000000E+01  0.28923377E+02  0.97618074E+01
 -0.63000  0.20000000E+01  0.28620316E+02  0.96533164E+01
 -0.61000  0.20000000E+01  0.28339209E+02  0.95523632E+01
 -0.59000  0.20000000E+01  0.28078544E+02  0.94584239E+01
 -0.57000  0.20000000E+01  0.27836983E+02  0.93710349E+01
 -0.55000  0.20000000E+01  0.27613346E+02  0.92897855E+01
 -0.53000  0.20000000E+01  0.27406581E+02  0.92143108E+01
 -0.51000  0.20000000E+01  0.27215758E+02  0.91442866E+01
 -0.49000  0.20000000E+01  0.27040050E+02  0.90794246E+01
 -0.47000  0.20000000E+01  0.26878723E+02  0.90194683E+01
 -0.45000  0.20000000E+01  0.26731124E+02  0.89641897E+01
 -0.43000  0.20000000E+01  0.26596678E+02  0.89133862E+01
 -0.41000  0.20000000E+01  0.26474876E+02  0.88668788E+01
 -0.39000  0.20000000E+01  0.26365269E+02  0.88245090E+01
 -0.37000  0.19999999E+01  0.26267466E+02  0.87861381E+01
 -0.35000  0.19999999E+01  0.26181129E+02  0.87516448E+01
 -0.33000  0.19999999E+01  0.26105968E+02  0.87209244E+01
 -0.31000  0.19999999E+01  0.26041735E+02  0.86938878E+01
 -0.29000  0.19999999E+01  0.25988230E+02  0.86704602E+01
 -0.27000  0.19999999E+01  0.25945291E+02  0.86505807E+01
 -0.25000  0.19999999E+01  0.25912795E+02  0.86342015E+01
 -0.23000  0.19999999E+01  0.25890658E+02  0.86212878E+01
 -0.21000  0.19999999E+01  0.25878834E+02  0.86118172E+01
 -0.19000  0.19999999E+01  0.25877312E+02  0.86057796E+01
 -0.17000  0.19999999E+01  0.25886119E+02  0.86031772E+01
 -0.15000  0.19999999E+01  0.25905319E+02  0.86040245E+01
 -0.13000  0.19999999E+01  0.25935015E+02  0.86083487E+01
 -0.11000  0.19999999E+01  0.25975346E+02  0.86161895E+01
 -0.09000  0.19999999E+01  0.26026495E+02  0.86276003E+01
 -0.07000  0.20000000E+01  0.26088685E+02  0.86426482E+01
 -0.05000  0.20000000E+01  0.26162184E+02  0.86614150E+01
 -0.03000  0.20000000E+01  0.26247311E+02  0.86839981E+01
 -0.01000  0.20000000E+01  0.26344431E+02  0.87105117E+01
  0.01000  0.20000000E+01  0.26453970E+02  0.87410880E+01
  0.03000  0.20000000E+01  0.26576411E+02  0.87758790E+01
  0.05000  0.20000000E+01  0.26712305E+02  0.88150581E+01
  0.07000  0.20000000E+01  0.26862276E+02  0.88588227E+01
  0.09000  0.20000000E+01  0.27027032E+02  0.89073964E+01
  0.11000  0.20000000E+01  0.27207369E+02  0.89610326E+01
  0.13000  0.20000000E+01  0.27404188E+02  0.90200177E+01
  0.15000  0.20000000E+01  0.27618506E+02  0.90846757E+01
  0.17000  0.20000000E+01  0.27851473E+02  0.91553735E+01
  0.19000  0.20000000E+01  0.28104389E+02  0.92325266E+01
  0.21000  0.20000000E+01  0.28378729E+02  0.93166072E+01
  0.23000  0.20000000E+01  0.28676170E+02  0.94081558E+01
  0.25000  0.20000000E+01  0.28998636E+02  0.95074815E+01
  0.27000  0.20000000E+01  0.29348279E+02  0.96161346E+01
  0.29000  0.20000000E+01  0.29727643E+02  0.97341124E+01
  0.31000  0.20000000E+01  0.30139615E+02  0.98625950E+01
  0.33000  0.20000000E+01  0.30587551E+02  0.10002663E+02
  0.35000  0.20000000E+01  0.31075365E+02  0.10155572E+02
  0.37000  0.20000000E+01  0.31607647E+02  0.10322798E+02
  0.39000  0.20000000E+01  0.32189816E+02  0.10506079E+02
  0.41000  0.20000000E+01  0.32828321E+02  0.10707488E+02
  0.43000  0.20000000E+01  0.33530900E+02  0.10929511E+02
  0.45000  0.20000000E+01  0.34306927E+02  0.11175161E+02
  0.47000  0.20000000E+01  0.35167881E+02  0.11448127E+02
  0.49000  0.20000000E+01  0.36127987E+02  0.11752984E+02
  0.51000  0.20000000E+01  0.37205117E+02  0.12095478E+02
  0.53000  0.20000000E+01  0.38422080E+02  0.12482945E+02
  0.55000  0.20000000E+01  0.39808512E+02  0.12924918E+02
  0.57000  0.20000000E+01  0.41403741E+02  0.13434049E+02
  0.59000  0.20000000E+01  0.43261265E+02  0.14027553E+02
  0.61000  0.20000000E+01  0.45456050E+02  0.14729554E+02
  0.63000  0.20000000E+01  0.48097018E+02  0.15575109E+02
  0.65000  0.20000000E+01  0.51349719E+02  0.16617507E+02
  0.67000  0.20000000E+01  0.55480753E+02  0.17942577E+02
  0.69000  0.20000000E+01  0.60953803E+02  0.19699616E+02
  0.71000  0.20000000E+01  0.68667361E+02  0.22177958E+02
  0.73000  0.20000000E+01  0.80673226E+02  0.26038417E+02
  0.75000  0.19999999E+01  0.10321380E+03  0.33291739E+02
  0.77000  0.19999992E+01  0.17479906E+03  0.56344378E+02
  0.79000  0.46797134E-06  0.90778112E-01  0.28590452E-01
  0.81000  0.26147496E-07  0.12704814E-01  0.38158645E-02
  0.83000  0.60796004E-08  0.49315477E-02  0.14141628E-02
  0.85000  0.21845890E-08  0.25983277E-02  0.71220177E-03
  0.87000  0.97734667E-09  0.15930847E-02  0.41785284E-03
  0.89000  0.49992480E-09  0.10702654E-02  0.26891312E-03
  0.91000  0.28012299E-09  0.76458923E-03  0.18421436E-03
  0.93000  0.16774579E-09  0.57093235E-03  0.13203002E-03
  0.95000  0.10568863E-09  0.44083099E-03  0.97937985E-04
  0.97000  0.69326518E-10  0.34941909E-03  0.74644323E-04
  0.99000  0.46991580E-10  0.28287497E-03  0.58153919E-04
 Transport for spin ->  1  , kxy-point ->   1, of Node     4
           kxy=(-.379 0.657 0.000 ),w= 0.2222
    E           T(E)            TotDOS         PDOS
 -0.99000  0.32720700E-84  0.94426335E-23  0.63065921E-19
 -0.97000  0.37462729E-84  0.99507720E-23  0.64735997E-19
 -0.95000  0.42957545E-84  0.10492688E-22  0.66470693E-19
 -0.93000  0.49335519E-84  0.11071078E-22  0.68273353E-19
 -0.91000  0.56751563E-84  0.11688890E-22  0.70147542E-19
 -0.89000  0.65390127E-84  0.12349353E-22  0.72097057E-19
 -0.87000  0.75471303E-84  0.13056006E-22  0.74125955E-19
 -0.85000  0.87258283E-84  0.13812732E-22  0.76238563E-19
 -0.83000  0.10106651E-83  0.14623798E-22  0.78439511E-19
 -0.81000  0.11727493E-83  0.15493901E-22  0.80733748E-19
 -0.79000  0.13633982E-83  0.16428211E-22  0.83126577E-19
 -0.77000  0.15881199E-83  0.17432433E-22  0.85623679E-19
 -0.75000  0.18535794E-83  0.18512870E-22  0.88231149E-19
 -0.73000  0.21678629E-83  0.19676489E-22  0.90955536E-19
 -0.71000  0.25408070E-83  0.20931011E-22  0.93803876E-19
 -0.69000  0.29844098E-83  0.22284999E-22  0.96783743E-19
 -0.67000  0.35133476E-83  0.23747965E-22  0.99903295E-19
 -0.65000  0.41456244E-83  0.25330497E-22  0.10317133E-18
 -0.63000  0.49033925E-83  0.27044390E-22  0.10659736E-18
 -0.61000  0.58139925E-83  0.28902814E-22  0.11019164E-18
 -0.59000  0.69112753E-83  0.30920497E-22  0.11396529E-18
 -0.57000  0.82372906E-83  0.33113937E-22  0.11793037E-18
 -0.55000  0.98444489E-83  0.35501649E-22  0.12209994E-18
 -0.53000  0.11798304E-82  0.38104451E-22  0.12648822E-18
 -0.51000  0.14181145E-82  0.40945797E-22  0.13111065E-18
 -0.49000  0.17096657E-82  0.44052163E-22  0.13598408E-18
 -0.47000  0.20675989E-82  0.47453498E-22  0.14112690E-18
 -0.45000  0.25085699E-82  0.51183758E-22  0.14655920E-18
 -0.43000  0.30538188E-82  0.55281519E-22  0.15230296E-18
 -0.41000  0.37305493E-82  0.59790717E-22  0.15838231E-18
 -0.39000  0.45737588E-82  0.64761507E-22  0.16482374E-18
 -0.37000  0.56286813E-82  0.70251289E-22  0.17165640E-18
 -0.35000  0.69540632E-82  0.76325925E-22  0.17891243E-18
 -0.33000  0.86265843E-82  0.83061193E-22  0.18662732E-18
 -0.31000  0.10746856E-81  0.90544521E-22  0.19484038E-18
 -0.29000  0.13447609E-81  0.98877077E-22  0.20359518E-18
 -0.27000  0.16904942E-81  0.10817628E-21  0.21294016E-18
 -0.25000  0.21353883E-81  0.11857887E-21  0.22292928E-18
 -0.23000  0.27110039E-81  0.13024456E-21  0.23362279E-18
 -0.21000  0.34599981E-81  0.14336061E-21  0.24508817E-18
 -0.19000  0.44404157E-81  0.15814734E-21  0.25740113E-18
 -0.17000  0.57318006E-81  0.17486497E-21  0.27064687E-18
 -0.15000  0.74439709E-81  0.19382205E-21  0.28492159E-18
 -0.13000  0.97297260E-81  0.21538601E-21  0.30033414E-18
 -0.11000  0.12803416E-80  0.23999628E-21  0.31700816E-18
 -0.09000  0.16968339E-80  0.26818088E-21  0.33508452E-18
 -0.07000  0.22657562E-80  0.30057735E-21  0.35472425E-18
 -0.05000  0.30495398E-80  0.33795945E-21  0.37611216E-18
 -0.03000  0.41391022E-80  0.38127139E-21  0.39946114E-18
 -0.01000  0.56682717E-80  0.43167203E-21  0.42501744E-18
  0.01000  0.78362924E-80  0.49059238E-21  0.45306714E-18
  0.03000  0.10943403E-79  0.55981095E-21  0.48394415E-18
  0.05000  0.15447880E-79  0.64155352E-21  0.51804010E-18
  0.07000  0.22058880E-79  0.73862610E-21  0.55581675E-18
  0.09000  0.31889973E-79  0.85459407E-21  0.59782159E-18
  0.11000  0.46717418E-79  0.99402596E-21  0.64470768E-18
  0.13000  0.69422679E-79  0.11628287E-20  0.69725902E-18
  0.15000  0.10476567E-78  0.13687145E-20  0.75642334E-18
  0.17000  0.16076487E-78  0.16218582E-20  0.82335491E-18
  0.19000  0.25121786E-78  0.19358373E-20  0.89947092E-18
  0.21000  0.40042034E-78  0.23289944E-20  0.98652675E-18
  0.23000  0.65224390E-78  0.28264445E-20  0.10867176E-17
  0.25000  0.10881226E-77  0.34630855E-20  0.12028174E-17
  0.27000  0.18638667E-77  0.42881984E-20  0.13383723E-17
  0.29000  0.32877556E-77  0.53726288E-20  0.14979733E-17
  0.31000  0.59928926E-77  0.68202616E-20  0.16876485E-17
  0.33000  0.11334790E-76  0.87868384E-20  0.19154385E-17
  0.35000  0.22355124E-76  0.11511724E-19  0.21922598E-17
  0.37000  0.46252540E-76  0.15373321E-19  0.25332321E-17
  0.39000  0.10113510E-75  0.20989397E-19  0.29597813E-17
  0.41000  0.23588269E-75  0.29406640E-19  0.35030781E-17
  0.43000  0.59380046E-75  0.42476948E-19  0.42098822E-17
  0.45000  0.16383404E-74  0.63649018E-19  0.51529216E-17
  0.47000  0.50570237E-74  0.99752670E-19  0.64503296E-17
  0.49000  0.17963496E-73  0.16537274E-18  0.83044362E-17
  0.51000  0.76469304E-73  0.29474726E-18  0.11085533E-16
  0.53000  0.41466199E-72  0.57874758E-18  0.15531805E-16
  0.55000  0.31601567E-71  0.13021661E-17  0.23293944E-16
  0.57000  0.40275811E-70  0.35991430E-17  0.38718388E-16
  0.59000  0.12237224E-68  0.14083537E-16  0.76564393E-16
  0.61000  0.22393030E-66  0.11306235E-15  0.21677881E-15
  0.63000  0.21290298E-61  0.11104270E-13  0.21406881E-14
  0.65000  0.56532476E-62  0.64569333E-14  0.16481371E-14
  0.67000  0.14813021E-66  0.95070876E-16  0.19938918E-15
  0.69000  0.98785792E-69  0.12802200E-16  0.73118437E-16
  0.71000  0.35839003E-70  0.33931710E-17  0.37631068E-16
  0.73000  0.29963829E-71  0.12557560E-17  0.22887951E-16
  0.75000  0.41254223E-72  0.56732581E-18  0.15381717E-16
  0.77000  0.79166947E-73  0.29270420E-18  0.11047146E-16
  0.79000  0.19256113E-73  0.16603429E-18  0.83193484E-17
  0.81000  0.55949367E-74  0.10112137E-18  0.64918986E-17
  0.83000  0.18666804E-74  0.65088552E-19  0.52079388E-17
  0.85000  0.69564666E-75  0.43790724E-19  0.42714020E-17
  0.87000  0.28380606E-75  0.30548104E-19  0.35672963E-17
  0.89000  0.12485940E-75  0.21963039E-19  0.30245612E-17
  0.91000  0.58553172E-76  0.16199147E-19  0.25973619E-17
  0.93000  0.29003538E-76  0.12212380E-19  0.22550579E-17
  0.95000  0.15064540E-76  0.93831868E-20  0.19765355E-17
  0.97000  0.81562695E-77  0.73301515E-20  0.17468612E-17
  0.99000  0.45807682E-77  0.58108584E-20  0.15552318E-17
 Transport for spin ->  1  , kxy-point ->   1, of Node     5
           kxy=(0.000 0.438 0.000 ),w= 0.2222
    E           T(E)            TotDOS         PDOS
 -0.99000  0.19999999E+01  0.40948251E+02  0.14414323E+02
 -0.97000  0.20000000E+01  0.39523507E+02  0.13901361E+02
 -0.95000  0.20000000E+01  0.38267218E+02  0.13448151E+02
 -0.93000  0.20000000E+01  0.37150559E+02  0.13044476E+02
 -0.91000  0.20000000E+01  0.36151215E+02  0.12682422E+02
 -0.89000  0.20000000E+01  0.35251609E+02  0.12355754E+02
 -0.87000  0.20000000E+01  0.34437683E+02  0.12059484E+02
 -0.85000  0.20000000E+01  0.33698050E+02  0.11789570E+02
 -0.83000  0.20000000E+01  0.33023374E+02  0.11542697E+02
 -0.81000  0.20000000E+01  0.32405924E+02  0.11316120E+02
 -0.79000  0.20000000E+01  0.31839237E+02  0.11107541E+02
 -0.77000  0.20000000E+01  0.31317867E+02  0.10915032E+02
 -0.75000  0.20000000E+01  0.30837186E+02  0.10736813E+02
 -0.73000  0.20000000E+01  0.30393250E+02  0.10571799E+02
 -0.71000  0.20000000E+01  0.29982652E+02  0.10418508E+02
 -0.69000  0.20000000E+01  0.29602455E+02  0.10275963E+02
 -0.67000  0.20000000E+01  0.29250106E+02  0.10143258E+02
 -0.65000  0.20000000E+01  0.28923377E+02  0.10019596E+02
 -0.63000  0.20000000E+01  0.28620316E+02  0.99042807E+01
 -0.61000  0.20000000E+01  0.28339209E+02  0.97966982E+01
 -0.59000  0.20000000E+01  0.28078544E+02  0.96963068E+01
 -0.57000  0.20000000E+01  0.27836983E+02  0.96026270E+01
 -0.55000  0.20000000E+01  0.27613346E+02  0.95152334E+01
 -0.53000  0.20000000E+01  0.27406581E+02  0.94337481E+01
 -0.51000  0.20000000E+01  0.27215758E+02  0.93578347E+01
 -0.49000  0.20000000E+01  0.27040050E+02  0.92871937E+01
 -0.47000  0.20000000E+01  0.26878723E+02  0.92215583E+01
 -0.45000  0.20000000E+01  0.26731124E+02  0.91606908E+01
 -0.43000  0.20000000E+01  0.26596678E+02  0.91043798E+01
 -0.41000  0.20000000E+01  0.26474876E+02  0.90524376E+01
 -0.39000  0.20000000E+01  0.26365269E+02  0.90046982E+01
 -0.37000  0.19999999E+01  0.26267466E+02  0.89610150E+01
 -0.35000  0.19999999E+01  0.26181129E+02  0.89212597E+01
 -0.33000  0.19999999E+01  0.26105968E+02  0.88853208E+01
 -0.31000  0.19999999E+01  0.26041735E+02  0.88531025E+01
 -0.29000  0.19999999E+01  0.25988230E+02  0.88245235E+01
 -0.27000  0.19999999E+01  0.25945291E+02  0.87995168E+01
 -0.25000  0.19999999E+01  0.25912795E+02  0.87780284E+01
 -0.23000  0.19999999E+01  0.25890658E+02  0.87600176E+01
 -0.21000  0.19999999E+01  0.25878834E+02  0.87454558E+01
 -0.19000  0.19999999E+01  0.25877312E+02  0.87343272E+01
 -0.17000  0.19999999E+01  0.25886119E+02  0.87266279E+01
 -0.15000  0.19999999E+01  0.25905319E+02  0.87223664E+01
 -0.13000  0.19999999E+01  0.25935015E+02  0.87215637E+01
 -0.11000  0.19999999E+01  0.25975346E+02  0.87242534E+01
 -0.09000  0.19999999E+01  0.26026495E+02  0.87304823E+01
 -0.07000  0.20000000E+01  0.26088685E+02  0.87403111E+01
 -0.05000  0.20000000E+01  0.26162184E+02  0.87538145E+01
 -0.03000  0.20000000E+01  0.26247311E+02  0.87710829E+01
 -0.01000  0.20000000E+01  0.26344431E+02  0.87922228E+01
  0.01000  0.20000000E+01  0.26453970E+02  0.88173585E+01
  0.03000  0.20000000E+01  0.26576411E+02  0.88466335E+01
  0.05000  0.20000000E+01  0.26712305E+02  0.88802122E+01
  0.07000  0.20000000E+01  0.26862276E+02  0.89182822E+01
  0.09000  0.20000000E+01  0.27027032E+02  0.89610570E+01
  0.11000  0.20000000E+01  0.27207369E+02  0.90087785E+01
  0.13000  0.20000000E+01  0.27404188E+02  0.90617209E+01
  0.15000  0.20000000E+01  0.27618506E+02  0.91201948E+01
  0.17000  0.20000000E+01  0.27851473E+02  0.91845523E+01
  0.19000  0.20000000E+01  0.28104389E+02  0.92551927E+01
  0.21000  0.20000000E+01  0.28378729E+02  0.93325703E+01
  0.23000  0.20000000E+01  0.28676170E+02  0.94172050E+01
  0.25000  0.20000000E+01  0.28998636E+02  0.95094064E+01
  0.27000  0.20000000E+01  0.29348279E+02  0.96106353E+01
  0.29000  0.20000000E+01  0.29727643E+02  0.97209213E+01
  0.31000  0.20000000E+01  0.30139615E+02  0.98413929E+01
  0.33000  0.20000000E+01  0.30587551E+02  0.99730927E+01
  0.35000  0.20000000E+01  0.31075365E+02  0.10117234E+02
  0.37000  0.20000000E+01  0.31607647E+02  0.10275240E+02
  0.39000  0.20000000E+01  0.32189816E+02  0.10448793E+02
  0.41000  0.20000000E+01  0.32828321E+02  0.10639895E+02
  0.43000  0.20000000E+01  0.33530900E+02  0.10850948E+02
  0.45000  0.20000000E+01  0.34306927E+02  0.11084867E+02
  0.47000  0.20000000E+01  0.35167881E+02  0.11345218E+02
  0.49000  0.20000000E+01  0.36127987E+02  0.11636425E+02
  0.51000  0.20000000E+01  0.37205117E+02  0.11964049E+02
  0.53000  0.20000000E+01  0.38422080E+02  0.12335185E+02
  0.55000  0.20000000E+01  0.39808512E+02  0.12759060E+02
  0.57000  0.20000000E+01  0.41403741E+02  0.13247917E+02
  0.59000  0.20000000E+01  0.43261265E+02  0.13818418E+02
  0.61000  0.20000000E+01  0.45456050E+02  0.14493918E+02
  0.63000  0.20000000E+01  0.48097018E+02  0.15308356E+02
  0.65000  0.20000000E+01  0.51349719E+02  0.16313333E+02
  0.67000  0.20000000E+01  0.55480753E+02  0.17591967E+02
  0.69000  0.20000000E+01  0.60953803E+02  0.19288855E+02
  0.71000  0.20000000E+01  0.68667361E+02  0.21684264E+02
  0.73000  0.20000000E+01  0.80673226E+02  0.25418372E+02
  0.75000  0.19999999E+01  0.10321380E+03  0.32439385E+02
  0.77000  0.19999992E+01  0.17479906E+03  0.54769489E+02
  0.79000  0.46797133E-06  0.90778111E-01 -0.90601854E+00
  0.81000  0.26147496E-07  0.12704814E-01 -0.47266437E+00
  0.83000  0.60796003E-08  0.49315477E-02 -0.34039587E+00
  0.85000  0.21845890E-08  0.25983277E-02 -0.27097114E+00
  0.87000  0.97734667E-09  0.15930847E-02 -0.22684420E+00
  0.89000  0.49992480E-09  0.10702654E-02 -0.19581263E+00
  0.91000  0.28012299E-09  0.76458923E-03 -0.17257097E+00
  0.93000  0.16774579E-09  0.57093235E-03 -0.15439585E+00
  0.95000  0.10568863E-09  0.44083098E-03 -0.13972833E+00
  0.97000  0.69326517E-10  0.34941909E-03 -0.12760409E+00
  0.99000  0.46991580E-10  0.28287497E-03 -0.11739081E+00
 Transport for spin ->  1  , kxy-point ->   1, of Node     6
           kxy=(0.379 0.219 0.000 ),w= 0.2222
    E           T(E)            TotDOS         PDOS
 -0.99000  0.19999999E+01  0.40948251E+02  0.14414386E+02
 -0.97000  0.20000000E+01  0.39523507E+02  0.13901426E+02
 -0.95000  0.20000000E+01  0.38267218E+02  0.13448217E+02
 -0.93000  0.20000000E+01  0.37150559E+02  0.13044543E+02
 -0.91000  0.20000000E+01  0.36151215E+02  0.12682489E+02
 -0.89000  0.20000000E+01  0.35251609E+02  0.12355821E+02
 -0.87000  0.20000000E+01  0.34437683E+02  0.12059551E+02
 -0.85000  0.20000000E+01  0.33698050E+02  0.11789636E+02
 -0.83000  0.20000000E+01  0.33023374E+02  0.11542763E+02
 -0.81000  0.20000000E+01  0.32405924E+02  0.11316184E+02
 -0.79000  0.20000000E+01  0.31839237E+02  0.11107604E+02
 -0.77000  0.20000000E+01  0.31317867E+02  0.10915092E+02
 -0.75000  0.20000000E+01  0.30837186E+02  0.10736883E+02
 -0.73000  0.20000000E+01  0.30393250E+02  0.10571858E+02
 -0.71000  0.20000000E+01  0.29982652E+02  0.10418565E+02
 -0.69000  0.20000000E+01  0.29602455E+02  0.10276019E+02
 -0.67000  0.20000000E+01  0.29250106E+02  0.10143311E+02
 -0.65000  0.20000000E+01  0.28923377E+02  0.10019647E+02
 -0.63000  0.20000000E+01  0.28620316E+02  0.99043291E+01
 -0.61000  0.20000000E+01  0.28339209E+02  0.97967443E+01
 -0.59000  0.20000000E+01  0.28078544E+02  0.96963506E+01
 -0.57000  0.20000000E+01  0.27836983E+02  0.96026684E+01
 -0.55000  0.20000000E+01  0.27613346E+02  0.95152724E+01
 -0.53000  0.20000000E+01  0.27406581E+02  0.94337847E+01
 -0.51000  0.20000000E+01  0.27215758E+02  0.93578688E+01
 -0.49000  0.20000000E+01  0.27040050E+02  0.92872254E+01
 -0.47000  0.20000000E+01  0.26878723E+02  0.92215875E+01
 -0.45000  0.20000000E+01  0.26731124E+02  0.91607175E+01
 -0.43000  0.20000000E+01  0.26596678E+02  0.91044040E+01
 -0.41000  0.20000000E+01  0.26474876E+02  0.90524594E+01
 -0.39000  0.20000000E+01  0.26365269E+02  0.90047175E+01
 -0.37000  0.19999999E+01  0.26267466E+02  0.89610319E+01
 -0.35000  0.19999999E+01  0.26181129E+02  0.89212743E+01
 -0.33000  0.19999999E+01  0.26105968E+02  0.88853330E+01
 -0.31000  0.19999999E+01  0.26041735E+02  0.88531124E+01
 -0.29000  0.19999999E+01  0.25988230E+02  0.88245311E+01
 -0.27000  0.19999999E+01  0.25945291E+02  0.87995221E+01
 -0.25000  0.19999999E+01  0.25912795E+02  0.87780315E+01
 -0.23000  0.19999999E+01  0.25890658E+02  0.87600185E+01
 -0.21000  0.19999999E+01  0.25878834E+02  0.87454546E+01
 -0.19000  0.19999999E+01  0.25877312E+02  0.87343239E+01
 -0.17000  0.19999999E+01  0.25886119E+02  0.87266226E+01
 -0.15000  0.19999999E+01  0.25905319E+02  0.87223591E+01
 -0.13000  0.19999999E+01  0.25935015E+02  0.87215545E+01
 -0.11000  0.19999999E+01  0.25975346E+02  0.87242424E+01
 -0.09000  0.19999999E+01  0.26026495E+02  0.87304696E+01
 -0.07000  0.20000000E+01  0.26088685E+02  0.87402966E+01
 -0.05000  0.20000000E+01  0.26162184E+02  0.87537984E+01
 -0.03000  0.20000000E+01  0.26247311E+02  0.87710652E+01
 -0.01000  0.20000000E+01  0.26344431E+02  0.87922036E+01
  0.01000  0.20000000E+01  0.26453970E+02  0.88173380E+01
  0.03000  0.20000000E+01  0.26576411E+02  0.88466116E+01
  0.05000  0.20000000E+01  0.26712305E+02  0.88801891E+01
  0.07000  0.20000000E+01  0.26862276E+02  0.89182581E+01
  0.09000  0.20000000E+01  0.27027032E+02  0.89610318E+01
  0.11000  0.20000000E+01  0.27207369E+02  0.90087524E+01
  0.13000  0.20000000E+01  0.27404188E+02  0.90616940E+01
  0.15000  0.20000000E+01  0.27618506E+02  0.91201672E+01
  0.17000  0.20000000E+01  0.27851473E+02  0.91845241E+01
  0.19000  0.20000000E+01  0.28104389E+02  0.92551641E+01
  0.21000  0.20000000E+01  0.28378729E+02  0.93325415E+01
  0.23000  0.20000000E+01  0.28676170E+02  0.94171768E+01
  0.25000  0.20000000E+01  0.28998636E+02  0.95093469E+01
  0.27000  0.20000000E+01  0.29348279E+02  0.96106038E+01
  0.29000  0.20000000E+01  0.29727643E+02  0.97208906E+01
  0.31000  0.20000000E+01  0.30139615E+02  0.98413627E+01
  0.33000  0.20000000E+01  0.30587551E+02  0.99730629E+01
  0.35000  0.20000000E+01  0.31075365E+02  0.10117205E+02
  0.37000  0.20000000E+01  0.31607647E+02  0.10275212E+02
  0.39000  0.20000000E+01  0.32189816E+02  0.10448766E+02
  0.41000  0.20000000E+01  0.32828321E+02  0.10639868E+02
  0.43000  0.20000000E+01  0.33530900E+02  0.10850923E+02
  0.45000  0.20000000E+01  0.34306927E+02  0.11084843E+02
  0.47000  0.20000000E+01  0.35167881E+02  0.11345196E+02
  0.49000  0.20000000E+01  0.36127987E+02  0.11636405E+02
  0.51000  0.20000000E+01  0.37205117E+02  0.11964031E+02
  0.53000  0.20000000E+01  0.38422080E+02  0.12335169E+02
  0.55000  0.20000000E+01  0.39808512E+02  0.12759047E+02
  0.57000  0.20000000E+01  0.41403741E+02  0.13247907E+02
  0.59000  0.20000000E+01  0.43261265E+02  0.13818412E+02
  0.61000  0.20000000E+01  0.45456050E+02  0.14493915E+02
  0.63000  0.20000000E+01  0.48097018E+02  0.15308358E+02
  0.65000  0.20000000E+01  0.51349719E+02  0.16313340E+02
  0.67000  0.20000000E+01  0.55480753E+02  0.17591980E+02
  0.69000  0.20000000E+01  0.60953803E+02  0.19288876E+02
  0.71000  0.20000000E+01  0.68667361E+02  0.21684293E+02
  0.73000  0.20000000E+01  0.80673226E+02  0.25418414E+02
  0.75000  0.19999999E+01  0.10321380E+03  0.32439446E+02
  0.77000  0.19999992E+01  0.17479906E+03  0.54769598E+02
  0.79000  0.46797137E-06  0.90778116E-01 -0.90605211E+00
  0.81000  0.26147497E-07  0.12704814E-01 -0.47267681E+00
  0.83000  0.60796004E-08  0.49315477E-02 -0.34040298E+00
  0.85000  0.21845891E-08  0.25983277E-02 -0.27097581E+00
  0.87000  0.97734668E-09  0.15930847E-02 -0.22684750E+00
  0.89000  0.49992481E-09  0.10702654E-02 -0.19581507E+00
  0.91000  0.28012299E-09  0.76458923E-03 -0.17257282E+00
  0.93000  0.16774579E-09  0.57093236E-03 -0.15439729E+00
  0.95000  0.10568863E-09  0.44083099E-03 -0.13972948E+00
  0.97000  0.69326518E-10  0.34941909E-03 -0.12760501E+00
  0.99000  0.46991580E-10  0.28287497E-03 -0.11739157E+00
 ==============================================================

 Results:

  Voltage, Current(A) =   0.00000000E+00  0.00000000E+00

 ==============================================================
