
                           ************************       
                           *  WELCOME TO TBTRANS  *       
                           ************************       

reinit: Reading from standard input
************************** Dump of input data file ****************************
SystemName  au_111_capacitor
SystemLabel au_111_capacitor
==================================================
==================================================
# SPECIES AND BASIS
# Number of species
NumberOfSpecies 1
%block ChemicalSpeciesLabel
  1  79 Au
%endblock ChemicalSpeciesLabel
PAO.BasisSize    SZP
PAO.EnergyShift  0.005 Ry
==================================================
==================================================
# K-points
%block kgrid_Monkhorst_Pack
8   0   0   0.0
0   8   0   0.0
0   0   30  0.5
%endblock kgrid_Monkhorst_Pack
==================================================
==================================================
# UNIT CELL
LatticeConstant       2.92311 Ang
%block LatticeVectors
1.000000000   0.00000000000   0.0000000000
0.500000000   0.86602540378   0.0000000000
0.000000000   0.00000000000  10.6144555530
%endblock LatticeVectors
# Atomic coordinates
NumberOfAtoms 10
AtomicCoordinatesFormat ScaledCartesian
%block AtomicCoordinatesAndAtomicSpecies
       0.000000000       0.000000000       0.000000000    1  # A
       0.500000000       0.288675135       0.816496581    1  # B
       0.500000000      -0.288675135       1.632993162    1  # C
       0.000000000       0.000000000       2.449489743    1  # A
       0.500000000       0.288675135       3.265986324    1  # B
       0.500000000       0.288675135       6.531972648    1  # B
       0.500000000      -0.288675135       7.348469229    1  # C
       0.000000000       0.000000000       8.164965810    1  # A
       0.500000000       0.288675135       8.981462391    1  # B
       0.500000000      -0.288675135       9.797958972    1  # C
%endblock AtomicCoordinatesAndAtomicSpecies
==================================================
==================================================
# General variables
ElectronicTemperature  100 K
MeshCutoff           350. Ry
xc.functional         LDA           # Exchange-correlation functional
xc.authors            CA
SpinPolarized .false.
SolutionMethod Transiesta
==================================================
==================================================
# SCF variables
DM.MixSCF1   T
MaxSCFIterations      300           # Maximum number of SCF iter
DM.MixH               T
DM.MixingWeight       0.03          # New DM amount for next SCF cycle
DM.Tolerance          1.d-4         # Tolerance in maximum difference
DM.UseSaveDM          true          # to use continuation files
DM.NumberPulay         5
Diag.DivideAndConquer     no
TS.MixH                  yes
==================================================
==================================================
# MD variables
MD.FinalTimeStep 1
MD.TypeOfRun CG
MD.NumCGsteps     000
MD.UseSaveXV      .true.
==================================================
==================================================
# Output variables
WriteMullikenPop                1
WriteBands                      .false.
SaveRho                         .false.
SaveDeltaRho                    .false.
SaveHS                          .false.
SaveElectrostaticPotential      True
SaveTotalPotential              no
WriteCoorXmol                   .true.
WriteMDXmol                     .true.
WriteMDhistory                  .false.
WriteEigenvalues                yes
==================================================
==================================================
# Parallel variables
Diag.ParallelOverK      yes
==================================================
==================================================
# Transiesta information
# GENGF OPTIONS
TS.ComplexContour.Emin    -30.0 eV
TS.ComplexContour.NPoles       03
TS.ComplexContour.NCircle      30
TS.ComplexContour.NLine        10
# BIAS OPTIONS
TS.biasContour.NumPoints       15
TS.UseVFix           true
TS.UpdateDMCR        false
# TS OPTIONS
TS.Voltage 1.000000 eV
# TBT OPTIONS
TS.TBT.Emin -0.5 eV
TS.TBT.Emax +0.5 eV
TS.TBT.NPoints 100
TS.TBT.NEigen 3
TS.TBT.Eta        0.000001 Ry
# Write electrode hamiltonian
TS.SaveHS   .true.
# LEFT ELECTRODE
TS.HSFileLeft  ./elec_au_111_abc.TSHS
TS.ReplicateA1Left    1
TS.ReplicateA2Left    1
TS.NumUsedAtomsLeft   03
TS.BufferAtomsLeft    0
# RIGHT ELECTRODE
TS.HSFileRight  ./elec_au_111_abc.TSHS
TS.ReplicateA1Right   1
TS.ReplicateA2Right   1
TS.NumUsedAtomsRight  03
TS.BufferAtomsRight   0
==================================================
==================================================
************************** End of input data file *****************************

reinit: -----------------------------------------------------------------------
reinit: System Name: au_111_capacitor
reinit: -----------------------------------------------------------------------
reinit: System Label: au_111_capacitor                                            
reinit: -----------------------------------------------------------------------
tbtrans: Voltage                         =     1.0000
Emin,Emax =      -0.499999      0.499999
Energy points in tbtrans =        100
tbtrans: Spin-polarized =  F
 contour:  Simple Line Contour:
 contour:     -0.03675      0.00000      0.000742404     0.000000000   1
 contour:     -0.03601      0.00000      0.000742404     0.000000000   2
 contour:     -0.03526      0.00000      0.000742404     0.000000000   3
 contour:     -0.03452      0.00000      0.000742404     0.000000000   4
 contour:     -0.03378      0.00000      0.000742404     0.000000000   5
 contour:     -0.03304      0.00000      0.000742404     0.000000000   6
 contour:     -0.03229      0.00000      0.000742404     0.000000000   7
 contour:     -0.03155      0.00000      0.000742404     0.000000000   8
 contour:     -0.03081      0.00000      0.000742404     0.000000000   9
 contour:     -0.03007      0.00000      0.000742404     0.000000000  10
 contour:     -0.02932      0.00000      0.000742404     0.000000000  11
 contour:     -0.02858      0.00000      0.000742404     0.000000000  12
 contour:     -0.02784      0.00000      0.000742404     0.000000000  13
 contour:     -0.02710      0.00000      0.000742404     0.000000000  14
 contour:     -0.02636      0.00000      0.000742404     0.000000000  15
 contour:     -0.02561      0.00000      0.000742404     0.000000000  16
 contour:     -0.02487      0.00000      0.000742404     0.000000000  17
 contour:     -0.02413      0.00000      0.000742404     0.000000000  18
 contour:     -0.02339      0.00000      0.000742404     0.000000000  19
 contour:     -0.02264      0.00000      0.000742404     0.000000000  20
 contour:     -0.02190      0.00000      0.000742404     0.000000000  21
 contour:     -0.02116      0.00000      0.000742404     0.000000000  22
 contour:     -0.02042      0.00000      0.000742404     0.000000000  23
 contour:     -0.01967      0.00000      0.000742404     0.000000000  24
 contour:     -0.01893      0.00000      0.000742404     0.000000000  25
 contour:     -0.01819      0.00000      0.000742404     0.000000000  26
 contour:     -0.01745      0.00000      0.000742404     0.000000000  27
 contour:     -0.01670      0.00000      0.000742404     0.000000000  28
 contour:     -0.01596      0.00000      0.000742404     0.000000000  29
 contour:     -0.01522      0.00000      0.000742404     0.000000000  30
 contour:     -0.01448      0.00000      0.000742404     0.000000000  31
 contour:     -0.01373      0.00000      0.000742404     0.000000000  32
 contour:     -0.01299      0.00000      0.000742404     0.000000000  33
 contour:     -0.01225      0.00000      0.000742404     0.000000000  34
 contour:     -0.01151      0.00000      0.000742404     0.000000000  35
 contour:     -0.01076      0.00000      0.000742404     0.000000000  36
 contour:     -0.01002      0.00000      0.000742404     0.000000000  37
 contour:     -0.00928      0.00000      0.000742404     0.000000000  38
 contour:     -0.00854      0.00000      0.000742404     0.000000000  39
 contour:     -0.00780      0.00000      0.000742404     0.000000000  40
 contour:     -0.00705      0.00000      0.000742404     0.000000000  41
 contour:     -0.00631      0.00000      0.000742404     0.000000000  42
 contour:     -0.00557      0.00000      0.000742404     0.000000000  43
 contour:     -0.00483      0.00000      0.000742404     0.000000000  44
 contour:     -0.00408      0.00000      0.000742404     0.000000000  45
 contour:     -0.00334      0.00000      0.000742404     0.000000000  46
 contour:     -0.00260      0.00000      0.000742404     0.000000000  47
 contour:     -0.00186      0.00000      0.000742404     0.000000000  48
 contour:     -0.00111      0.00000      0.000742404     0.000000000  49
 contour:     -0.00037      0.00000      0.000742404     0.000000000  50
 contour:      0.00037      0.00000      0.000742404     0.000000000  51
 contour:      0.00111      0.00000      0.000742404     0.000000000  52
 contour:      0.00186      0.00000      0.000742404     0.000000000  53
 contour:      0.00260      0.00000      0.000742404     0.000000000  54
 contour:      0.00334      0.00000      0.000742404     0.000000000  55
 contour:      0.00408      0.00000      0.000742404     0.000000000  56
 contour:      0.00483      0.00000      0.000742404     0.000000000  57
 contour:      0.00557      0.00000      0.000742404     0.000000000  58
 contour:      0.00631      0.00000      0.000742404     0.000000000  59
 contour:      0.00705      0.00000      0.000742404     0.000000000  60
 contour:      0.00780      0.00000      0.000742404     0.000000000  61
 contour:      0.00854      0.00000      0.000742404     0.000000000  62
 contour:      0.00928      0.00000      0.000742404     0.000000000  63
 contour:      0.01002      0.00000      0.000742404     0.000000000  64
 contour:      0.01076      0.00000      0.000742404     0.000000000  65
 contour:      0.01151      0.00000      0.000742404     0.000000000  66
 contour:      0.01225      0.00000      0.000742404     0.000000000  67
 contour:      0.01299      0.00000      0.000742404     0.000000000  68
 contour:      0.01373      0.00000      0.000742404     0.000000000  69
 contour:      0.01448      0.00000      0.000742404     0.000000000  70
 contour:      0.01522      0.00000      0.000742404     0.000000000  71
 contour:      0.01596      0.00000      0.000742404     0.000000000  72
 contour:      0.01670      0.00000      0.000742404     0.000000000  73
 contour:      0.01745      0.00000      0.000742404     0.000000000  74
 contour:      0.01819      0.00000      0.000742404     0.000000000  75
 contour:      0.01893      0.00000      0.000742404     0.000000000  76
 contour:      0.01967      0.00000      0.000742404     0.000000000  77
 contour:      0.02042      0.00000      0.000742404     0.000000000  78
 contour:      0.02116      0.00000      0.000742404     0.000000000  79
 contour:      0.02190      0.00000      0.000742404     0.000000000  80
 contour:      0.02264      0.00000      0.000742404     0.000000000  81
 contour:      0.02339      0.00000      0.000742404     0.000000000  82
 contour:      0.02413      0.00000      0.000742404     0.000000000  83
 contour:      0.02487      0.00000      0.000742404     0.000000000  84
 contour:      0.02561      0.00000      0.000742404     0.000000000  85
 contour:      0.02636      0.00000      0.000742404     0.000000000  86
 contour:      0.02710      0.00000      0.000742404     0.000000000  87
 contour:      0.02784      0.00000      0.000742404     0.000000000  88
 contour:      0.02858      0.00000      0.000742404     0.000000000  89
 contour:      0.02932      0.00000      0.000742404     0.000000000  90
 contour:      0.03007      0.00000      0.000742404     0.000000000  91
 contour:      0.03081      0.00000      0.000742404     0.000000000  92
 contour:      0.03155      0.00000      0.000742404     0.000000000  93
 contour:      0.03229      0.00000      0.000742404     0.000000000  94
 contour:      0.03304      0.00000      0.000742404     0.000000000  95
 contour:      0.03378      0.00000      0.000742404     0.000000000  96
 contour:      0.03452      0.00000      0.000742404     0.000000000  97
 contour:      0.03526      0.00000      0.000742404     0.000000000  98
 contour:      0.03601      0.00000      0.000742404     0.000000000  99
 contour:      0.03675      0.00000      0.000742404     0.000000000 100
 
************************************************************************
 K-Points On Nodes:
 
 Node  Numb. K Pts.  Tot. K Pts. 
  0        5           40
  1        5           40
  2        5           40
  3        5           40
  4        5           40
  5        5           40
  6        5           40
  7        5           40
------------------------------------------------------------------------
 K-Points Coordinates and Weights (Node,kx,ky,kz,wk),:
 
        0    -0.42655     0.24627     0.00000     0.01562
        0    -0.28436     0.16418     0.00000     0.01562
        0    -0.14218     0.08209     0.00000     0.01562
        0     0.00000     0.00000     0.00000     0.01562
        0     0.14218    -0.08209     0.00000     0.01562
        1     0.28436    -0.16418     0.00000     0.01562
        1     0.42655    -0.24627     0.00000     0.01562
        1     0.56873    -0.32836     0.00000     0.01562
        1    -0.42655     0.41045     0.00000     0.03125
        1    -0.28436     0.32836     0.00000     0.03125
        2    -0.14218     0.24627     0.00000     0.03125
        2     0.00000     0.16418     0.00000     0.03125
        2     0.14218     0.08209     0.00000     0.03125
        2     0.28436     0.00000     0.00000     0.03125
        2     0.42655    -0.08209     0.00000     0.03125
        3     0.56873    -0.16418     0.00000     0.03125
        3    -0.42655     0.57462     0.00000     0.03125
        3    -0.28436     0.49253     0.00000     0.03125
        3    -0.14218     0.41045     0.00000     0.03125
        3     0.00000     0.32836     0.00000     0.03125
        4     0.14218     0.24627     0.00000     0.03125
        4     0.28436     0.16418     0.00000     0.03125
        4     0.42655     0.08209     0.00000     0.03125
        4     0.56873     0.00000     0.00000     0.03125
        4    -0.42655     0.73880     0.00000     0.03125
        5    -0.28436     0.65671     0.00000     0.03125
        5    -0.14218     0.57462     0.00000     0.03125
        5     0.00000     0.49253     0.00000     0.03125
        5     0.14218     0.41045     0.00000     0.03125
        5     0.28436     0.32836     0.00000     0.03125
        6     0.42655     0.24627     0.00000     0.03125
        6     0.56873     0.16418     0.00000     0.03125
        6    -0.42655     0.90298     0.00000     0.01562
        6    -0.28436     0.82089     0.00000     0.01562
        6    -0.14218     0.73880     0.00000     0.01562
        7     0.00000     0.65671     0.00000     0.01562
        7     0.14218     0.57462     0.00000     0.01562
        7     0.28436     0.49253     0.00000     0.01562
        7     0.42655     0.41045     0.00000     0.01562
        7     0.56873     0.32836     0.00000     0.01562
************************************************************************
 
 unit cell:
  5.5239  0.0000  0.0000
  2.7619  4.7838  0.0000
  0.0000  0.0000 13.5307
 unit cell:
  5.5239  0.0000  0.0000
  2.7619  4.7838  0.0000
  0.0000  0.0000 13.5307
 ==============================================================
  Projection Region: atoms : [  4;  7 ]
  Projection Region: states: [  1; 36 ] ; 36
 
  Starting K-Point loop for spin:   1
 
 Transport for spin ->  1  , kxy-point ->   1, of Node     0
           kxy=(-.427 0.246 0.000 ),w= 0.0156
    E           T(E)            TotDOS         PDOS
 -0.50000  0.56274067E-28  0.12845407E+02  0.81373546E+01
 -0.48990  0.54386163E-28  0.12824268E+02  0.81258113E+01
 -0.47980  0.52464554E-28  0.12803690E+02  0.81144383E+01
 -0.46970  0.50513731E-28  0.12783664E+02  0.81032321E+01
 -0.45960  0.48538335E-28  0.12764181E+02  0.80921893E+01
 -0.44949  0.46543148E-28  0.12745232E+02  0.80813069E+01
 -0.43939  0.44533093E-28  0.12726811E+02  0.80705820E+01
 -0.42929  0.42513223E-28  0.12708908E+02  0.80600119E+01
 -0.41919  0.40488719E-28  0.12691518E+02  0.80495940E+01
 -0.40909  0.38464881E-28  0.12674633E+02  0.80393260E+01
 -0.39899  0.36447123E-28  0.12658246E+02  0.80292058E+01
 -0.38889  0.34440965E-28  0.12642351E+02  0.80192313E+01
 -0.37879  0.32452027E-28  0.12626942E+02  0.80094006E+01
 -0.36869  0.30486023E-28  0.12612013E+02  0.79997119E+01
 -0.35859  0.28548750E-28  0.12597558E+02  0.79901636E+01
 -0.34848  0.26646085E-28  0.12583571E+02  0.79807542E+01
 -0.33838  0.24783974E-28  0.12570047E+02  0.79714823E+01
 -0.32828  0.22968424E-28  0.12556982E+02  0.79623466E+01
 -0.31818  0.21205498E-28  0.12544370E+02  0.79533458E+01
 -0.30808  0.19501303E-28  0.12532205E+02  0.79444789E+01
 -0.29798  0.17861984E-28  0.12520485E+02  0.79357448E+01
 -0.28788  0.16293715E-28  0.12509203E+02  0.79271426E+01
 -0.27778  0.14802689E-28  0.12498356E+02  0.79186715E+01
 -0.26768  0.13395111E-28  0.12487940E+02  0.79103305E+01
 -0.25758  0.12077189E-28  0.12477949E+02  0.79021191E+01
 -0.24747  0.10855121E-28  0.12468381E+02  0.78940365E+01
 -0.23737  0.97350938E-29  0.12459231E+02  0.78860821E+01
 -0.22727  0.87232653E-29  0.12450495E+02  0.78782555E+01
 -0.21717  0.78257607E-29  0.12442169E+02  0.78705560E+01
 -0.20707  0.70486613E-29  0.12434251E+02  0.78629833E+01
 -0.19697  0.63979952E-29  0.12426736E+02  0.78555369E+01
 -0.18687  0.58797282E-29  0.12419621E+02  0.78482166E+01
 -0.17677  0.54997545E-29  0.12412902E+02  0.78410219E+01
 -0.16667  0.52638866E-29  0.12406576E+02  0.78339527E+01
 -0.15657  0.51778468E-29  0.12400639E+02  0.78270087E+01
 -0.14646  0.52472573E-29  0.12395089E+02  0.78201896E+01
 -0.13636  0.54776309E-29  0.12389922E+02  0.78134954E+01
 -0.12626  0.58743618E-29  0.12385135E+02  0.78069258E+01
 -0.11616  0.64427165E-29  0.12380725E+02  0.78004807E+01
 -0.10606  0.71878244E-29  0.12376689E+02  0.77941601E+01
 -0.09596  0.81146688E-29  0.12373023E+02  0.77879639E+01
 -0.08586  0.92280780E-29  0.12369725E+02  0.77818920E+01
 -0.07576  0.10532716E-28  0.12366792E+02  0.77759444E+01
 -0.06566  0.12033076E-28  0.12364220E+02  0.77701210E+01
 -0.05556  0.13733467E-28  0.12362008E+02  0.77644220E+01
 -0.04545  0.15638012E-28  0.12360151E+02  0.77588473E+01
 -0.03535  0.17750632E-28  0.12358647E+02  0.77533969E+01
 -0.02525  0.20075045E-28  0.12357494E+02  0.77480709E+01
 -0.01515  0.22614755E-28  0.12356687E+02  0.77428693E+01
 -0.00505  0.25373043E-28  0.12356226E+02  0.77377923E+01
  0.00505  0.28352963E-28  0.12356106E+02  0.77328398E+01
  0.01515  0.31557330E-28  0.12356325E+02  0.77280120E+01
  0.02525  0.34988718E-28  0.12356880E+02  0.77233089E+01
  0.03535  0.38649450E-28  0.12357768E+02  0.77187306E+01
  0.04545  0.42541594E-28  0.12358987E+02  0.77142773E+01
  0.05556  0.46666952E-28  0.12360533E+02  0.77099489E+01
  0.06566  0.51027062E-28  0.12362404E+02  0.77057457E+01
  0.07576  0.55623183E-28  0.12364598E+02  0.77016678E+01
  0.08586  0.60456297E-28  0.12367111E+02  0.76977151E+01
  0.09596  0.65527102E-28  0.12369940E+02  0.76938879E+01
  0.10606  0.70836005E-28  0.12373083E+02  0.76901861E+01
  0.11616  0.76383120E-28  0.12376537E+02  0.76866100E+01
  0.12626  0.82168263E-28  0.12380299E+02  0.76831596E+01
  0.13636  0.88190950E-28  0.12384366E+02  0.76798350E+01
  0.14646  0.94450391E-28  0.12388736E+02  0.76766362E+01
  0.15657  0.10094549E-27  0.12393405E+02  0.76735633E+01
  0.16667  0.10767483E-27  0.12398371E+02  0.76706163E+01
  0.17677  0.11463671E-27  0.12403630E+02  0.76677954E+01
  0.18687  0.12182907E-27  0.12409181E+02  0.76651004E+01
  0.19697  0.12924958E-27  0.12415018E+02  0.76625313E+01
  0.20707  0.13689555E-27  0.12421141E+02  0.76600881E+01
  0.21717  0.14476400E-27  0.12427544E+02  0.76577705E+01
  0.22727  0.15285160E-27  0.12434225E+02  0.76555782E+01
  0.23737  0.16115471E-27  0.12441180E+02  0.76535104E+01
  0.24747  0.16966933E-27  0.12448403E+02  0.76515661E+01
  0.25758  0.17839106E-27  0.12455886E+02  0.76497425E+01
  0.26768  0.18731501E-27  0.12463617E+02  0.76480335E+01
  0.27778  0.19643517E-27  0.12471558E+02  0.76464191E+01
  0.28788  0.20573995E-27  0.12479510E+02  0.76447854E+01
  0.29798  0.21538601E-27  0.12492407E+02  0.76460032E+01
  0.30808  0.22496702E-27  0.12498050E+02  0.76429810E+01
  0.31818  0.23482066E-27  0.12506902E+02  0.76418045E+01
  0.32828  0.24484814E-27  0.12516148E+02  0.76408380E+01
  0.33838  0.25503942E-27  0.12525680E+02  0.76400212E+01
  0.34848  0.26538679E-27  0.12535474E+02  0.76393408E+01
  0.35859  0.27588275E-27  0.12545516E+02  0.76387919E+01
  0.36869  0.28651969E-27  0.12555801E+02  0.76383724E+01
  0.37879  0.29728979E-27  0.12566324E+02  0.76380811E+01
  0.38889  0.30818497E-27  0.12577081E+02  0.76379174E+01
  0.39899  0.31919693E-27  0.12588068E+02  0.76378808E+01
  0.40909  0.33031715E-27  0.12599280E+02  0.76379709E+01
  0.41919  0.34153684E-27  0.12610716E+02  0.76381874E+01
  0.42929  0.35284700E-27  0.12622370E+02  0.76385302E+01
  0.43939  0.36423841E-27  0.12634241E+02  0.76389989E+01
  0.44949  0.37570165E-27  0.12646324E+02  0.76395934E+01
  0.45960  0.38722708E-27  0.12658616E+02  0.76403133E+01
  0.46970  0.39880488E-27  0.12671114E+02  0.76411586E+01
  0.47980  0.41042503E-27  0.12683814E+02  0.76421290E+01
  0.48990  0.42207737E-27  0.12696714E+02  0.76432241E+01
  0.50000  0.43375155E-27  0.12709809E+02  0.76444439E+01
 Transport for spin ->  1  , kxy-point ->   2, of Node     0
           kxy=(-.284 0.164 0.000 ),w= 0.0156
    E           T(E)            TotDOS         PDOS
 -0.50000  0.67632197E-27  0.15176849E+02  0.16904967E+02
 -0.48990  0.67869202E-27  0.15172269E+02  0.16895104E+02
 -0.47980  0.68044463E-27  0.15167938E+02  0.16885496E+02
 -0.46970  0.68157309E-27  0.15163849E+02  0.16876139E+02
 -0.45960  0.68207193E-27  0.15159994E+02  0.16867027E+02
 -0.44949  0.68193696E-27  0.15156367E+02  0.16858155E+02
 -0.43939  0.68116527E-27  0.15152961E+02  0.16849517E+02
 -0.42929  0.67975524E-27  0.15149767E+02  0.16841109E+02
 -0.41919  0.67770659E-27  0.15146781E+02  0.16832924E+02
 -0.40909  0.67502035E-27  0.15143993E+02  0.16824958E+02
 -0.39899  0.67169888E-27  0.15141398E+02  0.16817205E+02
 -0.38889  0.66774588E-27  0.15138987E+02  0.16809660E+02
 -0.37879  0.66316637E-27  0.15136755E+02  0.16802317E+02
 -0.36869  0.65796671E-27  0.15134694E+02  0.16795171E+02
 -0.35859  0.65215459E-27  0.15132797E+02  0.16788216E+02
 -0.34848  0.64573899E-27  0.15131057E+02  0.16781448E+02
 -0.33838  0.63873023E-27  0.15129467E+02  0.16774860E+02
 -0.32828  0.63113987E-27  0.15128020E+02  0.16768447E+02
 -0.31818  0.62298078E-27  0.15126709E+02  0.16762204E+02
 -0.30808  0.61426706E-27  0.15125526E+02  0.16756126E+02
 -0.29798  0.60501402E-27  0.15124465E+02  0.16750206E+02
 -0.28788  0.59523819E-27  0.15123520E+02  0.16744440E+02
 -0.27778  0.58495724E-27  0.15122682E+02  0.16738821E+02
 -0.26768  0.57418998E-27  0.15121944E+02  0.16733345E+02
 -0.25758  0.56295633E-27  0.15121301E+02  0.16728006E+02
 -0.24747  0.55127726E-27  0.15120745E+02  0.16722799E+02
 -0.23737  0.53917475E-27  0.15120269E+02  0.16717717E+02
 -0.22727  0.52667176E-27  0.15119865E+02  0.16712757E+02
 -0.21717  0.51379217E-27  0.15119528E+02  0.16707911E+02
 -0.20707  0.50056077E-27  0.15119250E+02  0.16703174E+02
 -0.19697  0.48700313E-27  0.15119024E+02  0.16698540E+02
 -0.18687  0.47314565E-27  0.15118842E+02  0.16694005E+02
 -0.17677  0.45901541E-27  0.15118698E+02  0.16689561E+02
 -0.16667  0.44464015E-27  0.15118583E+02  0.16685201E+02
 -0.15657  0.43004820E-27  0.15118489E+02  0.16680920E+02
 -0.14646  0.41526838E-27  0.15118406E+02  0.16676706E+02
 -0.13636  0.40032984E-27  0.15118319E+02  0.16672547E+02
 -0.12626  0.38526167E-27  0.15118206E+02  0.16668418E+02
 -0.11616  0.37009159E-27  0.15118003E+02  0.16664250E+02
 -0.10606  0.35483507E-27  0.15117376E+02  0.16659672E+02
 -0.09596  0.33984743E-27  0.15123345E+02  0.16662548E+02
 -0.08586  0.32438324E-27  0.15119087E+02  0.16654039E+02
 -0.07576  0.30912249E-27  0.15118648E+02  0.16649875E+02
 -0.06566  0.29392901E-27  0.15118395E+02  0.16645993E+02
 -0.05556  0.27882682E-27  0.15118166E+02  0.16642211E+02
 -0.04545  0.26384546E-27  0.15117919E+02  0.16638484E+02
 -0.03535  0.24901539E-27  0.15117635E+02  0.16634794E+02
 -0.02525  0.23436721E-27  0.15117303E+02  0.16631129E+02
 -0.01515  0.21993137E-27  0.15116914E+02  0.16627481E+02
 -0.00505  0.20573807E-27  0.15116460E+02  0.16623843E+02
  0.00505  0.19181715E-27  0.15115934E+02  0.16620209E+02
  0.01515  0.17819801E-27  0.15115331E+02  0.16616574E+02
  0.02525  0.16490958E-27  0.15114643E+02  0.16612932E+02
  0.03535  0.15198019E-27  0.15113864E+02  0.16609279E+02
  0.04545  0.13943760E-27  0.15112989E+02  0.16605608E+02
  0.05556  0.12730884E-27  0.15112012E+02  0.16601916E+02
  0.06566  0.11562026E-27  0.15110928E+02  0.16598197E+02
  0.07576  0.10439739E-27  0.15109730E+02  0.16594446E+02
  0.08586  0.93664930E-28  0.15108413E+02  0.16590659E+02
  0.09596  0.83446691E-28  0.15106971E+02  0.16586831E+02
  0.10606  0.73765551E-28  0.15105400E+02  0.16582957E+02
  0.11616  0.64643405E-28  0.15103694E+02  0.16579034E+02
  0.12626  0.56101123E-28  0.15101848E+02  0.16575056E+02
  0.13636  0.48158509E-28  0.15099856E+02  0.16571018E+02
  0.14646  0.40834262E-28  0.15097714E+02  0.16566917E+02
  0.15657  0.34145937E-28  0.15095417E+02  0.16562748E+02
  0.16667  0.28109918E-28  0.15092959E+02  0.16558507E+02
  0.17677  0.22741377E-28  0.15090335E+02  0.16554190E+02
  0.18687  0.18054255E-28  0.15087542E+02  0.16549791E+02
  0.19697  0.14061229E-28  0.15084574E+02  0.16545308E+02
  0.20707  0.10773691E-28  0.15081427E+02  0.16540735E+02
  0.21717  0.82017288E-29  0.15078095E+02  0.16536070E+02
  0.22727  0.63541053E-29  0.15074576E+02  0.16531307E+02
  0.23737  0.52382459E-29  0.15070863E+02  0.16526443E+02
  0.24747  0.48602251E-29  0.15066953E+02  0.16521474E+02
  0.25758  0.52247575E-29  0.15062842E+02  0.16516396E+02
  0.26768  0.63351910E-29  0.15058526E+02  0.16511206E+02
  0.27778  0.81935034E-29  0.15053999E+02  0.16505898E+02
  0.28788  0.10800301E-28  0.15049259E+02  0.16500471E+02
  0.29798  0.14154822E-28  0.15044302E+02  0.16494920E+02
  0.30808  0.18254938E-28  0.15039123E+02  0.16489241E+02
  0.31818  0.23097165E-28  0.15033718E+02  0.16483431E+02
  0.32828  0.28676671E-28  0.15028085E+02  0.16477487E+02
  0.33838  0.34987292E-28  0.15022219E+02  0.16471405E+02
  0.34848  0.42021542E-28  0.15016117E+02  0.16465181E+02
  0.35859  0.49770637E-28  0.15009776E+02  0.16458813E+02
  0.36869  0.58224512E-28  0.15003192E+02  0.16452297E+02
  0.37879  0.67371844E-28  0.14996361E+02  0.16445630E+02
  0.38889  0.77200080E-28  0.14989282E+02  0.16438809E+02
  0.39899  0.87695462E-28  0.14981949E+02  0.16431831E+02
  0.40909  0.98843058E-28  0.14974362E+02  0.16424692E+02
  0.41919  0.11062680E-27  0.14966516E+02  0.16417390E+02
  0.42929  0.12302949E-27  0.14958408E+02  0.16409922E+02
  0.43939  0.13603289E-27  0.14950036E+02  0.16402285E+02
  0.44949  0.14961771E-27  0.14941398E+02  0.16394476E+02
  0.45960  0.16376368E-27  0.14932490E+02  0.16386493E+02
  0.46970  0.17844955E-27  0.14923310E+02  0.16378333E+02
  0.47980  0.19365319E-27  0.14913856E+02  0.16369993E+02
  0.48990  0.20935159E-27  0.14904125E+02  0.16361470E+02
  0.50000  0.22552093E-27  0.14894115E+02  0.16352763E+02
 Transport for spin ->  1  , kxy-point ->   3, of Node     0
           kxy=(-.142 0.082 0.000 ),w= 0.0156
    E           T(E)            TotDOS         PDOS
 -0.50000  0.77146387E-27  0.13358708E+02  0.15361665E+02
 -0.48990  0.77370880E-27  0.13342065E+02  0.15346003E+02
 -0.47980  0.77508723E-27  0.13325640E+02  0.15330646E+02
 -0.46970  0.77559628E-27  0.13309429E+02  0.15315588E+02
 -0.45960  0.77523514E-27  0.13293429E+02  0.15300824E+02
 -0.44949  0.77400504E-27  0.13277634E+02  0.15286351E+02
 -0.43939  0.77190922E-27  0.13262042E+02  0.15272164E+02
 -0.42929  0.76895295E-27  0.13246649E+02  0.15258260E+02
 -0.41919  0.76514347E-27  0.13231452E+02  0.15244635E+02
 -0.40909  0.76048997E-27  0.13216450E+02  0.15231288E+02
 -0.39899  0.75500358E-27  0.13201639E+02  0.15218215E+02
 -0.38889  0.74869733E-27  0.13187018E+02  0.15205414E+02
 -0.37879  0.74158606E-27  0.13172586E+02  0.15192883E+02
 -0.36869  0.73368646E-27  0.13158339E+02  0.15180621E+02
 -0.35859  0.72501695E-27  0.13144279E+02  0.15168626E+02
 -0.34848  0.71559764E-27  0.13130404E+02  0.15156898E+02
 -0.33838  0.70545034E-27  0.13116713E+02  0.15145436E+02
 -0.32828  0.69459839E-27  0.13103206E+02  0.15134239E+02
 -0.31818  0.68306671E-27  0.13089884E+02  0.15123307E+02
 -0.30808  0.67088167E-27  0.13076746E+02  0.15112641E+02
 -0.29798  0.65807102E-27  0.13063793E+02  0.15102241E+02
 -0.28788  0.64466389E-27  0.13051026E+02  0.15092108E+02
 -0.27778  0.63069062E-27  0.13038446E+02  0.15082242E+02
 -0.26768  0.61618277E-27  0.13026055E+02  0.15072646E+02
 -0.25758  0.60117301E-27  0.13013854E+02  0.15063321E+02
 -0.24747  0.58569504E-27  0.13001844E+02  0.15054269E+02
 -0.23737  0.56978353E-27  0.12990029E+02  0.15045492E+02
 -0.22727  0.55347401E-27  0.12978410E+02  0.15036992E+02
 -0.21717  0.53680285E-27  0.12966990E+02  0.15028773E+02
 -0.20707  0.51980710E-27  0.12955771E+02  0.15020836E+02
 -0.19697  0.50252449E-27  0.12944758E+02  0.15013187E+02
 -0.18687  0.48499328E-27  0.12933952E+02  0.15005827E+02
 -0.17677  0.46725222E-27  0.12923358E+02  0.14998761E+02
 -0.16667  0.44934046E-27  0.12912980E+02  0.14991994E+02
 -0.15657  0.43129744E-27  0.12902821E+02  0.14985528E+02
 -0.14646  0.41316287E-27  0.12892886E+02  0.14979370E+02
 -0.13636  0.39497657E-27  0.12883179E+02  0.14973523E+02
 -0.12626  0.37677847E-27  0.12873704E+02  0.14967994E+02
 -0.11616  0.35860845E-27  0.12864468E+02  0.14962787E+02
 -0.10606  0.34050633E-27  0.12855474E+02  0.14957908E+02
 -0.09596  0.32251175E-27  0.12846729E+02  0.14953363E+02
 -0.08586  0.30466411E-27  0.12838238E+02  0.14949158E+02
 -0.07576  0.28700248E-27  0.12830006E+02  0.14945300E+02
 -0.06566  0.26956554E-27  0.12822040E+02  0.14941796E+02
 -0.05556  0.25239149E-27  0.12814346E+02  0.14938652E+02
 -0.04545  0.23551802E-27  0.12806931E+02  0.14935876E+02
 -0.03535  0.21898218E-27  0.12799800E+02  0.14933475E+02
 -0.02525  0.20282033E-27  0.12792962E+02  0.14931457E+02
 -0.01515  0.18706812E-27  0.12786424E+02  0.14929831E+02
 -0.00505  0.17176036E-27  0.12780192E+02  0.14928604E+02
  0.00505  0.15693100E-27  0.12774274E+02  0.14927785E+02
  0.01515  0.14261305E-27  0.12768679E+02  0.14927383E+02
  0.02525  0.12883852E-27  0.12763413E+02  0.14927406E+02
  0.03535  0.11563837E-27  0.12758486E+02  0.14927865E+02
  0.04545  0.10304248E-27  0.12753906E+02  0.14928769E+02
  0.05556  0.91079539E-28  0.12749680E+02  0.14930128E+02
  0.06566  0.79777048E-28  0.12745819E+02  0.14931951E+02
  0.07576  0.69161251E-28  0.12742331E+02  0.14934249E+02
  0.08586  0.59257091E-28  0.12739225E+02  0.14937032E+02
  0.09596  0.50088169E-28  0.12736511E+02  0.14940312E+02
  0.10606  0.41676701E-28  0.12734197E+02  0.14944098E+02
  0.11616  0.34043483E-28  0.12732293E+02  0.14948402E+02
  0.12626  0.27207852E-28  0.12730810E+02  0.14953235E+02
  0.13636  0.21187653E-28  0.12729756E+02  0.14958608E+02
  0.14646  0.15999206E-28  0.12729142E+02  0.14964532E+02
  0.15657  0.11657279E-28  0.12728977E+02  0.14971019E+02
  0.16667  0.81750574E-29  0.12729271E+02  0.14978080E+02
  0.17677  0.55641178E-29  0.12730034E+02  0.14985725E+02
  0.18687  0.38344062E-29  0.12731275E+02  0.14993967E+02
  0.19697  0.29942135E-29  0.12733003E+02  0.15002815E+02
  0.20707  0.30501548E-29  0.12735228E+02  0.15012281E+02
  0.21717  0.40071492E-29  0.12737959E+02  0.15022373E+02
  0.22727  0.58684001E-29  0.12741203E+02  0.15033102E+02
  0.23737  0.86353772E-29  0.12744968E+02  0.15044477E+02
  0.24747  0.12307797E-28  0.12749262E+02  0.15056505E+02
  0.25758  0.16883605E-28  0.12754089E+02  0.15069193E+02
  0.26768  0.22358954E-28  0.12759456E+02  0.15082546E+02
  0.27778  0.28728186E-28  0.12765366E+02  0.15096568E+02
  0.28788  0.35983803E-28  0.12771820E+02  0.15111262E+02
  0.29798  0.44116448E-28  0.12778818E+02  0.15126625E+02
  0.30808  0.53114865E-28  0.12786359E+02  0.15142655E+02
  0.31818  0.62965868E-28  0.12794437E+02  0.15159345E+02
  0.32828  0.73654294E-28  0.12803042E+02  0.15176683E+02
  0.33838  0.85162948E-28  0.12812164E+02  0.15194653E+02
  0.34848  0.97472537E-28  0.12821783E+02  0.15213233E+02
  0.35859  0.11056159E-27  0.12831876E+02  0.15232394E+02
  0.36869  0.12440635E-27  0.12842413E+02  0.15252099E+02
  0.37879  0.13898066E-27  0.12853355E+02  0.15272298E+02
  0.38889  0.15425581E-27  0.12864653E+02  0.15292931E+02
  0.39899  0.17020031E-27  0.12876246E+02  0.15313922E+02
  0.40909  0.18677970E-27  0.12888058E+02  0.15335179E+02
  0.41919  0.20395621E-27  0.12899995E+02  0.15356586E+02
  0.42929  0.22168842E-27  0.12911941E+02  0.15378000E+02
  0.43939  0.23993073E-27  0.12923756E+02  0.15399248E+02
  0.44949  0.25863285E-27  0.12935264E+02  0.15420115E+02
  0.45960  0.27773894E-27  0.12946253E+02  0.15440339E+02
  0.46970  0.29718674E-27  0.12956460E+02  0.15459598E+02
  0.47980  0.31690630E-27  0.12965561E+02  0.15477493E+02
  0.48990  0.33681837E-27  0.12973156E+02  0.15493534E+02
  0.50000  0.35683240E-27  0.12978749E+02  0.15507113E+02
 Transport for spin ->  1  , kxy-point ->   4, of Node     0
           kxy=(0.000 0.000 0.000 ),w= 0.0156
    E           T(E)            TotDOS         PDOS
 -0.50000  0.38631317E-29  0.38172207E+01  0.38172207E+01
 -0.48990  0.11033717E-28  0.38751017E+01  0.38751017E+01
 -0.47980  0.98361918E-28  0.47588742E+01  0.47588742E+01
 -0.46970  0.11725851E-27  0.48879053E+01  0.48879053E+01
 -0.45960  0.12851831E-28  0.38228631E+01  0.38228631E+01
 -0.44949  0.47378966E-29  0.37239566E+01  0.37239566E+01
 -0.43939  0.24861372E-29  0.36824840E+01  0.36824840E+01
 -0.42929  0.15478287E-29  0.36533267E+01  0.36533267E+01
 -0.41919  0.10660056E-29  0.36280539E+01  0.36280539E+01
 -0.40909  0.78463605E-30  0.36041486E+01  0.36041486E+01
 -0.39899  0.60529484E-30  0.35806296E+01  0.35806296E+01
 -0.38889  0.48347980E-30  0.35570346E+01  0.35570346E+01
 -0.37879  0.39663672E-30  0.35331090E+01  0.35331090E+01
 -0.36869  0.33232028E-30  0.35086908E+01  0.35086908E+01
 -0.35859  0.28319492E-30  0.34836624E+01  0.34836624E+01
 -0.34848  0.24470274E-30  0.34579282E+01  0.34579282E+01
 -0.33838  0.21388686E-30  0.34314027E+01  0.34314027E+01
 -0.32828  0.18875869E-30  0.34040039E+01  0.34040039E+01
 -0.31818  0.16793942E-30  0.33756499E+01  0.33756499E+01
 -0.30808  0.15044774E-30  0.33462557E+01  0.33462557E+01
 -0.29798  0.13556914E-30  0.33157314E+01  0.33157314E+01
 -0.28788  0.12277295E-30  0.32839805E+01  0.32839805E+01
 -0.27778  0.11165804E-30  0.32508987E+01  0.32508987E+01
 -0.26768  0.10191640E-30  0.32163717E+01  0.32163717E+01
 -0.25758  0.93308177E-31  0.31802741E+01  0.31802741E+01
 -0.24747  0.85644218E-31  0.31424670E+01  0.31424670E+01
 -0.23737  0.78773603E-31  0.31027967E+01  0.31027967E+01
 -0.22727  0.72574641E-31  0.30610910E+01  0.30610910E+01
 -0.21717  0.66948243E-31  0.30171576E+01  0.30171576E+01
 -0.20707  0.61812977E-31  0.29707791E+01  0.29707791E+01
 -0.19697  0.57101337E-31  0.29217097E+01  0.29217097E+01
 -0.18687  0.52756885E-31  0.28696692E+01  0.28696692E+01
 -0.17677  0.48732041E-31  0.28143361E+01  0.28143361E+01
 -0.16667  0.44986342E-31  0.27553390E+01  0.27553390E+01
 -0.15657  0.41485057E-31  0.26922456E+01  0.26922456E+01
 -0.14646  0.38198064E-31  0.26245473E+01  0.26245473E+01
 -0.13636  0.35098905E-31  0.25516397E+01  0.25516397E+01
 -0.12626  0.32163978E-31  0.24727953E+01  0.24727953E+01
 -0.11616  0.29371788E-31  0.23871253E+01  0.23871253E+01
 -0.10606  0.26702212E-31  0.22935241E+01  0.22935241E+01
 -0.09596  0.24135680E-31  0.21905859E+01  0.21905859E+01
 -0.08586  0.21652146E-31  0.20764740E+01  0.20764740E+01
 -0.07576  0.19229600E-31  0.19487038E+01  0.19487038E+01
 -0.06566  0.16841595E-31  0.18037565E+01  0.18037565E+01
 -0.05556  0.14452533E-31  0.16363267E+01  0.16363267E+01
 -0.04545  0.12007153E-31  0.14376481E+01  0.14376481E+01
 -0.03535  0.94014781E-32  0.11909525E+01  0.11909525E+01
 -0.02525  0.63664162E-32  0.85374902E+00  0.85374902E+00
 -0.01515  0.48782932E-34  0.71201976E-02  0.71201976E-02
 -0.00505  0.40250643E-35  0.80153041E-03  0.80153041E-03
  0.00505  0.27697163E-35  0.63606956E-03  0.63606956E-03
  0.01515  0.22011241E-35  0.56450305E-03  0.56450305E-03
  0.02525  0.18579240E-35  0.52340861E-03  0.52340861E-03
  0.03535  0.16222136E-35  0.49685509E-03  0.49685509E-03
  0.04545  0.14479305E-35  0.47872229E-03  0.47872229E-03
  0.05556  0.13127991E-35  0.46610409E-03  0.46610409E-03
  0.06566  0.12045324E-35  0.45743211E-03  0.45743211E-03
  0.07576  0.11157166E-35  0.45178663E-03  0.45178663E-03
  0.08586  0.10415787E-35  0.44859885E-03  0.44859885E-03
  0.09596  0.97889291E-36  0.44750655E-03  0.44750655E-03
  0.10606  0.92539737E-36  0.44827825E-03  0.44827825E-03
  0.11616  0.87946113E-36  0.45077072E-03  0.45077072E-03
  0.12626  0.83988430E-36  0.45490430E-03  0.45490430E-03
  0.13636  0.80577279E-36  0.46064817E-03  0.46064817E-03
  0.14646  0.77645731E-36  0.46801171E-03  0.46801171E-03
  0.15657  0.75143975E-36  0.47703976E-03  0.47703976E-03
  0.16667  0.73035735E-36  0.48781059E-03  0.48781059E-03
  0.17677  0.71295879E-36  0.50043593E-03  0.50043593E-03
  0.18687  0.69908875E-36  0.51506282E-03  0.51506282E-03
  0.19697  0.68867893E-36  0.53187716E-03  0.53187716E-03
  0.20707  0.68174413E-36  0.55110894E-03  0.55110894E-03
  0.21717  0.67838296E-36  0.57303961E-03  0.57303961E-03
  0.22727  0.67878301E-36  0.59801180E-03  0.59801180E-03
  0.23737  0.68323071E-36  0.62644223E-03  0.62644223E-03
  0.24747  0.69212674E-36  0.65883839E-03  0.65883839E-03
  0.25758  0.70600828E-36  0.69582069E-03  0.69582069E-03
  0.26768  0.72558004E-36  0.73815139E-03  0.73815139E-03
  0.27778  0.75175703E-36  0.78677332E-03  0.78677332E-03
  0.28788  0.78572363E-36  0.84286172E-03  0.84286172E-03
  0.29798  0.82901528E-36  0.90789482E-03  0.90789482E-03
  0.30808  0.88363288E-36  0.98375109E-03  0.98375109E-03
  0.31818  0.95220468E-36  0.10728452E-02  0.10728452E-02
  0.32828  0.10382193E-35  0.11783219E-02  0.11783219E-02
  0.33838  0.11463668E-35  0.13043360E-02  0.13043360E-02
  0.34848  0.12830487E-35  0.14564691E-02  0.14564691E-02
  0.35859  0.14571580E-35  0.16423585E-02  0.16423585E-02
  0.36869  0.16813048E-35  0.18726797E-02  0.18726797E-02
  0.37879  0.19738007E-35  0.21627211E-02  0.21627211E-02
  0.38889  0.23619878E-35  0.25350046E-02  0.25350046E-02
  0.39899  0.28880532E-35  0.30238242E-02  0.30238242E-02
  0.40909  0.36196863E-35  0.36834946E-02  0.36834946E-02
  0.41919  0.46707729E-35  0.46042353E-02  0.46042353E-02
  0.42929  0.62445022E-35  0.59449829E-02  0.59449829E-02
  0.43939  0.87314323E-35  0.80074135E-02  0.80074135E-02
  0.44949  0.12959470E-34  0.11423058E-01  0.11423058E-01
  0.45960  0.20937010E-34  0.17704854E-01  0.17704854E-01
  0.46970  0.38610968E-34  0.31276433E-01  0.31276433E-01
  0.47980  0.90504568E-34  0.70144676E-01  0.70144676E-01
  0.48990  0.38124987E-33  0.28246984E+00  0.28246984E+00
  0.50000  0.21094875E-29  0.14931997E+04  0.14931997E+04
 Transport for spin ->  1  , kxy-point ->   5, of Node     0
           kxy=(0.142 -.082 0.000 ),w= 0.0156
    E           T(E)            TotDOS         PDOS
 -0.50000  0.77146387E-27  0.13358708E+02  0.15361665E+02
 -0.48990  0.77370880E-27  0.13342065E+02  0.15346003E+02
 -0.47980  0.77508723E-27  0.13325640E+02  0.15330646E+02
 -0.46970  0.77559628E-27  0.13309429E+02  0.15315588E+02
 -0.45960  0.77523514E-27  0.13293429E+02  0.15300824E+02
 -0.44949  0.77400504E-27  0.13277634E+02  0.15286351E+02
 -0.43939  0.77190922E-27  0.13262042E+02  0.15272164E+02
 -0.42929  0.76895295E-27  0.13246649E+02  0.15258260E+02
 -0.41919  0.76514347E-27  0.13231452E+02  0.15244635E+02
 -0.40909  0.76048997E-27  0.13216450E+02  0.15231288E+02
 -0.39899  0.75500358E-27  0.13201639E+02  0.15218215E+02
 -0.38889  0.74869733E-27  0.13187018E+02  0.15205414E+02
 -0.37879  0.74158606E-27  0.13172586E+02  0.15192883E+02
 -0.36869  0.73368646E-27  0.13158339E+02  0.15180621E+02
 -0.35859  0.72501695E-27  0.13144279E+02  0.15168626E+02
 -0.34848  0.71559764E-27  0.13130404E+02  0.15156898E+02
 -0.33838  0.70545034E-27  0.13116713E+02  0.15145436E+02
 -0.32828  0.69459839E-27  0.13103206E+02  0.15134239E+02
 -0.31818  0.68306671E-27  0.13089884E+02  0.15123307E+02
 -0.30808  0.67088167E-27  0.13076746E+02  0.15112641E+02
 -0.29798  0.65807102E-27  0.13063793E+02  0.15102241E+02
 -0.28788  0.64466389E-27  0.13051026E+02  0.15092108E+02
 -0.27778  0.63069062E-27  0.13038446E+02  0.15082242E+02
 -0.26768  0.61618277E-27  0.13026055E+02  0.15072646E+02
 -0.25758  0.60117301E-27  0.13013854E+02  0.15063321E+02
 -0.24747  0.58569504E-27  0.13001844E+02  0.15054269E+02
 -0.23737  0.56978353E-27  0.12990029E+02  0.15045492E+02
 -0.22727  0.55347401E-27  0.12978410E+02  0.15036992E+02
 -0.21717  0.53680285E-27  0.12966990E+02  0.15028773E+02
 -0.20707  0.51980710E-27  0.12955771E+02  0.15020836E+02
 -0.19697  0.50252449E-27  0.12944758E+02  0.15013187E+02
 -0.18687  0.48499328E-27  0.12933952E+02  0.15005827E+02
 -0.17677  0.46725222E-27  0.12923358E+02  0.14998761E+02
 -0.16667  0.44934046E-27  0.12912980E+02  0.14991994E+02
 -0.15657  0.43129744E-27  0.12902821E+02  0.14985528E+02
 -0.14646  0.41316287E-27  0.12892886E+02  0.14979370E+02
 -0.13636  0.39497657E-27  0.12883179E+02  0.14973523E+02
 -0.12626  0.37677847E-27  0.12873704E+02  0.14967994E+02
 -0.11616  0.35860845E-27  0.12864468E+02  0.14962787E+02
 -0.10606  0.34050633E-27  0.12855474E+02  0.14957908E+02
 -0.09596  0.32251175E-27  0.12846729E+02  0.14953363E+02
 -0.08586  0.30466411E-27  0.12838238E+02  0.14949158E+02
 -0.07576  0.28700248E-27  0.12830006E+02  0.14945300E+02
 -0.06566  0.26956554E-27  0.12822040E+02  0.14941796E+02
 -0.05556  0.25239149E-27  0.12814346E+02  0.14938652E+02
 -0.04545  0.23551802E-27  0.12806931E+02  0.14935876E+02
 -0.03535  0.21898218E-27  0.12799800E+02  0.14933475E+02
 -0.02525  0.20282033E-27  0.12792962E+02  0.14931457E+02
 -0.01515  0.18706812E-27  0.12786424E+02  0.14929831E+02
 -0.00505  0.17176036E-27  0.12780192E+02  0.14928604E+02
  0.00505  0.15693100E-27  0.12774274E+02  0.14927785E+02
  0.01515  0.14261305E-27  0.12768679E+02  0.14927383E+02
  0.02525  0.12883852E-27  0.12763413E+02  0.14927406E+02
  0.03535  0.11563837E-27  0.12758486E+02  0.14927865E+02
  0.04545  0.10304248E-27  0.12753906E+02  0.14928769E+02
  0.05556  0.91079539E-28  0.12749680E+02  0.14930128E+02
  0.06566  0.79777048E-28  0.12745819E+02  0.14931951E+02
  0.07576  0.69161251E-28  0.12742331E+02  0.14934249E+02
  0.08586  0.59257091E-28  0.12739225E+02  0.14937032E+02
  0.09596  0.50088169E-28  0.12736511E+02  0.14940312E+02
  0.10606  0.41676701E-28  0.12734197E+02  0.14944098E+02
  0.11616  0.34043483E-28  0.12732293E+02  0.14948402E+02
  0.12626  0.27207852E-28  0.12730810E+02  0.14953235E+02
  0.13636  0.21187653E-28  0.12729756E+02  0.14958608E+02
  0.14646  0.15999206E-28  0.12729142E+02  0.14964532E+02
  0.15657  0.11657279E-28  0.12728977E+02  0.14971019E+02
  0.16667  0.81750574E-29  0.12729271E+02  0.14978080E+02
  0.17677  0.55641178E-29  0.12730034E+02  0.14985725E+02
  0.18687  0.38344062E-29  0.12731275E+02  0.14993967E+02
  0.19697  0.29942135E-29  0.12733003E+02  0.15002815E+02
  0.20707  0.30501548E-29  0.12735228E+02  0.15012281E+02
  0.21717  0.40071492E-29  0.12737959E+02  0.15022373E+02
  0.22727  0.58684001E-29  0.12741203E+02  0.15033102E+02
  0.23737  0.86353772E-29  0.12744968E+02  0.15044477E+02
  0.24747  0.12307797E-28  0.12749262E+02  0.15056505E+02
  0.25758  0.16883605E-28  0.12754089E+02  0.15069193E+02
  0.26768  0.22358954E-28  0.12759456E+02  0.15082546E+02
  0.27778  0.28728186E-28  0.12765366E+02  0.15096568E+02
  0.28788  0.35983803E-28  0.12771820E+02  0.15111262E+02
  0.29798  0.44116448E-28  0.12778818E+02  0.15126625E+02
  0.30808  0.53114865E-28  0.12786359E+02  0.15142655E+02
  0.31818  0.62965868E-28  0.12794437E+02  0.15159345E+02
  0.32828  0.73654294E-28  0.12803042E+02  0.15176683E+02
  0.33838  0.85162948E-28  0.12812164E+02  0.15194653E+02
  0.34848  0.97472537E-28  0.12821783E+02  0.15213233E+02
  0.35859  0.11056159E-27  0.12831876E+02  0.15232394E+02
  0.36869  0.12440635E-27  0.12842413E+02  0.15252099E+02
  0.37879  0.13898066E-27  0.12853355E+02  0.15272298E+02
  0.38889  0.15425581E-27  0.12864653E+02  0.15292931E+02
  0.39899  0.17020031E-27  0.12876246E+02  0.15313922E+02
  0.40909  0.18677970E-27  0.12888058E+02  0.15335179E+02
  0.41919  0.20395621E-27  0.12899995E+02  0.15356586E+02
  0.42929  0.22168842E-27  0.12911941E+02  0.15378000E+02
  0.43939  0.23993073E-27  0.12923756E+02  0.15399248E+02
  0.44949  0.25863285E-27  0.12935264E+02  0.15420115E+02
  0.45960  0.27773894E-27  0.12946253E+02  0.15440339E+02
  0.46970  0.29718674E-27  0.12956460E+02  0.15459598E+02
  0.47980  0.31690630E-27  0.12965561E+02  0.15477493E+02
  0.48990  0.33681837E-27  0.12973156E+02  0.15493534E+02
  0.50000  0.35683240E-27  0.12978749E+02  0.15507113E+02
 Transport for spin ->  1  , kxy-point ->   1, of Node     1
           kxy=(0.284 -.164 0.000 ),w= 0.0156
    E           T(E)            TotDOS         PDOS
 -0.50000  0.67632197E-27  0.15176849E+02  0.16904967E+02
 -0.48990  0.67869202E-27  0.15172269E+02  0.16895104E+02
 -0.47980  0.68044463E-27  0.15167938E+02  0.16885496E+02
 -0.46970  0.68157309E-27  0.15163849E+02  0.16876139E+02
 -0.45960  0.68207193E-27  0.15159994E+02  0.16867027E+02
 -0.44949  0.68193696E-27  0.15156367E+02  0.16858155E+02
 -0.43939  0.68116527E-27  0.15152961E+02  0.16849517E+02
 -0.42929  0.67975524E-27  0.15149767E+02  0.16841109E+02
 -0.41919  0.67770659E-27  0.15146781E+02  0.16832924E+02
 -0.40909  0.67502035E-27  0.15143993E+02  0.16824958E+02
 -0.39899  0.67169888E-27  0.15141398E+02  0.16817205E+02
 -0.38889  0.66774588E-27  0.15138987E+02  0.16809660E+02
 -0.37879  0.66316637E-27  0.15136755E+02  0.16802317E+02
 -0.36869  0.65796671E-27  0.15134694E+02  0.16795171E+02
 -0.35859  0.65215459E-27  0.15132797E+02  0.16788216E+02
 -0.34848  0.64573899E-27  0.15131057E+02  0.16781448E+02
 -0.33838  0.63873023E-27  0.15129467E+02  0.16774860E+02
 -0.32828  0.63113987E-27  0.15128020E+02  0.16768447E+02
 -0.31818  0.62298078E-27  0.15126709E+02  0.16762204E+02
 -0.30808  0.61426706E-27  0.15125526E+02  0.16756126E+02
 -0.29798  0.60501402E-27  0.15124465E+02  0.16750206E+02
 -0.28788  0.59523819E-27  0.15123520E+02  0.16744440E+02
 -0.27778  0.58495724E-27  0.15122682E+02  0.16738821E+02
 -0.26768  0.57418998E-27  0.15121944E+02  0.16733345E+02
 -0.25758  0.56295633E-27  0.15121301E+02  0.16728006E+02
 -0.24747  0.55127726E-27  0.15120745E+02  0.16722799E+02
 -0.23737  0.53917475E-27  0.15120269E+02  0.16717717E+02
 -0.22727  0.52667176E-27  0.15119865E+02  0.16712757E+02
 -0.21717  0.51379217E-27  0.15119528E+02  0.16707911E+02
 -0.20707  0.50056077E-27  0.15119250E+02  0.16703174E+02
 -0.19697  0.48700313E-27  0.15119024E+02  0.16698540E+02
 -0.18687  0.47314565E-27  0.15118842E+02  0.16694005E+02
 -0.17677  0.45901541E-27  0.15118698E+02  0.16689561E+02
 -0.16667  0.44464015E-27  0.15118583E+02  0.16685201E+02
 -0.15657  0.43004820E-27  0.15118489E+02  0.16680920E+02
 -0.14646  0.41526838E-27  0.15118406E+02  0.16676706E+02
 -0.13636  0.40032984E-27  0.15118319E+02  0.16672547E+02
 -0.12626  0.38526167E-27  0.15118206E+02  0.16668418E+02
 -0.11616  0.37009159E-27  0.15118003E+02  0.16664250E+02
 -0.10606  0.35483507E-27  0.15117376E+02  0.16659672E+02
 -0.09596  0.33984743E-27  0.15123345E+02  0.16662548E+02
 -0.08586  0.32438324E-27  0.15119087E+02  0.16654039E+02
 -0.07576  0.30912249E-27  0.15118648E+02  0.16649875E+02
 -0.06566  0.29392901E-27  0.15118395E+02  0.16645993E+02
 -0.05556  0.27882682E-27  0.15118166E+02  0.16642211E+02
 -0.04545  0.26384546E-27  0.15117919E+02  0.16638484E+02
 -0.03535  0.24901539E-27  0.15117635E+02  0.16634794E+02
 -0.02525  0.23436721E-27  0.15117303E+02  0.16631129E+02
 -0.01515  0.21993137E-27  0.15116914E+02  0.16627481E+02
 -0.00505  0.20573807E-27  0.15116460E+02  0.16623843E+02
  0.00505  0.19181715E-27  0.15115934E+02  0.16620209E+02
  0.01515  0.17819801E-27  0.15115331E+02  0.16616574E+02
  0.02525  0.16490958E-27  0.15114643E+02  0.16612932E+02
  0.03535  0.15198019E-27  0.15113864E+02  0.16609279E+02
  0.04545  0.13943760E-27  0.15112989E+02  0.16605608E+02
  0.05556  0.12730884E-27  0.15112012E+02  0.16601916E+02
  0.06566  0.11562026E-27  0.15110928E+02  0.16598197E+02
  0.07576  0.10439739E-27  0.15109730E+02  0.16594446E+02
  0.08586  0.93664930E-28  0.15108413E+02  0.16590659E+02
  0.09596  0.83446691E-28  0.15106971E+02  0.16586831E+02
  0.10606  0.73765551E-28  0.15105400E+02  0.16582957E+02
  0.11616  0.64643405E-28  0.15103694E+02  0.16579034E+02
  0.12626  0.56101123E-28  0.15101848E+02  0.16575056E+02
  0.13636  0.48158509E-28  0.15099856E+02  0.16571018E+02
  0.14646  0.40834262E-28  0.15097714E+02  0.16566917E+02
  0.15657  0.34145937E-28  0.15095417E+02  0.16562748E+02
  0.16667  0.28109918E-28  0.15092959E+02  0.16558507E+02
  0.17677  0.22741377E-28  0.15090335E+02  0.16554190E+02
  0.18687  0.18054255E-28  0.15087542E+02  0.16549791E+02
  0.19697  0.14061229E-28  0.15084574E+02  0.16545308E+02
  0.20707  0.10773691E-28  0.15081427E+02  0.16540735E+02
  0.21717  0.82017288E-29  0.15078095E+02  0.16536070E+02
  0.22727  0.63541053E-29  0.15074576E+02  0.16531307E+02
  0.23737  0.52382459E-29  0.15070863E+02  0.16526443E+02
  0.24747  0.48602251E-29  0.15066953E+02  0.16521474E+02
  0.25758  0.52247575E-29  0.15062842E+02  0.16516396E+02
  0.26768  0.63351910E-29  0.15058526E+02  0.16511206E+02
  0.27778  0.81935034E-29  0.15053999E+02  0.16505898E+02
  0.28788  0.10800301E-28  0.15049259E+02  0.16500471E+02
  0.29798  0.14154822E-28  0.15044302E+02  0.16494920E+02
  0.30808  0.18254938E-28  0.15039123E+02  0.16489241E+02
  0.31818  0.23097165E-28  0.15033718E+02  0.16483431E+02
  0.32828  0.28676671E-28  0.15028085E+02  0.16477487E+02
  0.33838  0.34987292E-28  0.15022219E+02  0.16471405E+02
  0.34848  0.42021542E-28  0.15016117E+02  0.16465181E+02
  0.35859  0.49770637E-28  0.15009776E+02  0.16458813E+02
  0.36869  0.58224512E-28  0.15003192E+02  0.16452297E+02
  0.37879  0.67371844E-28  0.14996361E+02  0.16445630E+02
  0.38889  0.77200080E-28  0.14989282E+02  0.16438809E+02
  0.39899  0.87695462E-28  0.14981949E+02  0.16431831E+02
  0.40909  0.98843058E-28  0.14974362E+02  0.16424692E+02
  0.41919  0.11062680E-27  0.14966516E+02  0.16417390E+02
  0.42929  0.12302949E-27  0.14958408E+02  0.16409922E+02
  0.43939  0.13603289E-27  0.14950036E+02  0.16402285E+02
  0.44949  0.14961771E-27  0.14941398E+02  0.16394476E+02
  0.45960  0.16376368E-27  0.14932490E+02  0.16386493E+02
  0.46970  0.17844955E-27  0.14923310E+02  0.16378333E+02
  0.47980  0.19365319E-27  0.14913856E+02  0.16369993E+02
  0.48990  0.20935159E-27  0.14904125E+02  0.16361470E+02
  0.50000  0.22552093E-27  0.14894115E+02  0.16352763E+02
 Transport for spin ->  1  , kxy-point ->   2, of Node     1
           kxy=(0.427 -.246 0.000 ),w= 0.0156
    E           T(E)            TotDOS         PDOS
 -0.50000  0.56274067E-28  0.12845407E+02  0.81373546E+01
 -0.48990  0.54386163E-28  0.12824268E+02  0.81258113E+01
 -0.47980  0.52464554E-28  0.12803690E+02  0.81144383E+01
 -0.46970  0.50513731E-28  0.12783664E+02  0.81032321E+01
 -0.45960  0.48538335E-28  0.12764181E+02  0.80921893E+01
 -0.44949  0.46543148E-28  0.12745232E+02  0.80813069E+01
 -0.43939  0.44533093E-28  0.12726811E+02  0.80705820E+01
 -0.42929  0.42513223E-28  0.12708908E+02  0.80600119E+01
 -0.41919  0.40488719E-28  0.12691518E+02  0.80495940E+01
 -0.40909  0.38464881E-28  0.12674633E+02  0.80393260E+01
 -0.39899  0.36447123E-28  0.12658246E+02  0.80292058E+01
 -0.38889  0.34440965E-28  0.12642351E+02  0.80192313E+01
 -0.37879  0.32452027E-28  0.12626942E+02  0.80094006E+01
 -0.36869  0.30486023E-28  0.12612013E+02  0.79997119E+01
 -0.35859  0.28548750E-28  0.12597558E+02  0.79901636E+01
 -0.34848  0.26646085E-28  0.12583571E+02  0.79807542E+01
 -0.33838  0.24783974E-28  0.12570047E+02  0.79714823E+01
 -0.32828  0.22968424E-28  0.12556982E+02  0.79623466E+01
 -0.31818  0.21205498E-28  0.12544370E+02  0.79533458E+01
 -0.30808  0.19501303E-28  0.12532205E+02  0.79444789E+01
 -0.29798  0.17861984E-28  0.12520485E+02  0.79357448E+01
 -0.28788  0.16293715E-28  0.12509203E+02  0.79271426E+01
 -0.27778  0.14802689E-28  0.12498356E+02  0.79186715E+01
 -0.26768  0.13395111E-28  0.12487940E+02  0.79103305E+01
 -0.25758  0.12077189E-28  0.12477949E+02  0.79021191E+01
 -0.24747  0.10855121E-28  0.12468381E+02  0.78940365E+01
 -0.23737  0.97350938E-29  0.12459231E+02  0.78860821E+01
 -0.22727  0.87232653E-29  0.12450495E+02  0.78782555E+01
 -0.21717  0.78257607E-29  0.12442169E+02  0.78705560E+01
 -0.20707  0.70486613E-29  0.12434251E+02  0.78629833E+01
 -0.19697  0.63979952E-29  0.12426736E+02  0.78555369E+01
 -0.18687  0.58797282E-29  0.12419621E+02  0.78482166E+01
 -0.17677  0.54997545E-29  0.12412902E+02  0.78410219E+01
 -0.16667  0.52638866E-29  0.12406576E+02  0.78339527E+01
 -0.15657  0.51778468E-29  0.12400639E+02  0.78270087E+01
 -0.14646  0.52472573E-29  0.12395089E+02  0.78201896E+01
 -0.13636  0.54776309E-29  0.12389922E+02  0.78134954E+01
 -0.12626  0.58743618E-29  0.12385135E+02  0.78069258E+01
 -0.11616  0.64427165E-29  0.12380725E+02  0.78004807E+01
 -0.10606  0.71878244E-29  0.12376689E+02  0.77941601E+01
 -0.09596  0.81146688E-29  0.12373023E+02  0.77879639E+01
 -0.08586  0.92280780E-29  0.12369725E+02  0.77818920E+01
 -0.07576  0.10532716E-28  0.12366792E+02  0.77759444E+01
 -0.06566  0.12033076E-28  0.12364220E+02  0.77701210E+01
 -0.05556  0.13733467E-28  0.12362008E+02  0.77644220E+01
 -0.04545  0.15638012E-28  0.12360151E+02  0.77588473E+01
 -0.03535  0.17750632E-28  0.12358647E+02  0.77533969E+01
 -0.02525  0.20075045E-28  0.12357494E+02  0.77480709E+01
 -0.01515  0.22614755E-28  0.12356687E+02  0.77428693E+01
 -0.00505  0.25373043E-28  0.12356226E+02  0.77377923E+01
  0.00505  0.28352963E-28  0.12356106E+02  0.77328398E+01
  0.01515  0.31557330E-28  0.12356325E+02  0.77280120E+01
  0.02525  0.34988718E-28  0.12356880E+02  0.77233089E+01
  0.03535  0.38649450E-28  0.12357768E+02  0.77187306E+01
  0.04545  0.42541594E-28  0.12358987E+02  0.77142773E+01
  0.05556  0.46666952E-28  0.12360533E+02  0.77099489E+01
  0.06566  0.51027062E-28  0.12362404E+02  0.77057457E+01
  0.07576  0.55623183E-28  0.12364598E+02  0.77016678E+01
  0.08586  0.60456297E-28  0.12367111E+02  0.76977151E+01
  0.09596  0.65527102E-28  0.12369940E+02  0.76938879E+01
  0.10606  0.70836005E-28  0.12373083E+02  0.76901861E+01
  0.11616  0.76383120E-28  0.12376537E+02  0.76866100E+01
  0.12626  0.82168263E-28  0.12380299E+02  0.76831596E+01
  0.13636  0.88190950E-28  0.12384366E+02  0.76798350E+01
  0.14646  0.94450391E-28  0.12388736E+02  0.76766362E+01
  0.15657  0.10094549E-27  0.12393405E+02  0.76735633E+01
  0.16667  0.10767483E-27  0.12398371E+02  0.76706163E+01
  0.17677  0.11463671E-27  0.12403630E+02  0.76677954E+01
  0.18687  0.12182907E-27  0.12409181E+02  0.76651004E+01
  0.19697  0.12924958E-27  0.12415018E+02  0.76625313E+01
  0.20707  0.13689555E-27  0.12421141E+02  0.76600881E+01
  0.21717  0.14476400E-27  0.12427544E+02  0.76577705E+01
  0.22727  0.15285160E-27  0.12434225E+02  0.76555782E+01
  0.23737  0.16115471E-27  0.12441180E+02  0.76535104E+01
  0.24747  0.16966933E-27  0.12448403E+02  0.76515661E+01
  0.25758  0.17839106E-27  0.12455886E+02  0.76497425E+01
  0.26768  0.18731501E-27  0.12463617E+02  0.76480335E+01
  0.27778  0.19643517E-27  0.12471558E+02  0.76464191E+01
  0.28788  0.20573995E-27  0.12479510E+02  0.76447854E+01
  0.29798  0.21538601E-27  0.12492407E+02  0.76460032E+01
  0.30808  0.22496702E-27  0.12498050E+02  0.76429810E+01
  0.31818  0.23482066E-27  0.12506902E+02  0.76418045E+01
  0.32828  0.24484814E-27  0.12516148E+02  0.76408380E+01
  0.33838  0.25503942E-27  0.12525680E+02  0.76400212E+01
  0.34848  0.26538679E-27  0.12535474E+02  0.76393408E+01
  0.35859  0.27588275E-27  0.12545516E+02  0.76387919E+01
  0.36869  0.28651969E-27  0.12555801E+02  0.76383724E+01
  0.37879  0.29728979E-27  0.12566324E+02  0.76380811E+01
  0.38889  0.30818497E-27  0.12577081E+02  0.76379174E+01
  0.39899  0.31919693E-27  0.12588068E+02  0.76378808E+01
  0.40909  0.33031715E-27  0.12599280E+02  0.76379709E+01
  0.41919  0.34153684E-27  0.12610716E+02  0.76381874E+01
  0.42929  0.35284700E-27  0.12622370E+02  0.76385302E+01
  0.43939  0.36423841E-27  0.12634241E+02  0.76389989E+01
  0.44949  0.37570165E-27  0.12646324E+02  0.76395934E+01
  0.45960  0.38722708E-27  0.12658616E+02  0.76403133E+01
  0.46970  0.39880488E-27  0.12671114E+02  0.76411586E+01
  0.47980  0.41042503E-27  0.12683814E+02  0.76421290E+01
  0.48990  0.42207737E-27  0.12696714E+02  0.76432241E+01
  0.50000  0.43375155E-27  0.12709809E+02  0.76444439E+01
 Transport for spin ->  1  , kxy-point ->   3, of Node     1
           kxy=(0.569 -.328 0.000 ),w= 0.0156
    E           T(E)            TotDOS         PDOS
 -0.50000  0.16271146E-32  0.10036507E+02  0.10036507E+02
 -0.48990  0.16538194E-32  0.10112751E+02  0.10112751E+02
 -0.47980  0.16809811E-32  0.10188003E+02  0.10188003E+02
 -0.46970  0.17086195E-32  0.10262306E+02  0.10262306E+02
 -0.45960  0.17367552E-32  0.10335704E+02  0.10335704E+02
 -0.44949  0.17654094E-32  0.10408236E+02  0.10408236E+02
 -0.43939  0.17946043E-32  0.10479944E+02  0.10479944E+02
 -0.42929  0.18243632E-32  0.10550865E+02  0.10550865E+02
 -0.41919  0.18547106E-32  0.10621037E+02  0.10621037E+02
 -0.40909  0.18856727E-32  0.10690498E+02  0.10690498E+02
 -0.39899  0.19172773E-32  0.10759284E+02  0.10759284E+02
 -0.38889  0.19495547E-32  0.10827429E+02  0.10827429E+02
 -0.37879  0.19825374E-32  0.10894969E+02  0.10894969E+02
 -0.36869  0.20162611E-32  0.10961939E+02  0.10961939E+02
 -0.35859  0.20507649E-32  0.11028372E+02  0.11028372E+02
 -0.34848  0.20860921E-32  0.11094302E+02  0.11094302E+02
 -0.33838  0.21222908E-32  0.11159763E+02  0.11159763E+02
 -0.32828  0.21594150E-32  0.11224789E+02  0.11224789E+02
 -0.31818  0.21975251E-32  0.11289413E+02  0.11289413E+02
 -0.30808  0.22366898E-32  0.11353668E+02  0.11353668E+02
 -0.29798  0.22769873E-32  0.11417590E+02  0.11417590E+02
 -0.28788  0.23185069E-32  0.11481212E+02  0.11481212E+02
 -0.27778  0.23613514E-32  0.11544569E+02  0.11544569E+02
 -0.26768  0.24056400E-32  0.11607696E+02  0.11607696E+02
 -0.25758  0.24515111E-32  0.11670628E+02  0.11670628E+02
 -0.24747  0.24991270E-32  0.11733404E+02  0.11733404E+02
 -0.23737  0.25486786E-32  0.11796059E+02  0.11796059E+02
 -0.22727  0.26003922E-32  0.11858634E+02  0.11858634E+02
 -0.21717  0.26545378E-32  0.11921166E+02  0.11921166E+02
 -0.20707  0.27114400E-32  0.11983697E+02  0.11983697E+02
 -0.19697  0.27714916E-32  0.12046270E+02  0.12046270E+02
 -0.18687  0.28351729E-32  0.12108928E+02  0.12108928E+02
 -0.17677  0.29030758E-32  0.12171716E+02  0.12171716E+02
 -0.16667  0.29759382E-32  0.12234683E+02  0.12234683E+02
 -0.15657  0.30546906E-32  0.12297877E+02  0.12297877E+02
 -0.14646  0.31405221E-32  0.12361350E+02  0.12361350E+02
 -0.13636  0.32349758E-32  0.12425157E+02  0.12425157E+02
 -0.12626  0.33400896E-32  0.12489353E+02  0.12489353E+02
 -0.11616  0.34586099E-32  0.12554000E+02  0.12554000E+02
 -0.10606  0.35943286E-32  0.12619160E+02  0.12619160E+02
 -0.09596  0.37526330E-32  0.12684900E+02  0.12684900E+02
 -0.08586  0.39414480E-32  0.12751290E+02  0.12751290E+02
 -0.07576  0.41729454E-32  0.12818405E+02  0.12818405E+02
 -0.06566  0.44668737E-32  0.12886325E+02  0.12886325E+02
 -0.05556  0.48576757E-32  0.12955135E+02  0.12955135E+02
 -0.04545  0.54117256E-32  0.13024930E+02  0.13024930E+02
 -0.03535  0.62773299E-32  0.13095816E+02  0.13095816E+02
 -0.02525  0.78787068E-32  0.13167931E+02  0.13167931E+02
 -0.01515  0.12284984E-31  0.13241566E+02  0.13241566E+02
 -0.00505  0.88507183E-29  0.14100052E+02  0.14100052E+02
  0.00505  0.18463783E-28  0.15223005E+02  0.15223005E+02
  0.01515  0.22030383E-28  0.15928057E+02  0.15928057E+02
  0.02525  0.23333326E-28  0.16496804E+02  0.16496804E+02
  0.03535  0.23342576E-28  0.16990467E+02  0.16990467E+02
  0.04545  0.22532355E-28  0.17435068E+02  0.17435068E+02
  0.05556  0.21192092E-28  0.17844661E+02  0.17844661E+02
  0.06566  0.19519456E-28  0.18227920E+02  0.18227920E+02
  0.07576  0.17658081E-28  0.18590696E+02  0.18590696E+02
  0.08586  0.15715819E-28  0.18937193E+02  0.18937193E+02
  0.09596  0.13774690E-28  0.19270585E+02  0.19270585E+02
  0.10606  0.11896829E-28  0.19593365E+02  0.19593365E+02
  0.11616  0.10128332E-28  0.19907561E+02  0.19907561E+02
  0.12626  0.85019353E-29  0.20214867E+02  0.20214867E+02
  0.13636  0.70390363E-29  0.20516740E+02  0.20516740E+02
  0.14646  0.57513360E-29  0.20814459E+02  0.20814459E+02
  0.15657  0.46422901E-29  0.21109176E+02  0.21109176E+02
  0.16667  0.37084752E-29  0.21401944E+02  0.21401944E+02
  0.17677  0.29409483E-29  0.21693750E+02  0.21693750E+02
  0.18687  0.23266506E-29  0.21985527E+02  0.21985527E+02
  0.19697  0.18498891E-29  0.22278181E+02  0.22278181E+02
  0.20707  0.14939182E-29  0.22572601E+02  0.22572601E+02
  0.21717  0.12426314E-29  0.22869674E+02  0.22869674E+02
  0.22727  0.10823621E-29  0.23170311E+02  0.23170311E+02
  0.23737  0.10037824E-29  0.23475485E+02  0.23475485E+02
  0.24747  0.10038809E-29  0.23786330E+02  0.23786330E+02
  0.25758  0.10879996E-29  0.24104543E+02  0.24104543E+02
  0.26768  0.12720833E-29  0.24435293E+02  0.24435293E+02
  0.27778  0.15599918E-29  0.24520946E+02  0.24520946E+02
  0.28788  0.20591034E-29  0.25075294E+02  0.25075294E+02
  0.29798  0.27646241E-29  0.25431241E+02  0.25431241E+02
  0.30808  0.37684602E-29  0.25793711E+02  0.25793711E+02
  0.31818  0.51605836E-29  0.26167041E+02  0.26167041E+02
  0.32828  0.70468721E-29  0.26553042E+02  0.26553042E+02
  0.33838  0.95478675E-29  0.26953117E+02  0.26953117E+02
  0.34848  0.12796143E-28  0.27368576E+02  0.27368576E+02
  0.35859  0.16932193E-28  0.27800717E+02  0.27800717E+02
  0.36869  0.22098647E-28  0.28250849E+02  0.28250849E+02
  0.37879  0.28432608E-28  0.28720293E+02  0.28720293E+02
  0.38889  0.36055987E-28  0.29210380E+02  0.29210380E+02
  0.39899  0.45063801E-28  0.29722437E+02  0.29722437E+02
  0.40909  0.55510522E-28  0.30257775E+02  0.30257775E+02
  0.41919  0.67394793E-28  0.30817661E+02  0.30817661E+02
  0.42929  0.80643065E-28  0.31403297E+02  0.31403297E+02
  0.43939  0.95093049E-28  0.32015781E+02  0.32015781E+02
  0.44949  0.11047827E-27  0.32656067E+02  0.32656067E+02
  0.45960  0.12641546E-27  0.33324917E+02  0.33324917E+02
  0.46970  0.14239691E-27  0.34022839E+02  0.34022839E+02
  0.47980  0.15779054E-27  0.34750024E+02  0.34750024E+02
  0.48990  0.17185033E-27  0.35506270E+02  0.35506270E+02
  0.50000  0.18374036E-27  0.36290895E+02  0.36290895E+02
 Transport for spin ->  1  , kxy-point ->   4, of Node     1
           kxy=(-.427 0.410 0.000 ),w= 0.0313
    E           T(E)            TotDOS         PDOS
 -0.50000  0.55944234E-32  0.33304984E+02  0.25332731E+02
 -0.48990  0.55368990E-32  0.32806300E+02  0.24866676E+02
 -0.47980  0.54577748E-32  0.32285856E+02  0.24389910E+02
 -0.46970  0.53595130E-32  0.31748986E+02  0.23906388E+02
 -0.45960  0.52447752E-32  0.31200465E+02  0.23419584E+02
 -0.44949  0.51162768E-32  0.30644478E+02  0.22932478E+02
 -0.43939  0.49766735E-32  0.30084609E+02  0.22447562E+02
 -0.42929  0.48284710E-32  0.29523802E+02  0.21966826E+02
 -0.41919  0.46739423E-32  0.28964203E+02  0.21491649E+02
 -0.40909  0.45149699E-32  0.28406385E+02  0.21022235E+02
 -0.39899  0.43520472E-32  0.27842990E+02  0.20552943E+02
 -0.38889  0.42342737E-32  0.27583782E+02  0.20311708E+02
 -0.37879  0.40405607E-32  0.26833344E+02  0.19712425E+02
 -0.36869  0.38812555E-32  0.26301835E+02  0.19277954E+02
 -0.35859  0.37264673E-32  0.25788801E+02  0.18860435E+02
 -0.34848  0.35762051E-32  0.25289090E+02  0.18455866E+02
 -0.33838  0.34310087E-32  0.24801832E+02  0.18063408E+02
 -0.32828  0.32914089E-32  0.24326834E+02  0.17682734E+02
 -0.31818  0.31578587E-32  0.23864036E+02  0.17313619E+02
 -0.30808  0.30307278E-32  0.23413379E+02  0.16955854E+02
 -0.29798  0.29103104E-32  0.22974771E+02  0.16609213E+02
 -0.28788  0.27968367E-32  0.22548082E+02  0.16273451E+02
 -0.27778  0.26904844E-32  0.22133144E+02  0.15948305E+02
 -0.26768  0.25913903E-32  0.21729760E+02  0.15633498E+02
 -0.25758  0.24996601E-32  0.21337704E+02  0.15328742E+02
 -0.24747  0.24153785E-32  0.20956731E+02  0.15033742E+02
 -0.23737  0.23386175E-32  0.20586580E+02  0.14748198E+02
 -0.22727  0.22694453E-32  0.20226980E+02  0.14471811E+02
 -0.21717  0.22079334E-32  0.19877652E+02  0.14204280E+02
 -0.20707  0.21541647E-32  0.19538311E+02  0.13945309E+02
 -0.19697  0.21082406E-32  0.19208672E+02  0.13694606E+02
 -0.18687  0.20702885E-32  0.18888449E+02  0.13451882E+02
 -0.17677  0.20404696E-32  0.18577358E+02  0.13216858E+02
 -0.16667  0.20189871E-32  0.18275117E+02  0.12989260E+02
 -0.15657  0.20060954E-32  0.17981452E+02  0.12768823E+02
 -0.14646  0.20021104E-32  0.17696091E+02  0.12555286E+02
 -0.13636  0.20074207E-32  0.17418768E+02  0.12348402E+02
 -0.12626  0.20225015E-32  0.17149225E+02  0.12147927E+02
 -0.11616  0.20479308E-32  0.16887209E+02  0.11953629E+02
 -0.10606  0.20844085E-32  0.16632477E+02  0.11765281E+02
 -0.09596  0.21327797E-32  0.16384789E+02  0.11582668E+02
 -0.08586  0.21940644E-32  0.16143916E+02  0.11405579E+02
 -0.07576  0.22694926E-32  0.15909634E+02  0.11233815E+02
 -0.06566  0.23605496E-32  0.15681728E+02  0.11067180E+02
 -0.05556  0.24690334E-32  0.15459989E+02  0.10905491E+02
 -0.04545  0.25971272E-32  0.15244216E+02  0.10748567E+02
 -0.03535  0.27474947E-32  0.15034215E+02  0.10596237E+02
 -0.02525  0.29234034E-32  0.14829798E+02  0.10448337E+02
 -0.01515  0.31288888E-32  0.14630785E+02  0.10304709E+02
 -0.00505  0.33689746E-32  0.14437001E+02  0.10165200E+02
  0.00505  0.36499730E-32  0.14248278E+02  0.10029666E+02
  0.01515  0.39799004E-32  0.14064456E+02  0.98979662E+01
  0.02525  0.43690633E-32  0.13885379E+02  0.97699676E+01
  0.03535  0.48309021E-32  0.13710898E+02  0.96455416E+01
  0.04545  0.53832333E-32  0.13540868E+02  0.95245651E+01
  0.05556  0.60501279E-32  0.13375151E+02  0.94069206E+01
  0.06566  0.68648393E-32  0.13213615E+02  0.92924952E+01
  0.07576  0.78745327E-32  0.13056133E+02  0.91811814E+01
  0.08586  0.91482548E-32  0.12902583E+02  0.90728769E+01
  0.09596  0.10791068E-31  0.12752850E+02  0.89674847E+01
  0.10606  0.12970751E-31  0.12606826E+02  0.88649139E+01
  0.11616  0.15972453E-31  0.12464411E+02  0.87650816E+01
  0.12626  0.20323031E-31  0.12325519E+02  0.86679168E+01
  0.13636  0.27118737E-31  0.12190090E+02  0.85733713E+01
  0.14646  0.39103320E-31  0.12058134E+02  0.84814558E+01
  0.15657  0.65909972E-31  0.11929929E+02  0.83924162E+01
  0.16667  0.20024630E-30  0.11808981E+02  0.83092911E+01
  0.17677  0.19357335E-27  0.19184560E+02  0.14700705E+02
  0.18687  0.29973120E-27  0.23221299E+02  0.18165315E+02
  0.19697  0.37406479E-27  0.26087190E+02  0.20596021E+02
  0.20707  0.43219267E-27  0.28406284E+02  0.22537652E+02
  0.21717  0.47906601E-27  0.30386556E+02  0.24172699E+02
  0.22727  0.51692191E-27  0.32127567E+02  0.25588997E+02
  0.23737  0.54698139E-27  0.33685690E+02  0.26836595E+02
  0.24747  0.57003016E-27  0.35096069E+02  0.27946959E+02
  0.25758  0.58667126E-27  0.36381948E+02  0.28941133E+02
  0.26768  0.59745208E-27  0.37559252E+02  0.29833765E+02
  0.27778  0.60293348E-27  0.38639074E+02  0.30635299E+02
  0.28788  0.60372736E-27  0.39629137E+02  0.31353265E+02
  0.29798  0.60051419E-27  0.40534710E+02  0.31993096E+02
  0.30808  0.59404558E-27  0.41359214E+02  0.32558669E+02
  0.31818  0.58513473E-27  0.42104657E+02  0.33052688E+02
  0.32828  0.57463595E-27  0.42771959E+02  0.33476978E+02
  0.33838  0.56341488E-27  0.43361225E+02  0.33832723E+02
  0.34848  0.55231112E-27  0.43871993E+02  0.34120674E+02
  0.35859  0.54209564E-27  0.44303460E+02  0.34341345E+02
  0.36869  0.53342665E-27  0.44654723E+02  0.34495198E+02
  0.37879  0.52680817E-27  0.44925006E+02  0.34582824E+02
  0.38889  0.52255620E-27  0.45113900E+02  0.34605115E+02
  0.39899  0.52077746E-27  0.45221570E+02  0.34563417E+02
  0.40909  0.52136446E-27  0.45248952E+02  0.34459655E+02
  0.41919  0.52400895E-27  0.45197887E+02  0.34296415E+02
  0.42929  0.52823324E-27  0.45071200E+02  0.34076980E+02
  0.43939  0.53343591E-27  0.44872708E+02  0.33805302E+02
  0.44949  0.53894645E-27  0.44607143E+02  0.33485929E+02
  0.45960  0.54408178E-27  0.44280023E+02  0.33123878E+02
  0.46970  0.54819827E-27  0.43897456E+02  0.32724478E+02
  0.47980  0.55073360E-27  0.43465929E+02  0.32293202E+02
  0.48990  0.55123576E-27  0.42992087E+02  0.31835500E+02
  0.50000  0.54937814E-27  0.42482522E+02  0.31356648E+02
 Transport for spin ->  1  , kxy-point ->   5, of Node     1
           kxy=(-.284 0.328 0.000 ),w= 0.0313
    E           T(E)            TotDOS         PDOS
 -0.50000  0.30252233E-28  0.15507897E+02  0.14456306E+02
 -0.48990  0.26878643E-28  0.15476697E+02  0.14430906E+02
 -0.47980  0.23652421E-28  0.15446369E+02  0.14405949E+02
 -0.46970  0.20591456E-28  0.15416897E+02  0.14381427E+02
 -0.45960  0.17713608E-28  0.15388263E+02  0.14357329E+02
 -0.44949  0.15036663E-28  0.15360451E+02  0.14333645E+02
 -0.43939  0.12578297E-28  0.15333448E+02  0.14310366E+02
 -0.42929  0.10356026E-28  0.15307237E+02  0.14287484E+02
 -0.41919  0.83871665E-29  0.15281805E+02  0.14264991E+02
 -0.40909  0.66887922E-29  0.15257139E+02  0.14242878E+02
 -0.39899  0.52776913E-29  0.15233225E+02  0.14221138E+02
 -0.38889  0.41703240E-29  0.15210049E+02  0.14199765E+02
 -0.37879  0.33827806E-29  0.15187601E+02  0.14178750E+02
 -0.36869  0.29307401E-29  0.15165868E+02  0.14158088E+02
 -0.35859  0.28294292E-29  0.15144838E+02  0.14137773E+02
 -0.34848  0.30935823E-29  0.15124501E+02  0.14117798E+02
 -0.33838  0.37374023E-29  0.15104844E+02  0.14098157E+02
 -0.32828  0.47745215E-29  0.15085858E+02  0.14078847E+02
 -0.31818  0.62179650E-29  0.15067533E+02  0.14059860E+02
 -0.30808  0.80801133E-29  0.15049857E+02  0.14041192E+02
 -0.29798  0.10372668E-28  0.15032821E+02  0.14022838E+02
 -0.28788  0.13106617E-28  0.15016416E+02  0.14004793E+02
 -0.27778  0.16292202E-28  0.15000631E+02  0.13987053E+02
 -0.26768  0.19938888E-28  0.14985459E+02  0.13969614E+02
 -0.25758  0.24055332E-28  0.14970889E+02  0.13952471E+02
 -0.24747  0.28649357E-28  0.14956913E+02  0.13935621E+02
 -0.23737  0.33727924E-28  0.14943523E+02  0.13919059E+02
 -0.22727  0.39297107E-28  0.14930709E+02  0.13902782E+02
 -0.21717  0.45362072E-28  0.14918464E+02  0.13886786E+02
 -0.20707  0.51927055E-28  0.14906780E+02  0.13871068E+02
 -0.19697  0.58995344E-28  0.14895649E+02  0.13855625E+02
 -0.18687  0.66569266E-28  0.14885064E+02  0.13840454E+02
 -0.17677  0.74650178E-28  0.14875019E+02  0.13825554E+02
 -0.16667  0.83238476E-28  0.14865510E+02  0.13810926E+02
 -0.15657  0.92333657E-28  0.14856541E+02  0.13796576E+02
 -0.14646  0.10193474E-27  0.14848150E+02  0.13782542E+02
 -0.13636  0.11204822E-27  0.14840916E+02  0.13769349E+02
 -0.12626  0.12262413E-27  0.14831889E+02  0.13754346E+02
 -0.11616  0.13372246E-27  0.14825186E+02  0.13741243E+02
 -0.10606  0.14530496E-27  0.14818735E+02  0.13728178E+02
 -0.09596  0.15736774E-27  0.14812717E+02  0.13715318E+02
 -0.08586  0.16990332E-27  0.14807152E+02  0.13702684E+02
 -0.07576  0.18290293E-27  0.14802041E+02  0.13690280E+02
 -0.06566  0.19635670E-27  0.14797378E+02  0.13678107E+02
 -0.05556  0.21025372E-27  0.14793160E+02  0.13666164E+02
 -0.04545  0.22458207E-27  0.14789379E+02  0.13654448E+02
 -0.03535  0.23932887E-27  0.14786029E+02  0.13642957E+02
 -0.02525  0.25448026E-27  0.14783104E+02  0.13631690E+02
 -0.01515  0.27002144E-27  0.14780596E+02  0.13620643E+02
 -0.00505  0.28593667E-27  0.14778499E+02  0.13609814E+02
  0.00505  0.30220933E-27  0.14776806E+02  0.13599201E+02
  0.01515  0.31882192E-27  0.14775511E+02  0.13588802E+02
  0.02525  0.33575609E-27  0.14774606E+02  0.13578613E+02
  0.03535  0.35299265E-27  0.14774084E+02  0.13568633E+02
  0.04545  0.37051166E-27  0.14773940E+02  0.13558858E+02
  0.05556  0.38829238E-27  0.14774166E+02  0.13549288E+02
  0.06566  0.40631338E-27  0.14774755E+02  0.13539918E+02
  0.07576  0.42455251E-27  0.14775701E+02  0.13530747E+02
  0.08586  0.44298700E-27  0.14776998E+02  0.13521773E+02
  0.09596  0.46159345E-27  0.14778637E+02  0.13512992E+02
  0.10606  0.48034788E-27  0.14780614E+02  0.13504403E+02
  0.11616  0.49922579E-27  0.14782920E+02  0.13496003E+02
  0.12626  0.51820218E-27  0.14785549E+02  0.13487789E+02
  0.13636  0.53725163E-27  0.14788496E+02  0.13479760E+02
  0.14646  0.55634828E-27  0.14791752E+02  0.13471912E+02
  0.15657  0.57546595E-27  0.14795312E+02  0.13464244E+02
  0.16667  0.59457812E-27  0.14799168E+02  0.13456753E+02
  0.17677  0.61365803E-27  0.14803315E+02  0.13449436E+02
  0.18687  0.63267870E-27  0.14807745E+02  0.13442291E+02
  0.19697  0.65161299E-27  0.14812452E+02  0.13435316E+02
  0.20707  0.67043363E-27  0.14817429E+02  0.13428507E+02
  0.21717  0.68911330E-27  0.14822670E+02  0.13421864E+02
  0.22727  0.70762467E-27  0.14828169E+02  0.13415382E+02
  0.23737  0.72594042E-27  0.14833917E+02  0.13409060E+02
  0.24747  0.74403333E-27  0.14839910E+02  0.13402896E+02
  0.25758  0.76187631E-27  0.14846139E+02  0.13396886E+02
  0.26768  0.77944248E-27  0.14852600E+02  0.13391028E+02
  0.27778  0.79670515E-27  0.14859285E+02  0.13385320E+02
  0.28788  0.81363795E-27  0.14866187E+02  0.13379759E+02
  0.29798  0.83021483E-27  0.14873300E+02  0.13374342E+02
  0.30808  0.84641014E-27  0.14880618E+02  0.13369068E+02
  0.31818  0.86219863E-27  0.14888134E+02  0.13363933E+02
  0.32828  0.87755558E-27  0.14895841E+02  0.13358935E+02
  0.33838  0.89245674E-27  0.14903733E+02  0.13354072E+02
  0.34848  0.90687846E-27  0.14911804E+02  0.13349340E+02
  0.35859  0.92079773E-27  0.14920046E+02  0.13344738E+02
  0.36869  0.93419216E-27  0.14928454E+02  0.13340262E+02
  0.37879  0.94704008E-27  0.14937020E+02  0.13335910E+02
  0.38889  0.95932058E-27  0.14945739E+02  0.13331679E+02
  0.39899  0.97101353E-27  0.14954604E+02  0.13327568E+02
  0.40909  0.98209961E-27  0.14963608E+02  0.13323572E+02
  0.41919  0.99256039E-27  0.14972745E+02  0.13319690E+02
  0.42929  0.10023783E-26  0.14982009E+02  0.13315918E+02
  0.43939  0.10115368E-26  0.14991392E+02  0.13312255E+02
  0.44949  0.10200201E-26  0.15000890E+02  0.13308697E+02
  0.45960  0.10278137E-26  0.15010494E+02  0.13305241E+02
  0.46970  0.10349040E-26  0.15020199E+02  0.13301886E+02
  0.47980  0.10412783E-26  0.15029999E+02  0.13298628E+02
  0.48990  0.10469252E-26  0.15039887E+02  0.13295464E+02
  0.50000  0.10518343E-26  0.15049856E+02  0.13292393E+02
 Transport for spin ->  1  , kxy-point ->   1, of Node     2
           kxy=(-.142 0.246 0.000 ),w= 0.0313
    E           T(E)            TotDOS         PDOS
 -0.50000  0.39851755E-27  0.15744877E+02  0.18976997E+02
 -0.48990  0.38719926E-27  0.15725831E+02  0.18943457E+02
 -0.47980  0.37548509E-27  0.15707156E+02  0.18910339E+02
 -0.46970  0.36340933E-27  0.15688839E+02  0.18877634E+02
 -0.45960  0.35100734E-27  0.15670870E+02  0.18845332E+02
 -0.44949  0.33831540E-27  0.15653236E+02  0.18813424E+02
 -0.43939  0.32537061E-27  0.15635927E+02  0.18781899E+02
 -0.42929  0.31221078E-27  0.15618930E+02  0.18750747E+02
 -0.41919  0.29887431E-27  0.15602232E+02  0.18719958E+02
 -0.40909  0.28540006E-27  0.15585822E+02  0.18689521E+02
 -0.39899  0.27182722E-27  0.15569684E+02  0.18659421E+02
 -0.38889  0.25819515E-27  0.15553800E+02  0.18629642E+02
 -0.37879  0.24454305E-27  0.15538140E+02  0.18600151E+02
 -0.36869  0.23090899E-27  0.15522628E+02  0.18570868E+02
 -0.35859  0.21732155E-27  0.15506831E+02  0.18541311E+02
 -0.34848  0.20396615E-27  0.15496304E+02  0.18517704E+02
 -0.33838  0.19057304E-27  0.15479253E+02  0.18486837E+02
 -0.32828  0.17741328E-27  0.15464524E+02  0.18458625E+02
 -0.31818  0.16447456E-27  0.15450177E+02  0.18430894E+02
 -0.30808  0.15179125E-27  0.15436073E+02  0.18403493E+02
 -0.29798  0.13939957E-27  0.15422171E+02  0.18376379E+02
 -0.28788  0.12733547E-27  0.15408451E+02  0.18349528E+02
 -0.27778  0.11563418E-27  0.15394896E+02  0.18322929E+02
 -0.26768  0.10433003E-27  0.15381496E+02  0.18296568E+02
 -0.25758  0.93456318E-28  0.15368238E+02  0.18270436E+02
 -0.24747  0.83045239E-28  0.15355114E+02  0.18244523E+02
 -0.23737  0.73127771E-28  0.15342112E+02  0.18218821E+02
 -0.22727  0.63733619E-28  0.15329224E+02  0.18193321E+02
 -0.21717  0.54891139E-28  0.15316440E+02  0.18168015E+02
 -0.20707  0.46627273E-28  0.15303751E+02  0.18142894E+02
 -0.19697  0.38967488E-28  0.15291148E+02  0.18117951E+02
 -0.18687  0.31935724E-28  0.15278623E+02  0.18093176E+02
 -0.17677  0.25554341E-28  0.15266167E+02  0.18068564E+02
 -0.16667  0.19844073E-28  0.15253772E+02  0.18044105E+02
 -0.15657  0.14823990E-28  0.15241430E+02  0.18019793E+02
 -0.14646  0.10511460E-28  0.15229131E+02  0.17995620E+02
 -0.13636  0.69221179E-29  0.15216869E+02  0.17971578E+02
 -0.12626  0.40698397E-29  0.15204636E+02  0.17947660E+02
 -0.11616  0.19667213E-29  0.15192424E+02  0.17923860E+02
 -0.10606  0.62306132E-30  0.15180225E+02  0.17900170E+02
 -0.09596  0.47349499E-31  0.15168031E+02  0.17876583E+02
 -0.08586  0.24625908E-30  0.15155837E+02  0.17853093E+02
 -0.07576  0.12246443E-29  0.15143634E+02  0.17829692E+02
 -0.06566  0.29855422E-29  0.15131416E+02  0.17806375E+02
 -0.05556  0.55301788E-29  0.15119176E+02  0.17783134E+02
 -0.04545  0.88579801E-29  0.15106907E+02  0.17759963E+02
 -0.03535  0.12966586E-28  0.15094602E+02  0.17736857E+02
 -0.02525  0.17851872E-28  0.15082256E+02  0.17713809E+02
 -0.01515  0.23507968E-28  0.15069862E+02  0.17690813E+02
 -0.00505  0.29927289E-28  0.15057413E+02  0.17667862E+02
  0.00505  0.37100563E-28  0.15044904E+02  0.17644953E+02
  0.01515  0.45016869E-28  0.15032329E+02  0.17622077E+02
  0.02525  0.53663670E-28  0.15019682E+02  0.17599231E+02
  0.03535  0.63026858E-28  0.15006957E+02  0.17576408E+02
  0.04545  0.73090795E-28  0.14994150E+02  0.17553604E+02
  0.05556  0.83838364E-28  0.14981255E+02  0.17530812E+02
  0.06566  0.95251017E-28  0.14968266E+02  0.17508029E+02
  0.07576  0.10730882E-27  0.14955179E+02  0.17485248E+02
  0.08586  0.11999054E-27  0.14941988E+02  0.17462466E+02
  0.09596  0.13327363E-27  0.14928690E+02  0.17439677E+02
  0.10606  0.14713440E-27  0.14915279E+02  0.17416876E+02
  0.11616  0.16154796E-27  0.14901750E+02  0.17394060E+02
  0.12626  0.17648837E-27  0.14888100E+02  0.17371223E+02
  0.13636  0.19192866E-27  0.14874324E+02  0.17348362E+02
  0.14646  0.20784092E-27  0.14860419E+02  0.17325472E+02
  0.15657  0.22419634E-27  0.14846379E+02  0.17302549E+02
  0.16667  0.24096532E-27  0.14832202E+02  0.17279589E+02
  0.17677  0.25811750E-27  0.14817883E+02  0.17256589E+02
  0.18687  0.27562185E-27  0.14803419E+02  0.17233544E+02
  0.19697  0.29344672E-27  0.14788806E+02  0.17210450E+02
  0.20707  0.31155997E-27  0.14774041E+02  0.17187306E+02
  0.21717  0.32992894E-27  0.14759122E+02  0.17164106E+02
  0.22727  0.34852064E-27  0.14744044E+02  0.17140847E+02
  0.23737  0.36730172E-27  0.14728804E+02  0.17117527E+02
  0.24747  0.38623861E-27  0.14713401E+02  0.17094142E+02
[...]
  0.17677  0.19356911E-27  0.19184389E+02  0.14820510E+02
  0.18687  0.29972902E-27  0.23221204E+02  0.18350050E+02
  0.19697  0.37406349E-27  0.26087127E+02  0.20826025E+02
  0.20707  0.43219193E-27  0.28406240E+02  0.22803473E+02
  0.21717  0.47906567E-27  0.30386524E+02  0.24468325E+02
  0.22727  0.51692188E-27  0.32127546E+02  0.25910093E+02
  0.23737  0.54698161E-27  0.33685677E+02  0.27179808E+02
  0.24747  0.57003057E-27  0.35096063E+02  0.28309572E+02
  0.25758  0.58667183E-27  0.36381948E+02  0.29320880E+02
  0.26768  0.59745277E-27  0.37559257E+02  0.30228718E+02
  0.27778  0.60293426E-27  0.38639083E+02  0.31043796E+02
  0.28788  0.60372820E-27  0.39629150E+02  0.31773867E+02
  0.29798  0.60051504E-27  0.40534726E+02  0.32424552E+02
  0.30808  0.59404643E-27  0.41359233E+02  0.32999889E+02
  0.31818  0.58513555E-27  0.42104678E+02  0.33502731E+02
  0.32828  0.57463672E-27  0.42771982E+02  0.33935036E+02
  0.33838  0.56341559E-27  0.43361251E+02  0.34298108E+02
  0.34848  0.55231174E-27  0.43872020E+02  0.34592807E+02
  0.35859  0.54209617E-27  0.44303489E+02  0.34819744E+02
  0.36869  0.53342709E-27  0.44654752E+02  0.34979466E+02
  0.37879  0.52680852E-27  0.44925037E+02  0.35072634E+02
  0.38889  0.52255646E-27  0.45113931E+02  0.35100195E+02
  0.39899  0.52077766E-27  0.45221602E+02  0.35063535E+02
  0.40909  0.52136460E-27  0.45248985E+02  0.34964603E+02
  0.41919  0.52400905E-27  0.45197920E+02  0.34805990E+02
  0.42929  0.52823332E-27  0.45071234E+02  0.34590973E+02
  0.43939  0.53343600E-27  0.44872741E+02  0.34323483E+02
  0.44949  0.53894655E-27  0.44607177E+02  0.34008037E+02
  0.45960  0.54408191E-27  0.44280056E+02  0.33649616E+02
  0.46970  0.54819844E-27  0.43897488E+02  0.33253509E+02
  0.47980  0.55073381E-27  0.43465962E+02  0.32825149E+02
  0.48990  0.55123601E-27  0.42992119E+02  0.32369948E+02
  0.50000  0.54937844E-27  0.42482554E+02  0.31893152E+02
 Transport for spin ->  1  , kxy-point ->   3, of Node     7
           kxy=(0.284 0.493 0.000 ),w= 0.0156
    E           T(E)            TotDOS         PDOS
 -0.50000  0.49898999E-32  0.28700166E+02  0.21192856E+02
 -0.48990  0.48524515E-32  0.28155724E+02  0.20706291E+02
 -0.47980  0.47120387E-32  0.27625144E+02  0.20234636E+02
 -0.46970  0.45695546E-32  0.27108119E+02  0.19777461E+02
 -0.45960  0.44258065E-32  0.26604216E+02  0.19334254E+02
 -0.44949  0.42814996E-32  0.26112775E+02  0.18904348E+02
 -0.43939  0.41371841E-32  0.25632542E+02  0.18486657E+02
 -0.42929  0.39930155E-32  0.25160102E+02  0.18078561E+02
 -0.41919  0.38467455E-32  0.24676759E+02  0.17666539E+02
 -0.40909  0.37581709E-32  0.24568388E+02  0.17525862E+02
 -0.39899  0.35864150E-32  0.23913876E+02  0.16998867E+02
 -0.38889  0.34496685E-32  0.23480158E+02  0.16632846E+02
 -0.37879  0.33180277E-32  0.23069672E+02  0.16286627E+02
 -0.36869  0.31905096E-32  0.22673523E+02  0.15953717E+02
 -0.35859  0.30671129E-32  0.22289446E+02  0.15632362E+02
 -0.34848  0.29479997E-32  0.21916445E+02  0.15321720E+02
 -0.33838  0.28333634E-32  0.21553917E+02  0.15021235E+02
 -0.32828  0.27233970E-32  0.21201411E+02  0.14730464E+02
 -0.31818  0.26182841E-32  0.20858552E+02  0.14449025E+02
 -0.30808  0.25181977E-32  0.20525006E+02  0.14176569E+02
 -0.29798  0.24233012E-32  0.20200465E+02  0.13912771E+02
 -0.28788  0.23337508E-32  0.19884639E+02  0.13657322E+02
 -0.27778  0.22496988E-32  0.19577251E+02  0.13409929E+02
 -0.26768  0.21712967E-32  0.19278036E+02  0.13170311E+02
 -0.25758  0.20986986E-32  0.18986742E+02  0.12938198E+02
 -0.24747  0.20320655E-32  0.18703121E+02  0.12713331E+02
 -0.23737  0.19715687E-32  0.18426939E+02  0.12495461E+02
 -0.22727  0.19173949E-32  0.18157966E+02  0.12284347E+02
 -0.21717  0.18697503E-32  0.17895982E+02  0.12079758E+02
 -0.20707  0.18288664E-32  0.17640773E+02  0.11881471E+02
 -0.19697  0.17950055E-32  0.17392133E+02  0.11689271E+02
 -0.18687  0.17684675E-32  0.17149862E+02  0.11502951E+02
 -0.17677  0.17495974E-32  0.16913769E+02  0.11322312E+02
 -0.16667  0.17387940E-32  0.16683665E+02  0.11147160E+02
 -0.15657  0.17365201E-32  0.16459372E+02  0.10977312E+02
 -0.14646  0.17433142E-32  0.16240716E+02  0.10812588E+02
 -0.13636  0.17598050E-32  0.16027527E+02  0.10652817E+02
 -0.12626  0.17867279E-32  0.15819643E+02  0.10497832E+02
 -0.11616  0.18249454E-32  0.15616907E+02  0.10347473E+02
 -0.10606  0.18754720E-32  0.15419168E+02  0.10201587E+02
 -0.09596  0.19395042E-32  0.15226278E+02  0.10060026E+02
 -0.08586  0.20184576E-32  0.15038096E+02  0.99226450E+01
 -0.07576  0.21140136E-32  0.14854485E+02  0.97893073E+01
 -0.06566  0.22281773E-32  0.14675311E+02  0.96598797E+01
 -0.05556  0.23633510E-32  0.14500449E+02  0.95342340E+01
 -0.04545  0.25224277E-32  0.14329773E+02  0.94122467E+01
 -0.03535  0.27089127E-32  0.14163165E+02  0.92937987E+01
 -0.02525  0.29270809E-32  0.14000508E+02  0.91787751E+01
 -0.01515  0.31821846E-32  0.13841693E+02  0.90670654E+01
 -0.00505  0.34807313E-32  0.13686611E+02  0.89585628E+01
  0.00505  0.38308594E-32  0.13535158E+02  0.88531646E+01
  0.01515  0.42428541E-32  0.13387235E+02  0.87507718E+01
  0.02525  0.47298691E-32  0.13242743E+02  0.86512888E+01
  0.03535  0.53089528E-32  0.13101591E+02  0.85546237E+01
  0.04545  0.60025415E-32  0.12963687E+02  0.84606883E+01
  0.05556  0.68406809E-32  0.12828945E+02  0.83693974E+01
  0.06566  0.78644241E-32  0.12697283E+02  0.82806696E+01
  0.07576  0.91311933E-32  0.12568619E+02  0.81944269E+01
  0.08586  0.10723555E-31  0.12442880E+02  0.81105950E+01
  0.09596  0.12764213E-31  0.12319992E+02  0.80291040E+01
  0.10606  0.15442997E-31  0.12199890E+02  0.79498892E+01
  0.11616  0.19068659E-31  0.12082517E+02  0.78728930E+01
  0.12626  0.24176652E-31  0.11967827E+02  0.77980689E+01
  0.13636  0.31778558E-31  0.11855798E+02  0.77253914E+01
  0.14646  0.44030476E-31  0.11746460E+02  0.76548810E+01
  0.15657  0.66462949E-31  0.11639998E+02  0.75866898E+01
  0.16667  0.11884662E-30  0.11537220E+02  0.75215117E+01
  0.17677  0.37725762E-30  0.11445677E+02  0.74658787E+01
  0.18687  0.45883866E-27  0.31675673E+02  0.24958756E+02
  0.19697  0.63252346E-27  0.41307630E+02  0.33133376E+02
  0.20707  0.70534945E-27  0.46347528E+02  0.37293508E+02
  0.21717  0.74348056E-27  0.49343225E+02  0.39673912E+02
  0.22727  0.76700409E-27  0.51164137E+02  0.41039211E+02
  0.23737  0.78396045E-27  0.52233855E+02  0.41761825E+02
  0.24747  0.79787454E-27  0.52793799E+02  0.42053551E+02
  0.25758  0.81030433E-27  0.52994653E+02  0.42046129E+02
  0.26768  0.82188166E-27  0.52936286E+02  0.41826474E+02
  0.27778  0.83278611E-27  0.52687778E+02  0.41454376E+02
  0.28788  0.84297651E-27  0.52298466E+02  0.40972264E+02
  0.29798  0.85230967E-27  0.51804472E+02  0.40410974E+02
  0.30808  0.86060328E-27  0.51232767E+02  0.39793339E+02
  0.31818  0.86766967E-27  0.50603808E+02  0.39136513E+02
  0.32828  0.87333398E-27  0.49933311E+02  0.38453533E+02
  0.33838  0.87744358E-27  0.49233471E+02  0.37754396E+02
  0.34848  0.87987244E-27  0.48513830E+02  0.37046813E+02
  0.35859  0.88052269E-27  0.47781900E+02  0.36336760E+02
  0.36869  0.87932440E-27  0.47043622E+02  0.35628875E+02
  0.37879  0.87623442E-27  0.46303709E+02  0.34926759E+02
  0.38889  0.87123457E-27  0.45565902E+02  0.34233200E+02
  0.39899  0.86432961E-27  0.44833174E+02  0.33550341E+02
  0.40909  0.85554500E-27  0.44107878E+02  0.32879818E+02
  0.41919  0.84492463E-27  0.43391869E+02  0.32222859E+02
  0.42929  0.83252859E-27  0.42686603E+02  0.31580365E+02
  0.43939  0.81843105E-27  0.41993203E+02  0.30952978E+02
  0.44949  0.80271812E-27  0.41312529E+02  0.30341126E+02
  0.45960  0.78548600E-27  0.40645222E+02  0.29745070E+02
  0.46970  0.76683911E-27  0.39991742E+02  0.29164932E+02
  0.47980  0.74688843E-27  0.39352406E+02  0.28600725E+02
  0.48990  0.72574997E-27  0.38727407E+02  0.28052375E+02
  0.50000  0.70354336E-27  0.38116844E+02  0.27519736E+02
 Transport for spin ->  1  , kxy-point ->   4, of Node     7
           kxy=(0.427 0.410 0.000 ),w= 0.0156
    E           T(E)            TotDOS         PDOS
 -0.50000  0.55944241E-32  0.33304984E+02  0.25332730E+02
 -0.48990  0.55368996E-32  0.32806299E+02  0.24866675E+02
 -0.47980  0.54577752E-32  0.32285854E+02  0.24389908E+02
 -0.46970  0.53595134E-32  0.31748984E+02  0.23906387E+02
 -0.45960  0.52447754E-32  0.31200462E+02  0.23419582E+02
 -0.44949  0.51162769E-32  0.30644475E+02  0.22932475E+02
 -0.43939  0.49766733E-32  0.30084605E+02  0.22447559E+02
 -0.42929  0.48284706E-32  0.29523796E+02  0.21966822E+02
 -0.41919  0.46739414E-32  0.28964195E+02  0.21491643E+02
 -0.40909  0.45149682E-32  0.28406372E+02  0.21022226E+02
 -0.39899  0.43520431E-32  0.27842961E+02  0.20552921E+02
 -0.38889  0.42343044E-32  0.27583980E+02  0.20311854E+02
 -0.37879  0.40405648E-32  0.26833368E+02  0.19712443E+02
 -0.36869  0.38812579E-32  0.26301848E+02  0.19277964E+02
 -0.35859  0.37264690E-32  0.25788811E+02  0.18860442E+02
 -0.34848  0.35762066E-32  0.25289098E+02  0.18455871E+02
 -0.33838  0.34310100E-32  0.24801838E+02  0.18063413E+02
 -0.32828  0.32914100E-32  0.24326840E+02  0.17682738E+02
 -0.31818  0.31578598E-32  0.23864041E+02  0.17313623E+02
 -0.30808  0.30307288E-32  0.23413383E+02  0.16955858E+02
 -0.29798  0.29103113E-32  0.22974775E+02  0.16609216E+02
 -0.28788  0.27968376E-32  0.22548085E+02  0.16273454E+02
 -0.27778  0.26904853E-32  0.22133148E+02  0.15948307E+02
 -0.26768  0.25913911E-32  0.21729763E+02  0.15633500E+02
 -0.25758  0.24996609E-32  0.21337707E+02  0.15328744E+02
 -0.24747  0.24153793E-32  0.20956734E+02  0.15033744E+02
 -0.23737  0.23386183E-32  0.20586583E+02  0.14748201E+02
 -0.22727  0.22694460E-32  0.20226983E+02  0.14471813E+02
 -0.21717  0.22079341E-32  0.19877655E+02  0.14204282E+02
 -0.20707  0.21541654E-32  0.19538314E+02  0.13945311E+02
 -0.19697  0.21082413E-32  0.19208675E+02  0.13694608E+02
 -0.18687  0.20702892E-32  0.18888451E+02  0.13451884E+02
 -0.17677  0.20404702E-32  0.18577360E+02  0.13216860E+02
 -0.16667  0.20189877E-32  0.18275120E+02  0.12989263E+02
 -0.15657  0.20060961E-32  0.17981454E+02  0.12768825E+02
 -0.14646  0.20021111E-32  0.17696093E+02  0.12555288E+02
 -0.13636  0.20074213E-32  0.17418770E+02  0.12348404E+02
 -0.12626  0.20225022E-32  0.17149227E+02  0.12147929E+02
 -0.11616  0.20479315E-32  0.16887211E+02  0.11953631E+02
 -0.10606  0.20844091E-32  0.16632479E+02  0.11765283E+02
 -0.09596  0.21327804E-32  0.16384791E+02  0.11582670E+02
 -0.08586  0.21940651E-32  0.16143918E+02  0.11405582E+02
 -0.07576  0.22694932E-32  0.15909636E+02  0.11233817E+02
 -0.06566  0.23605503E-32  0.15681730E+02  0.11067183E+02
 -0.05556  0.24690340E-32  0.15459991E+02  0.10905493E+02
 -0.04545  0.25971279E-32  0.15244218E+02  0.10748569E+02
 -0.03535  0.27474954E-32  0.15034217E+02  0.10596240E+02
 -0.02525  0.29234041E-32  0.14829800E+02  0.10448340E+02
 -0.01515  0.31288895E-32  0.14630786E+02  0.10304711E+02
 -0.00505  0.33689754E-32  0.14437002E+02  0.10165203E+02
  0.00505  0.36499739E-32  0.14248280E+02  0.10029669E+02
  0.01515  0.39799013E-32  0.14064458E+02  0.98979696E+01
  0.02525  0.43690643E-32  0.13885381E+02  0.97699712E+01
  0.03535  0.48309031E-32  0.13710899E+02  0.96455455E+01
  0.04545  0.53832345E-32  0.13540869E+02  0.95245694E+01
  0.05556  0.60501293E-32  0.13375152E+02  0.94069252E+01
  0.06566  0.68648410E-32  0.13213616E+02  0.92925004E+01
  0.07576  0.78745348E-32  0.13056134E+02  0.91811872E+01
  0.08586  0.91482574E-32  0.12902584E+02  0.90728835E+01
  0.09596  0.10791071E-31  0.12752851E+02  0.89674923E+01
  0.10606  0.12970756E-31  0.12606827E+02  0.88649228E+01
  0.11616  0.15972460E-31  0.12464412E+02  0.87650924E+01
  0.12626  0.20323042E-31  0.12325520E+02  0.86679303E+01
  0.13636  0.27118756E-31  0.12190091E+02  0.85733890E+01
  0.14646  0.39103359E-31  0.12058135E+02  0.84814809E+01
  0.15657  0.65910085E-31  0.11929930E+02  0.83924578E+01
  0.16667  0.20024765E-30  0.11808982E+02  0.83094160E+01
  0.17677  0.19357368E-27  0.19184574E+02  0.14820673E+02
  0.18687  0.29973131E-27  0.23221304E+02  0.18350138E+02
  0.19697  0.37406480E-27  0.26087192E+02  0.20826082E+02
  0.20707  0.43219263E-27  0.28406284E+02  0.22803511E+02
  0.21717  0.47906592E-27  0.30386554E+02  0.24468350E+02
  0.22727  0.51692179E-27  0.32127565E+02  0.25910108E+02
  0.23737  0.54698125E-27  0.33685687E+02  0.27179816E+02
  0.24747  0.57003000E-27  0.35096065E+02  0.28309573E+02
  0.25758  0.58667110E-27  0.36381944E+02  0.29320876E+02
  0.26768  0.59745192E-27  0.37559248E+02  0.30228710E+02
  0.27778  0.60293332E-27  0.38639070E+02  0.31043785E+02
  0.28788  0.60372721E-27  0.39629133E+02  0.31773853E+02
  0.29798  0.60051404E-27  0.40534706E+02  0.32424535E+02
  0.30808  0.59404545E-27  0.41359211E+02  0.32999870E+02
  0.31818  0.58513461E-27  0.42104654E+02  0.33502711E+02
  0.32828  0.57463584E-27  0.42771957E+02  0.33935015E+02
  0.33838  0.56341479E-27  0.43361224E+02  0.34298086E+02
  0.34848  0.55231105E-27  0.43871993E+02  0.34592784E+02
  0.35859  0.54209558E-27  0.44303461E+02  0.34819721E+02
  0.36869  0.53342662E-27  0.44654724E+02  0.34979443E+02
  0.37879  0.52680815E-27  0.44925009E+02  0.35072610E+02
  0.38889  0.52255620E-27  0.45113903E+02  0.35100172E+02
  0.39899  0.52077748E-27  0.45221574E+02  0.35063513E+02
  0.40909  0.52136450E-27  0.45248957E+02  0.34964581E+02
  0.41919  0.52400901E-27  0.45197893E+02  0.34805969E+02
  0.42929  0.52823331E-27  0.45071207E+02  0.34590952E+02
  0.43939  0.53343601E-27  0.44872716E+02  0.34323463E+02
  0.44949  0.53894656E-27  0.44607152E+02  0.34008018E+02
  0.45960  0.54408191E-27  0.44280032E+02  0.33649598E+02
  0.46970  0.54819841E-27  0.43897466E+02  0.33253491E+02
  0.47980  0.55073375E-27  0.43465940E+02  0.32825132E+02
  0.48990  0.55123592E-27  0.42992098E+02  0.32369933E+02
  0.50000  0.54937831E-27  0.42482533E+02  0.31893137E+02
 Transport for spin ->  1  , kxy-point ->   5, of Node     7
           kxy=(0.569 0.328 0.000 ),w= 0.0156
    E           T(E)            TotDOS         PDOS
 -0.50000  0.16271151E-32  0.10036508E+02  0.10036508E+02
 -0.48990  0.16538199E-32  0.10112752E+02  0.10112752E+02
 -0.47980  0.16809816E-32  0.10188004E+02  0.10188004E+02
 -0.46970  0.17086200E-32  0.10262308E+02  0.10262308E+02
 -0.45960  0.17367557E-32  0.10335705E+02  0.10335705E+02
 -0.44949  0.17654099E-32  0.10408238E+02  0.10408238E+02
 -0.43939  0.17946048E-32  0.10479945E+02  0.10479945E+02
 -0.42929  0.18243637E-32  0.10550866E+02  0.10550866E+02
 -0.41919  0.18547112E-32  0.10621039E+02  0.10621039E+02
 -0.40909  0.18856732E-32  0.10690500E+02  0.10690500E+02
 -0.39899  0.19172779E-32  0.10759285E+02  0.10759285E+02
 -0.38889  0.19495553E-32  0.10827430E+02  0.10827430E+02
 -0.37879  0.19825380E-32  0.10894971E+02  0.10894971E+02
 -0.36869  0.20162617E-32  0.10961940E+02  0.10961940E+02
 -0.35859  0.20507655E-32  0.11028373E+02  0.11028373E+02
 -0.34848  0.20860927E-32  0.11094303E+02  0.11094303E+02
 -0.33838  0.21222915E-32  0.11159765E+02  0.11159765E+02
 -0.32828  0.21594156E-32  0.11224790E+02  0.11224790E+02
 -0.31818  0.21975258E-32  0.11289414E+02  0.11289414E+02
 -0.30808  0.22366905E-32  0.11353670E+02  0.11353670E+02
 -0.29798  0.22769880E-32  0.11417592E+02  0.11417592E+02
 -0.28788  0.23185076E-32  0.11481214E+02  0.11481214E+02
 -0.27778  0.23613521E-32  0.11544570E+02  0.11544570E+02
 -0.26768  0.24056407E-32  0.11607697E+02  0.11607697E+02
 -0.25758  0.24515119E-32  0.11670630E+02  0.11670630E+02
 -0.24747  0.24991277E-32  0.11733406E+02  0.11733406E+02
 -0.23737  0.25486793E-32  0.11796061E+02  0.11796061E+02
 -0.22727  0.26003930E-32  0.11858635E+02  0.11858635E+02
 -0.21717  0.26545386E-32  0.11921168E+02  0.11921168E+02
 -0.20707  0.27114408E-32  0.11983699E+02  0.11983699E+02
 -0.19697  0.27714925E-32  0.12046272E+02  0.12046272E+02
 -0.18687  0.28351738E-32  0.12108930E+02  0.12108930E+02
 -0.17677  0.29030767E-32  0.12171718E+02  0.12171718E+02
 -0.16667  0.29759392E-32  0.12234685E+02  0.12234685E+02
 -0.15657  0.30546916E-32  0.12297879E+02  0.12297879E+02
 -0.14646  0.31405231E-32  0.12361352E+02  0.12361352E+02
 -0.13636  0.32349769E-32  0.12425159E+02  0.12425159E+02
 -0.12626  0.33400907E-32  0.12489355E+02  0.12489355E+02
 -0.11616  0.34586110E-32  0.12554002E+02  0.12554002E+02
 -0.10606  0.35943298E-32  0.12619163E+02  0.12619163E+02
 -0.09596  0.37526343E-32  0.12684902E+02  0.12684902E+02
 -0.08586  0.39414493E-32  0.12751292E+02  0.12751292E+02
 -0.07576  0.41729467E-32  0.12818407E+02  0.12818407E+02
 -0.06566  0.44668751E-32  0.12886327E+02  0.12886327E+02
 -0.05556  0.48576772E-32  0.12955138E+02  0.12955138E+02
 -0.04545  0.54117272E-32  0.13024933E+02  0.13024933E+02
 -0.03535  0.62773316E-32  0.13095819E+02  0.13095819E+02
 -0.02525  0.78787084E-32  0.13167934E+02  0.13167934E+02
 -0.01515  0.12284983E-31  0.13241568E+02  0.13241568E+02
 -0.00505  0.88507084E-29  0.14100053E+02  0.14100053E+02
  0.00505  0.18463788E-28  0.15223007E+02  0.15223007E+02
  0.01515  0.22030391E-28  0.15928060E+02  0.15928060E+02
  0.02525  0.23333337E-28  0.16496807E+02  0.16496807E+02
  0.03535  0.23342588E-28  0.16990470E+02  0.16990470E+02
  0.04545  0.22532368E-28  0.17435072E+02  0.17435072E+02
  0.05556  0.21192105E-28  0.17844664E+02  0.17844664E+02
  0.06566  0.19519468E-28  0.18227924E+02  0.18227924E+02
  0.07576  0.17658093E-28  0.18590700E+02  0.18590700E+02
  0.08586  0.15715831E-28  0.18937197E+02  0.18937197E+02
  0.09596  0.13774701E-28  0.19270589E+02  0.19270589E+02
  0.10606  0.11896839E-28  0.19593370E+02  0.19593370E+02
  0.11616  0.10128341E-28  0.19907566E+02  0.19907566E+02
  0.12626  0.85019441E-29  0.20214873E+02  0.20214873E+02
  0.13636  0.70390443E-29  0.20516746E+02  0.20516746E+02
  0.14646  0.57513433E-29  0.20814466E+02  0.20814466E+02
  0.15657  0.46422967E-29  0.21109183E+02  0.21109183E+02
  0.16667  0.37084811E-29  0.21401952E+02  0.21401952E+02
  0.17677  0.29409537E-29  0.21693758E+02  0.21693758E+02
  0.18687  0.23266554E-29  0.21985537E+02  0.21985537E+02
  0.19697  0.18498935E-29  0.22278192E+02  0.22278192E+02
  0.20707  0.14939222E-29  0.22572613E+02  0.22572613E+02
  0.21717  0.12426353E-29  0.22869688E+02  0.22869688E+02
  0.22727  0.10823659E-29  0.23170329E+02  0.23170329E+02
  0.23737  0.10037865E-29  0.23475507E+02  0.23475507E+02
  0.24747  0.10038855E-29  0.23786360E+02  0.23786360E+02
  0.25758  0.10880057E-29  0.24104590E+02  0.24104590E+02
  0.26768  0.12720941E-29  0.24435390E+02  0.24435390E+02
  0.27778  0.15598625E-29  0.24519519E+02  0.24519519E+02
  0.28788  0.20590978E-29  0.25075207E+02  0.25075207E+02
  0.29798  0.27646228E-29  0.25431195E+02  0.25431195E+02
  0.30808  0.37684609E-29  0.25793680E+02  0.25793680E+02
  0.31818  0.51605859E-29  0.26167018E+02  0.26167018E+02
  0.32828  0.70468759E-29  0.26553023E+02  0.26553023E+02
  0.33838  0.95478730E-29  0.26953101E+02  0.26953101E+02
  0.34848  0.12796150E-28  0.27368561E+02  0.27368561E+02
  0.35859  0.16932203E-28  0.27800704E+02  0.27800704E+02
  0.36869  0.22098660E-28  0.28250837E+02  0.28250837E+02
  0.37879  0.28432624E-28  0.28720282E+02  0.28720282E+02
  0.38889  0.36056007E-28  0.29210370E+02  0.29210370E+02
  0.39899  0.45063825E-28  0.29722428E+02  0.29722428E+02
  0.40909  0.55510551E-28  0.30257766E+02  0.30257766E+02
  0.41919  0.67394828E-28  0.30817653E+02  0.30817653E+02
  0.42929  0.80643106E-28  0.31403289E+02  0.31403289E+02
  0.43939  0.95093097E-28  0.32015774E+02  0.32015774E+02
  0.44949  0.11047833E-27  0.32656060E+02  0.32656060E+02
  0.45960  0.12641552E-27  0.33324910E+02  0.33324910E+02
  0.46970  0.14239699E-27  0.34022833E+02  0.34022833E+02
  0.47980  0.15779063E-27  0.34750019E+02  0.34750019E+02
  0.48990  0.17185043E-27  0.35506265E+02  0.35506265E+02
  0.50000  0.18374047E-27  0.36290889E+02  0.36290889E+02
 ==============================================================
 
 Results:
 
 Volt, Current =   1.00000000E+00  1.66214927E-29
 
 ==============================================================
