
                           ************************       
                           *  WELCOME TO TBTRANS  *       
                           ************************       

reinit: Reading from standard input
************************** Dump of input data file ****************************
SystemName  au_111_capacitor
SystemLabel au_111_capacitor
==================================================
==================================================
# SPECIES AND BASIS
# Number of species
NumberOfSpecies 1
%block ChemicalSpeciesLabel
  1  79 Au
%endblock ChemicalSpeciesLabel
PAO.BasisSize    SZP
PAO.EnergyShift  0.005 Ry
==================================================
==================================================
# K-points
%block kgrid_Monkhorst_Pack
8   0   0   0.0
0   8   0   0.0
0   0   30  0.5
%endblock kgrid_Monkhorst_Pack
==================================================
==================================================
# UNIT CELL
LatticeConstant       2.92311 Ang
%block LatticeVectors
1.000000000   0.00000000000   0.0000000000
0.500000000   0.86602540378   0.0000000000
0.000000000   0.00000000000  10.6144555530
%endblock LatticeVectors
# Atomic coordinates
NumberOfAtoms 10
AtomicCoordinatesFormat ScaledCartesian
%block AtomicCoordinatesAndAtomicSpecies
       0.000000000       0.000000000       0.000000000    1  # A
       0.500000000       0.288675135       0.816496581    1  # B
       0.500000000      -0.288675135       1.632993162    1  # C
       0.000000000       0.000000000       2.449489743    1  # A
       0.500000000       0.288675135       3.265986324    1  # B
       0.500000000       0.288675135       6.531972648    1  # B
       0.500000000      -0.288675135       7.348469229    1  # C
       0.000000000       0.000000000       8.164965810    1  # A
       0.500000000       0.288675135       8.981462391    1  # B
       0.500000000      -0.288675135       9.797958972    1  # C
%endblock AtomicCoordinatesAndAtomicSpecies
==================================================
==================================================
# General variables
ElectronicTemperature  100 K
MeshCutoff           350. Ry
xc.functional         LDA           # Exchange-correlation functional
xc.authors            CA
SpinPolarized .false.
SolutionMethod Transiesta
==================================================
==================================================
# SCF variables
DM.MixSCF1   T
MaxSCFIterations      300           # Maximum number of SCF iter
DM.MixingWeight       0.03          # New DM amount for next SCF cycle
DM.Tolerance          1.d-4         # Tolerance in maximum difference
DM.UseSaveDM          true          # to use continuation files
DM.NumberPulay         5
Diag.DivideAndConquer     no
TS.MixH                  yes
==================================================
==================================================
# MD variables
MD.FinalTimeStep 1
MD.TypeOfRun CG
MD.NumCGsteps     000
MD.UseSaveXV      .true.
==================================================
==================================================
# Output variables
WriteMullikenPop                1
WriteBands                      .false.
SaveRho                         .false.
SaveDeltaRho                    .false.
SaveHS                          .false.
SaveElectrostaticPotential      True
SaveTotalPotential              no
WriteCoorXmol                   .true.
WriteMDXmol                     .true.
WriteMDhistory                  .false.
WriteEigenvalues                yes
==================================================
==================================================
# Parallel variables
Diag.ParallelOverK      yes
==================================================
==================================================
# Transiesta information
# GF OPTIONS
TS.ComplexContour.Emin    -30.0 eV
TS.ComplexContour.NPoles       03
TS.ComplexContour.NCircle      30
TS.ComplexContour.NLine        10
# BIAS OPTIONS
TS.biasContour.NumPoints       15
TS.UpdateDMCROnly        false
# TS OPTIONS
TS.Voltage 1.000000 eV
# TBT OPTIONS
TS.TBT.Emin -0.5 eV
TS.TBT.Emax +0.5 eV
TS.TBT.NPoints 100
TS.TBT.NEigen 3
TS.TBT.Eta        0.000001 Ry
# Write hamiltonian
TS.SaveHS   .true.
# LEFT ELECTRODE
TS.HSFileLeft  ./elec_au_111_abc.TSHS
TS.ReplicateA1Left    1
TS.ReplicateA2Left    1
TS.NumUsedAtomsLeft   03
TS.BufferAtomsLeft    0
# RIGHT ELECTRODE
TS.HSFileRight  ./elec_au_111_abc.TSHS
TS.ReplicateA1Right   1
TS.ReplicateA2Right   1
TS.NumUsedAtomsRight  03
TS.BufferAtomsRight   0
==================================================
==================================================
************************** End of input data file *****************************

reinit: -----------------------------------------------------------------------
reinit: System Name: au_111_capacitor
reinit: -----------------------------------------------------------------------
reinit: System Label: au_111_capacitor                                            
reinit: -----------------------------------------------------------------------
tbtrans: Voltage                         =     1.0000
Emin,Emax =      -0.499999      0.499999
Energy points in tbtrans =        100
tbtrans: Spin-polarized =  F
 contour:  Simple Line Contour:
 contour:     -0.03675      0.00000      0.000742404     0.000000000   1
 contour:     -0.03601      0.00000      0.000742404     0.000000000   2
 contour:     -0.03526      0.00000      0.000742404     0.000000000   3
 contour:     -0.03452      0.00000      0.000742404     0.000000000   4
 contour:     -0.03378      0.00000      0.000742404     0.000000000   5
 contour:     -0.03304      0.00000      0.000742404     0.000000000   6
 contour:     -0.03229      0.00000      0.000742404     0.000000000   7
 contour:     -0.03155      0.00000      0.000742404     0.000000000   8
 contour:     -0.03081      0.00000      0.000742404     0.000000000   9
 contour:     -0.03007      0.00000      0.000742404     0.000000000  10
 contour:     -0.02932      0.00000      0.000742404     0.000000000  11
 contour:     -0.02858      0.00000      0.000742404     0.000000000  12
 contour:     -0.02784      0.00000      0.000742404     0.000000000  13
 contour:     -0.02710      0.00000      0.000742404     0.000000000  14
 contour:     -0.02636      0.00000      0.000742404     0.000000000  15
 contour:     -0.02561      0.00000      0.000742404     0.000000000  16
 contour:     -0.02487      0.00000      0.000742404     0.000000000  17
 contour:     -0.02413      0.00000      0.000742404     0.000000000  18
 contour:     -0.02339      0.00000      0.000742404     0.000000000  19
 contour:     -0.02264      0.00000      0.000742404     0.000000000  20
 contour:     -0.02190      0.00000      0.000742404     0.000000000  21
 contour:     -0.02116      0.00000      0.000742404     0.000000000  22
 contour:     -0.02042      0.00000      0.000742404     0.000000000  23
 contour:     -0.01967      0.00000      0.000742404     0.000000000  24
 contour:     -0.01893      0.00000      0.000742404     0.000000000  25
 contour:     -0.01819      0.00000      0.000742404     0.000000000  26
 contour:     -0.01745      0.00000      0.000742404     0.000000000  27
 contour:     -0.01670      0.00000      0.000742404     0.000000000  28
 contour:     -0.01596      0.00000      0.000742404     0.000000000  29
 contour:     -0.01522      0.00000      0.000742404     0.000000000  30
 contour:     -0.01448      0.00000      0.000742404     0.000000000  31
 contour:     -0.01373      0.00000      0.000742404     0.000000000  32
 contour:     -0.01299      0.00000      0.000742404     0.000000000  33
 contour:     -0.01225      0.00000      0.000742404     0.000000000  34
 contour:     -0.01151      0.00000      0.000742404     0.000000000  35
 contour:     -0.01076      0.00000      0.000742404     0.000000000  36
 contour:     -0.01002      0.00000      0.000742404     0.000000000  37
 contour:     -0.00928      0.00000      0.000742404     0.000000000  38
 contour:     -0.00854      0.00000      0.000742404     0.000000000  39
 contour:     -0.00780      0.00000      0.000742404     0.000000000  40
 contour:     -0.00705      0.00000      0.000742404     0.000000000  41
 contour:     -0.00631      0.00000      0.000742404     0.000000000  42
 contour:     -0.00557      0.00000      0.000742404     0.000000000  43
 contour:     -0.00483      0.00000      0.000742404     0.000000000  44
 contour:     -0.00408      0.00000      0.000742404     0.000000000  45
 contour:     -0.00334      0.00000      0.000742404     0.000000000  46
 contour:     -0.00260      0.00000      0.000742404     0.000000000  47
 contour:     -0.00186      0.00000      0.000742404     0.000000000  48
 contour:     -0.00111      0.00000      0.000742404     0.000000000  49
 contour:     -0.00037      0.00000      0.000742404     0.000000000  50
 contour:      0.00037      0.00000      0.000742404     0.000000000  51
 contour:      0.00111      0.00000      0.000742404     0.000000000  52
 contour:      0.00186      0.00000      0.000742404     0.000000000  53
 contour:      0.00260      0.00000      0.000742404     0.000000000  54
 contour:      0.00334      0.00000      0.000742404     0.000000000  55
 contour:      0.00408      0.00000      0.000742404     0.000000000  56
 contour:      0.00483      0.00000      0.000742404     0.000000000  57
 contour:      0.00557      0.00000      0.000742404     0.000000000  58
 contour:      0.00631      0.00000      0.000742404     0.000000000  59
 contour:      0.00705      0.00000      0.000742404     0.000000000  60
 contour:      0.00780      0.00000      0.000742404     0.000000000  61
 contour:      0.00854      0.00000      0.000742404     0.000000000  62
 contour:      0.00928      0.00000      0.000742404     0.000000000  63
 contour:      0.01002      0.00000      0.000742404     0.000000000  64
 contour:      0.01076      0.00000      0.000742404     0.000000000  65
 contour:      0.01151      0.00000      0.000742404     0.000000000  66
 contour:      0.01225      0.00000      0.000742404     0.000000000  67
 contour:      0.01299      0.00000      0.000742404     0.000000000  68
 contour:      0.01373      0.00000      0.000742404     0.000000000  69
 contour:      0.01448      0.00000      0.000742404     0.000000000  70
 contour:      0.01522      0.00000      0.000742404     0.000000000  71
 contour:      0.01596      0.00000      0.000742404     0.000000000  72
 contour:      0.01670      0.00000      0.000742404     0.000000000  73
 contour:      0.01745      0.00000      0.000742404     0.000000000  74
 contour:      0.01819      0.00000      0.000742404     0.000000000  75
 contour:      0.01893      0.00000      0.000742404     0.000000000  76
 contour:      0.01967      0.00000      0.000742404     0.000000000  77
 contour:      0.02042      0.00000      0.000742404     0.000000000  78
 contour:      0.02116      0.00000      0.000742404     0.000000000  79
 contour:      0.02190      0.00000      0.000742404     0.000000000  80
 contour:      0.02264      0.00000      0.000742404     0.000000000  81
 contour:      0.02339      0.00000      0.000742404     0.000000000  82
 contour:      0.02413      0.00000      0.000742404     0.000000000  83
 contour:      0.02487      0.00000      0.000742404     0.000000000  84
 contour:      0.02561      0.00000      0.000742404     0.000000000  85
 contour:      0.02636      0.00000      0.000742404     0.000000000  86
 contour:      0.02710      0.00000      0.000742404     0.000000000  87
 contour:      0.02784      0.00000      0.000742404     0.000000000  88
 contour:      0.02858      0.00000      0.000742404     0.000000000  89
 contour:      0.02932      0.00000      0.000742404     0.000000000  90
 contour:      0.03007      0.00000      0.000742404     0.000000000  91
 contour:      0.03081      0.00000      0.000742404     0.000000000  92
 contour:      0.03155      0.00000      0.000742404     0.000000000  93
 contour:      0.03229      0.00000      0.000742404     0.000000000  94
 contour:      0.03304      0.00000      0.000742404     0.000000000  95
 contour:      0.03378      0.00000      0.000742404     0.000000000  96
 contour:      0.03452      0.00000      0.000742404     0.000000000  97
 contour:      0.03526      0.00000      0.000742404     0.000000000  98
 contour:      0.03601      0.00000      0.000742404     0.000000000  99
 contour:      0.03675      0.00000      0.000742404     0.000000000 100
 
************************************************************************
 K-Points On Nodes:
 
 Node  Numb. K Pts.  Tot. K Pts. 
  0       10           40
  1       10           40
  2       10           40
  3       10           40
------------------------------------------------------------------------
 K-Points Coordinates and Weights (Node,kx,ky,kz,wk),:
 
        0    -0.42655     0.24627     0.00000     0.01563
        0    -0.28436     0.16418     0.00000     0.01563
        0    -0.14218     0.08209     0.00000     0.01563
        0     0.00000     0.00000     0.00000     0.01563
        0     0.14218    -0.08209     0.00000     0.01563
        0     0.28436    -0.16418     0.00000     0.01563
        0     0.42655    -0.24627     0.00000     0.01563
        0     0.56873    -0.32836     0.00000     0.01563
        0    -0.42655     0.41045     0.00000     0.03125
        0    -0.28436     0.32836     0.00000     0.03125
        1    -0.14218     0.24627     0.00000     0.03125
        1     0.00000     0.16418     0.00000     0.03125
        1     0.14218     0.08209     0.00000     0.03125
        1     0.28436     0.00000     0.00000     0.03125
        1     0.42655    -0.08209     0.00000     0.03125
        1     0.56873    -0.16418     0.00000     0.03125
        1    -0.42655     0.57462     0.00000     0.03125
        1    -0.28436     0.49253     0.00000     0.03125
        1    -0.14218     0.41045     0.00000     0.03125
        1     0.00000     0.32836     0.00000     0.03125
        2     0.14218     0.24627     0.00000     0.03125
        2     0.28436     0.16418     0.00000     0.03125
        2     0.42655     0.08209     0.00000     0.03125
        2     0.56873     0.00000     0.00000     0.03125
        2    -0.42655     0.73880     0.00000     0.03125
        2    -0.28436     0.65671     0.00000     0.03125
        2    -0.14218     0.57462     0.00000     0.03125
        2     0.00000     0.49253     0.00000     0.03125
        2     0.14218     0.41045     0.00000     0.03125
        2     0.28436     0.32836     0.00000     0.03125
        3     0.42655     0.24627     0.00000     0.03125
        3     0.56873     0.16418     0.00000     0.03125
        3    -0.42655     0.90298     0.00000     0.01563
        3    -0.28436     0.82089     0.00000     0.01563
        3    -0.14218     0.73880     0.00000     0.01563
        3     0.00000     0.65671     0.00000     0.01563
        3     0.14218     0.57462     0.00000     0.01563
        3     0.28436     0.49253     0.00000     0.01563
        3     0.42655     0.41045     0.00000     0.01563
        3     0.56873     0.32836     0.00000     0.01563
************************************************************************
 
 unit cell:
  5.5239  0.0000  0.0000
  2.7619  4.7838  0.0000
  0.0000  0.0000 13.5307
 unit cell:
  5.5239  0.0000  0.0000
  2.7619  4.7838  0.0000
  0.0000  0.0000 13.5307
 ==============================================================
  Projection Region: atoms : [  4;  7 ]
  Projection Region: states: [  1; 36 ] ; 36
 
  Starting K-Point loop for spin:   1
 
 Transport for spin ->  1  , kxy-point ->   1, of Node     0
           kxy=(-.427 0.246 0.000 ),w= 0.0156
    E           T(E)            TotDOS         PDOS
 -0.50000  0.59306596E-28  0.12795631E+02  0.81077275E+01
 -0.48990  0.57379554E-28  0.12772597E+02  0.80949023E+01
 -0.47980  0.55416536E-28  0.12750131E+02  0.80822557E+01
 -0.46970  0.53422008E-28  0.12728222E+02  0.80697842E+01
 -0.45960  0.51400577E-28  0.12706862E+02  0.80574847E+01
 -0.44949  0.49356995E-28  0.12686044E+02  0.80453540E+01
 -0.43939  0.47296143E-28  0.12665758E+02  0.80333894E+01
 -0.42929  0.45223034E-28  0.12645998E+02  0.80215884E+01
 -0.41919  0.43142801E-28  0.12626757E+02  0.80099485E+01
 -0.40909  0.41060695E-28  0.12608026E+02  0.79984675E+01
 -0.39899  0.38982075E-28  0.12589801E+02  0.79871432E+01
 -0.38889  0.36912404E-28  0.12572074E+02  0.79759737E+01
 -0.37879  0.34857239E-28  0.12554839E+02  0.79649572E+01
 -0.36869  0.32822228E-28  0.12538091E+02  0.79540921E+01
 -0.35859  0.30813100E-28  0.12521823E+02  0.79433768E+01
 -0.34848  0.28835656E-28  0.12506031E+02  0.79328099E+01
 -0.33838  0.26895768E-28  0.12490709E+02  0.79223900E+01
 -0.32828  0.24999362E-28  0.12475851E+02  0.79121160E+01
 -0.31818  0.23152418E-28  0.12461454E+02  0.79019867E+01
 -0.30808  0.21360956E-28  0.12447512E+02  0.78920010E+01
 -0.29798  0.19631035E-28  0.12434021E+02  0.78821581E+01
 -0.28788  0.17968734E-28  0.12420977E+02  0.78724571E+01
 -0.27778  0.16380155E-28  0.12408374E+02  0.78628971E+01
 -0.26768  0.14871407E-28  0.12396209E+02  0.78534776E+01
 -0.25758  0.13448599E-28  0.12384478E+02  0.78441977E+01
 -0.24747  0.12117832E-28  0.12373177E+02  0.78350570E+01
 -0.23737  0.10885191E-28  0.12362302E+02  0.78260548E+01
 -0.22727  0.97567347E-29  0.12351849E+02  0.78171908E+01
 -0.21717  0.87384857E-29  0.12341815E+02  0.78084645E+01
 -0.20707  0.78364241E-29  0.12332196E+02  0.77998754E+01
 -0.19697  0.70564767E-29  0.12322989E+02  0.77914234E+01
 -0.18687  0.64045085E-29  0.12314190E+02  0.77831081E+01
 -0.17677  0.58863135E-29  0.12305797E+02  0.77749293E+01
 -0.16667  0.55076061E-29  0.12297805E+02  0.77668866E+01
 -0.15657  0.52740117E-29  0.12290212E+02  0.77589801E+01
 -0.14646  0.51910577E-29  0.12283014E+02  0.77512094E+01
 -0.13636  0.52641651E-29  0.12276209E+02  0.77435746E+01
 -0.12626  0.54986389E-29  0.12269793E+02  0.77360755E+01
 -0.11616  0.58996600E-29  0.12263764E+02  0.77287121E+01
 -0.10606  0.64722758E-29  0.12258119E+02  0.77214842E+01
 -0.09596  0.72213921E-29  0.12252854E+02  0.77143920E+01
 -0.08586  0.81517645E-29  0.12247967E+02  0.77074354E+01
 -0.07576  0.92679895E-29  0.12243456E+02  0.77006144E+01
 -0.06566  0.10574497E-28  0.12239317E+02  0.76939291E+01
 -0.05556  0.12075541E-28  0.12235547E+02  0.76873796E+01
 -0.04545  0.13775193E-28  0.12232145E+02  0.76809658E+01
 -0.03535  0.15677333E-28  0.12229107E+02  0.76746879E+01
 -0.02525  0.17785643E-28  0.12226431E+02  0.76685460E+01
 -0.01515  0.20103598E-28  0.12224113E+02  0.76625402E+01
 -0.00505  0.22634458E-28  0.12222153E+02  0.76566705E+01
  0.00505  0.25381267E-28  0.12220546E+02  0.76509372E+01
  0.01515  0.28346836E-28  0.12219290E+02  0.76453403E+01
  0.02525  0.31533746E-28  0.12218383E+02  0.76398800E+01
  0.03535  0.34944335E-28  0.12217822E+02  0.76345565E+01
  0.04545  0.38580695E-28  0.12217605E+02  0.76293698E+01
  0.05556  0.42444666E-28  0.12217729E+02  0.76243200E+01
  0.06566  0.46537830E-28  0.12218191E+02  0.76194075E+01
  0.07576  0.50861503E-28  0.12218990E+02  0.76146322E+01
  0.08586  0.55416736E-28  0.12220122E+02  0.76099944E+01
  0.09596  0.60204302E-28  0.12221585E+02  0.76054942E+01
  0.10606  0.65224702E-28  0.12223377E+02  0.76011318E+01
  0.11616  0.70478148E-28  0.12225494E+02  0.75969072E+01
  0.12626  0.75964572E-28  0.12227935E+02  0.75928206E+01
  0.13636  0.81683614E-28  0.12230697E+02  0.75888722E+01
  0.14646  0.87634619E-28  0.12233777E+02  0.75850620E+01
  0.15657  0.93816642E-28  0.12237172E+02  0.75813902E+01
  0.16667  0.10022843E-27  0.12240881E+02  0.75778569E+01
  0.17677  0.10686845E-27  0.12244900E+02  0.75744621E+01
  0.18687  0.11373483E-27  0.12249228E+02  0.75712060E+01
  0.19697  0.12082544E-27  0.12253860E+02  0.75680884E+01
  0.20707  0.12813780E-27  0.12258794E+02  0.75651094E+01
  0.21717  0.13566915E-27  0.12264028E+02  0.75622687E+01
  0.22727  0.14341639E-27  0.12269557E+02  0.75595663E+01
  0.23737  0.15137614E-27  0.12275379E+02  0.75570013E+01
  0.24747  0.15954465E-27  0.12281489E+02  0.75545727E+01
  0.25758  0.16791781E-27  0.12287878E+02  0.75522781E+01
  0.26768  0.17649102E-27  0.12294536E+02  0.75501114E+01
  0.27778  0.18525865E-27  0.12301425E+02  0.75480535E+01
  0.28788  0.19420986E-27  0.12308353E+02  0.75459941E+01
  0.29798  0.20349025E-27  0.12320097E+02  0.75467123E+01
  0.30808  0.21272188E-27  0.12324849E+02  0.75433429E+01
  0.31818  0.22221867E-27  0.12332736E+02  0.75417778E+01
  0.32828  0.23188866E-27  0.12341035E+02  0.75404334E+01
  0.33838  0.24172238E-27  0.12349641E+02  0.75392514E+01
  0.34848  0.25171253E-27  0.12358529E+02  0.75382189E+01
  0.35859  0.26185200E-27  0.12367689E+02  0.75373312E+01
  0.36869  0.27213354E-27  0.12377115E+02  0.75365864E+01
  0.37879  0.28254972E-27  0.12386802E+02  0.75359835E+01
  0.38889  0.29309285E-27  0.12396746E+02  0.75355217E+01
  0.39899  0.30375503E-27  0.12406945E+02  0.75352006E+01
  0.40909  0.31452811E-27  0.12417394E+02  0.75350201E+01
  0.41919  0.32540370E-27  0.12428090E+02  0.75349799E+01
  0.42929  0.33637322E-27  0.12439031E+02  0.75350798E+01
  0.43939  0.34742784E-27  0.12450213E+02  0.75353196E+01
  0.44949  0.35855853E-27  0.12461634E+02  0.75356992E+01
  0.45960  0.36975608E-27  0.12473291E+02  0.75362184E+01
  0.46970  0.38101106E-27  0.12485179E+02  0.75368771E+01
  0.47980  0.39231388E-27  0.12497298E+02  0.75376750E+01
  0.48990  0.40365476E-27  0.12509642E+02  0.75386120E+01
  0.50000  0.41502376E-27  0.12522210E+02  0.75396880E+01
 Transport for spin ->  1  , kxy-point ->   2, of Node     0
           kxy=(-.284 0.164 0.000 ),w= 0.0156
    E           T(E)            TotDOS         PDOS
 -0.50000  0.64909359E-27  0.14982251E+02  0.16704918E+02
 -0.48990  0.65167108E-27  0.14979448E+02  0.16697507E+02
 -0.47980  0.65364716E-27  0.14976953E+02  0.16690408E+02
 -0.46970  0.65501451E-27  0.14974759E+02  0.16683615E+02
 -0.45960  0.65576699E-27  0.14972858E+02  0.16677123E+02
 -0.44949  0.65589974E-27  0.14971244E+02  0.16670926E+02
 -0.43939  0.65540914E-27  0.14969908E+02  0.16665016E+02
 -0.42929  0.65429285E-27  0.14968844E+02  0.16659390E+02
 -0.41919  0.65254985E-27  0.14968042E+02  0.16654039E+02
 -0.40909  0.65018042E-27  0.14967497E+02  0.16648960E+02
 -0.39899  0.64718613E-27  0.14967201E+02  0.16644144E+02
 -0.38889  0.64356993E-27  0.14967145E+02  0.16639586E+02
 -0.37879  0.63933604E-27  0.14967322E+02  0.16635280E+02
 -0.36869  0.63449005E-27  0.14967725E+02  0.16631220E+02
 -0.35859  0.62903886E-27  0.14968346E+02  0.16627400E+02
 -0.34848  0.62299069E-27  0.14969176E+02  0.16623813E+02
 -0.33838  0.61635507E-27  0.14970210E+02  0.16620452E+02
 -0.32828  0.60914282E-27  0.14971438E+02  0.16617313E+02
 -0.31818  0.60136605E-27  0.14972852E+02  0.16614388E+02
 -0.30808  0.59303814E-27  0.14974447E+02  0.16611671E+02
 -0.29798  0.58417370E-27  0.14976212E+02  0.16609156E+02
 -0.28788  0.57478857E-27  0.14978141E+02  0.16606836E+02
 -0.27778  0.56489978E-27  0.14980226E+02  0.16604705E+02
 -0.26768  0.55452550E-27  0.14982459E+02  0.16602756E+02
 -0.25758  0.54368506E-27  0.14984832E+02  0.16600984E+02
 -0.24747  0.53239887E-27  0.14987337E+02  0.16599381E+02
 -0.23737  0.52068839E-27  0.14989967E+02  0.16597941E+02
 -0.22727  0.50857610E-27  0.14992713E+02  0.16596658E+02
 -0.21717  0.49608545E-27  0.14995568E+02  0.16595525E+02
 -0.20707  0.48324082E-27  0.14998524E+02  0.16594535E+02
 -0.19697  0.47006745E-27  0.15001572E+02  0.16593681E+02
 -0.18687  0.45659143E-27  0.15004705E+02  0.16592958E+02
 -0.17677  0.44283959E-27  0.15007913E+02  0.16592356E+02
 -0.16667  0.42883949E-27  0.15011189E+02  0.16591870E+02
 -0.15657  0.41461932E-27  0.15014522E+02  0.16591490E+02
 -0.14646  0.40020782E-27  0.15017903E+02  0.16591207E+02
 -0.13636  0.38563414E-27  0.15021316E+02  0.16591006E+02
 -0.12626  0.37092753E-27  0.15024740E+02  0.16590865E+02
 -0.11616  0.35611619E-27  0.15028115E+02  0.16590721E+02
 -0.10606  0.34121817E-27  0.15031145E+02  0.16590243E+02
 -0.09596  0.32653068E-27  0.15039924E+02  0.16596258E+02
 -0.08586  0.31145081E-27  0.15039905E+02  0.16592477E+02
 -0.07576  0.29653785E-27  0.15043182E+02  0.16592445E+02
 -0.06566  0.28168802E-27  0.15046644E+02  0.16592682E+02
 -0.05556  0.26692695E-27  0.15050146E+02  0.16593027E+02
 -0.04545  0.25228488E-27  0.15053650E+02  0.16593440E+02
 -0.03535  0.23779284E-27  0.15057138E+02  0.16593901E+02
 -0.02525  0.22348198E-27  0.15060597E+02  0.16594399E+02
 -0.01515  0.20938333E-27  0.15064017E+02  0.16594925E+02
 -0.00505  0.19552770E-27  0.15067391E+02  0.16595470E+02
  0.00505  0.18194555E-27  0.15070708E+02  0.16596029E+02
  0.01515  0.16866698E-27  0.15073963E+02  0.16596594E+02
  0.02525  0.15572159E-27  0.15077147E+02  0.16597158E+02
  0.03535  0.14313847E-27  0.15080253E+02  0.16597715E+02
  0.04545  0.13094612E-27  0.15083274E+02  0.16598259E+02
  0.05556  0.11917237E-27  0.15086203E+02  0.16598784E+02
  0.06566  0.10784434E-27  0.15089032E+02  0.16599283E+02
  0.07576  0.96988389E-28  0.15091755E+02  0.16599751E+02
  0.08586  0.86630046E-28  0.15094364E+02  0.16600181E+02
  0.09596  0.76793957E-28  0.15096853E+02  0.16600567E+02
  0.10606  0.67503841E-28  0.15099216E+02  0.16600904E+02
  0.11616  0.58782436E-28  0.15101444E+02  0.16601185E+02
  0.12626  0.50651451E-28  0.15103533E+02  0.16601406E+02
  0.13636  0.43131525E-28  0.15105475E+02  0.16601559E+02
  0.14646  0.36242178E-28  0.15107264E+02  0.16601640E+02
  0.15657  0.30001777E-28  0.15108894E+02  0.16601643E+02
  0.16667  0.24427496E-28  0.15110358E+02  0.16601562E+02
  0.17677  0.19535277E-28  0.15111649E+02  0.16601392E+02
  0.18687  0.15339804E-28  0.15112763E+02  0.16601127E+02
  0.19697  0.11854469E-28  0.15113693E+02  0.16600761E+02
  0.20707  0.90913468E-29  0.15114432E+02  0.16600290E+02
  0.21717  0.70611689E-29  0.15114975E+02  0.16599709E+02
  0.22727  0.57733042E-29  0.15115316E+02  0.16599011E+02
  0.23737  0.52357399E-29  0.15115450E+02  0.16598192E+02
  0.24747  0.54550663E-29  0.15115370E+02  0.16597246E+02
  0.25758  0.64364638E-29  0.15115072E+02  0.16596170E+02
  0.26768  0.81836945E-29  0.15114549E+02  0.16594956E+02
  0.27778  0.10699095E-28  0.15113797E+02  0.16593602E+02
  0.28788  0.13983572E-28  0.15112809E+02  0.16592101E+02
  0.29798  0.18036604E-28  0.15111582E+02  0.16590449E+02
  0.30808  0.22856244E-28  0.15110109E+02  0.16588642E+02
  0.31818  0.28439122E-28  0.15108386E+02  0.16586674E+02
  0.32828  0.34780455E-28  0.15106408E+02  0.16584542E+02
  0.33838  0.41874060E-28  0.15104170E+02  0.16582240E+02
  0.34848  0.49712366E-28  0.15101668E+02  0.16579764E+02
  0.35859  0.58286431E-28  0.15098896E+02  0.16577110E+02
  0.36869  0.67585964E-28  0.15095850E+02  0.16574274E+02
  0.37879  0.77599343E-28  0.15092526E+02  0.16571251E+02
  0.38889  0.88313646E-28  0.15088920E+02  0.16568037E+02
  0.39899  0.99714673E-28  0.15085027E+02  0.16564629E+02
  0.40909  0.11178698E-27  0.15080844E+02  0.16561022E+02
  0.41919  0.12451391E-27  0.15076366E+02  0.16557212E+02
  0.42929  0.13787763E-27  0.15071589E+02  0.16553196E+02
  0.43939  0.15185916E-27  0.15066509E+02  0.16548970E+02
  0.44949  0.16643842E-27  0.15061124E+02  0.16544530E+02
  0.45960  0.18159428E-27  0.15055429E+02  0.16539872E+02
  0.46970  0.19730456E-27  0.15049421E+02  0.16534994E+02
  0.47980  0.21354616E-27  0.15043097E+02  0.16529891E+02
  0.48990  0.23029500E-27  0.15036453E+02  0.16524561E+02
  0.50000  0.24752616E-27  0.15029486E+02  0.16519000E+02
 Transport for spin ->  1  , kxy-point ->   3, of Node     0
           kxy=(-.142 0.082 0.000 ),w= 0.0156
    E           T(E)            TotDOS         PDOS
 -0.50000  0.81102170E-27  0.13501059E+02  0.15529004E+02
 -0.48990  0.81309298E-27  0.13486191E+02  0.15515325E+02
 -0.47980  0.81424943E-27  0.13471502E+02  0.15501908E+02
 -0.46970  0.81448843E-27  0.13456989E+02  0.15488746E+02
 -0.45960  0.81380953E-27  0.13442646E+02  0.15475834E+02
 -0.44949  0.81221448E-27  0.13428470E+02  0.15463170E+02
 -0.43939  0.80970714E-27  0.13414457E+02  0.15450749E+02
 -0.42929  0.80629354E-27  0.13400604E+02  0.15438566E+02
 -0.41919  0.80198178E-27  0.13386908E+02  0.15426620E+02
 -0.40909  0.79678209E-27  0.13373366E+02  0.15414907E+02
 -0.39899  0.79070669E-27  0.13359977E+02  0.15403425E+02
 -0.38889  0.78376985E-27  0.13346737E+02  0.15392172E+02
 -0.37879  0.77598778E-27  0.13333647E+02  0.15381145E+02
 -0.36869  0.76737862E-27  0.13320704E+02  0.15370344E+02
 -0.35859  0.75796234E-27  0.13307908E+02  0.15359767E+02
 -0.34848  0.74776077E-27  0.13295258E+02  0.15349414E+02
 -0.33838  0.73679744E-27  0.13282753E+02  0.15339284E+02
 -0.32828  0.72509760E-27  0.13270394E+02  0.15329377E+02
 -0.31818  0.71268811E-27  0.13258181E+02  0.15319693E+02
 -0.30808  0.69959737E-27  0.13246114E+02  0.15310233E+02
 -0.29798  0.68585528E-27  0.13234194E+02  0.15300998E+02
 -0.28788  0.67149313E-27  0.13222423E+02  0.15291988E+02
 -0.27778  0.65654357E-27  0.13210802E+02  0.15283205E+02
 -0.26768  0.64104046E-27  0.13199333E+02  0.15274651E+02
 -0.25758  0.62501887E-27  0.13188016E+02  0.15266328E+02
 -0.24747  0.60851493E-27  0.13176856E+02  0.15258238E+02
 -0.23737  0.59156581E-27  0.13165854E+02  0.15250384E+02
 -0.22727  0.57420956E-27  0.13155013E+02  0.15242769E+02
 -0.21717  0.55648510E-27  0.13144336E+02  0.15235397E+02
 -0.20707  0.53843209E-27  0.13133826E+02  0.15228269E+02
 -0.19697  0.52009085E-27  0.13123488E+02  0.15221391E+02
 -0.18687  0.50150227E-27  0.13113323E+02  0.15214767E+02
 -0.17677  0.48270773E-27  0.13103338E+02  0.15208400E+02
 -0.16667  0.46374902E-27  0.13093536E+02  0.15202296E+02
 -0.15657  0.44466823E-27  0.13083921E+02  0.15196460E+02
 -0.14646  0.42550766E-27  0.13074499E+02  0.15190896E+02
 -0.13636  0.40630977E-27  0.13065274E+02  0.15185610E+02
 -0.12626  0.38711706E-27  0.13056252E+02  0.15180609E+02
 -0.11616  0.36797199E-27  0.13047438E+02  0.15175897E+02
 -0.10606  0.34891690E-27  0.13038838E+02  0.15171483E+02
 -0.09596  0.32999391E-27  0.13030458E+02  0.15167371E+02
 -0.08586  0.31124489E-27  0.13022304E+02  0.15163569E+02
 -0.07576  0.29271131E-27  0.13014384E+02  0.15160085E+02
 -0.06566  0.27443419E-27  0.13006702E+02  0.15156925E+02
 -0.05556  0.25645403E-27  0.12999268E+02  0.15154098E+02
 -0.04545  0.23881074E-27  0.12992087E+02  0.15151612E+02
 -0.03535  0.22154354E-27  0.12985167E+02  0.15149474E+02
 -0.02525  0.20469089E-27  0.12978516E+02  0.15147694E+02
 -0.01515  0.18829044E-27  0.12972141E+02  0.15146281E+02
 -0.00505  0.17237895E-27  0.12966052E+02  0.15145243E+02
  0.00505  0.15699222E-27  0.12960255E+02  0.15144590E+02
  0.01515  0.14216504E-27  0.12954761E+02  0.15144332E+02
  0.02525  0.12793110E-27  0.12949577E+02  0.15144478E+02
  0.03535  0.11432296E-27  0.12944713E+02  0.15145040E+02
  0.04545  0.10137199E-27  0.12940177E+02  0.15146026E+02
  0.05556  0.89108293E-28  0.12935980E+02  0.15147450E+02
  0.06566  0.77560676E-28  0.12932131E+02  0.15149320E+02
  0.07576  0.66756589E-28  0.12928640E+02  0.15151649E+02
  0.08586  0.56722085E-28  0.12925517E+02  0.15154447E+02
  0.09596  0.47481769E-28  0.12922771E+02  0.15157728E+02
  0.10606  0.39058761E-28  0.12920415E+02  0.15161501E+02
  0.11616  0.31474656E-28  0.12918457E+02  0.15165781E+02
  0.12626  0.24749486E-28  0.12916908E+02  0.15170578E+02
  0.13636  0.18901686E-28  0.12915780E+02  0.15175905E+02
  0.14646  0.13948064E-28  0.12915084E+02  0.15181774E+02
  0.15657  0.99037670E-29  0.12914829E+02  0.15188199E+02
  0.16667  0.67822582E-29  0.12915026E+02  0.15195191E+02
  0.17677  0.45952887E-29  0.12915688E+02  0.15202763E+02
  0.18687  0.33528746E-29  0.12916823E+02  0.15210927E+02
  0.19697  0.30632756E-29  0.12918443E+02  0.15219695E+02
  0.20707  0.37329739E-29  0.12920559E+02  0.15229079E+02
  0.21717  0.53666557E-29  0.12923179E+02  0.15239091E+02
  0.22727  0.79671929E-29  0.12926314E+02  0.15249742E+02
  0.23737  0.11535625E-28  0.12929972E+02  0.15261041E+02
  0.24747  0.16071144E-28  0.12934162E+02  0.15272998E+02
  0.25758  0.21571071E-28  0.12938891E+02  0.15285622E+02
  0.26768  0.28030846E-28  0.12944166E+02  0.15298919E+02
  0.27778  0.35443999E-28  0.12949991E+02  0.15312895E+02
  0.28788  0.43802134E-28  0.12956370E+02  0.15327554E+02
  0.29798  0.53094895E-28  0.12963304E+02  0.15342896E+02
  0.30808  0.63309945E-28  0.12970794E+02  0.15358921E+02
  0.31818  0.74432916E-28  0.12978834E+02  0.15375622E+02
  0.32828  0.86447374E-28  0.12987418E+02  0.15392991E+02
  0.33838  0.99334755E-28  0.12996536E+02  0.15411014E+02
  0.34848  0.11307430E-27  0.13006171E+02  0.15429670E+02
  0.35859  0.12764296E-27  0.13016302E+02  0.15448933E+02
  0.36869  0.14301531E-27  0.13026900E+02  0.15468767E+02
  0.37879  0.15916338E-27  0.13037928E+02  0.15489126E+02
  0.38889  0.17605652E-27  0.13049339E+02  0.15509952E+02
  0.39899  0.19366119E-27  0.13061075E+02  0.15531171E+02
  0.40909  0.21194067E-27  0.13073060E+02  0.15552692E+02
  0.41919  0.23085476E-27  0.13085203E+02  0.15574402E+02
  0.42929  0.25035938E-27  0.13097391E+02  0.15596161E+02
  0.43939  0.27040602E-27  0.13109484E+02  0.15617797E+02
  0.44949  0.29094112E-27  0.13121308E+02  0.15639097E+02
  0.45960  0.31190523E-27  0.13132651E+02  0.15659799E+02
  0.46970  0.33323197E-27  0.13143252E+02  0.15679581E+02
  0.47980  0.35484665E-27  0.13152785E+02  0.15698046E+02
  0.48990  0.37666457E-27  0.13160851E+02  0.15714700E+02
  0.50000  0.39858873E-27  0.13166950E+02  0.15728931E+02
 Transport for spin ->  1  , kxy-point ->   4, of Node     0
           kxy=(0.000 0.000 0.000 ),w= 0.0156
    E           T(E)            TotDOS         PDOS
 -0.50000  0.42717800E-29  0.38837267E+01  0.38837267E+01
 -0.48990  0.12513854E-28  0.39457556E+01  0.39457556E+01
 -0.47980  0.12830912E-27  0.50432136E+01  0.50432136E+01
 -0.46970  0.10040707E-27  0.47166354E+01  0.47166354E+01
 -0.45960  0.12577907E-28  0.38728742E+01  0.38728742E+01
 -0.44949  0.47540946E-29  0.37803018E+01  0.37803018E+01
 -0.43939  0.25178727E-29  0.37389833E+01  0.37389833E+01
 -0.42929  0.15739620E-29  0.37089944E+01  0.37089944E+01
 -0.41919  0.10858648E-29  0.36826153E+01  0.36826153E+01
 -0.40909  0.79963569E-30  0.36575012E+01  0.36575012E+01
 -0.39899  0.61671679E-30  0.36327275E+01  0.36327275E+01
 -0.38889  0.49226414E-30  0.36078545E+01  0.36078545E+01
 -0.37879  0.40344912E-30  0.35826378E+01  0.35826378E+01
 -0.36869  0.33763387E-30  0.35569209E+01  0.35569209E+01
 -0.35859  0.28735098E-30  0.35305890E+01  0.35305890E+01
 -0.34848  0.24795188E-30  0.35035483E+01  0.35035483E+01
 -0.33838  0.21641634E-30  0.34757143E+01  0.34757143E+01
 -0.32828  0.19071083E-30  0.34470058E+01  0.34470058E+01
 -0.31818  0.16942408E-30  0.34173413E+01  0.34173413E+01
 -0.30808  0.15155093E-30  0.33866362E+01  0.33866362E+01
 -0.29798  0.13635909E-30  0.33548010E+01  0.33548010E+01
 -0.28788  0.12330444E-30  0.33217394E+01  0.33217394E+01
 -0.27778  0.11197553E-30  0.32873472E+01  0.32873472E+01
 -0.26768  0.10205633E-30  0.32515103E+01  0.32515103E+01
 -0.25758  0.93300738E-31  0.32141034E+01  0.32141034E+01
 -0.24747  0.85514598E-31  0.31749880E+01  0.31749880E+01
 -0.23737  0.78543016E-31  0.31340102E+01  0.31340102E+01
 -0.22727  0.72261087E-31  0.30909982E+01  0.30909982E+01
 -0.21717  0.66567112E-31  0.30457596E+01  0.30457596E+01
 -0.20707  0.61377518E-31  0.29980773E+01  0.29980773E+01
 -0.19697  0.56623039E-31  0.29477056E+01  0.29477056E+01
 -0.18687  0.52245781E-31  0.28943642E+01  0.28943642E+01
 -0.17677  0.48196951E-31  0.28377319E+01  0.28377319E+01
 -0.16667  0.44435079E-31  0.27774374E+01  0.27774374E+01
 -0.15657  0.40924594E-31  0.27130482E+01  0.27130482E+01
 -0.14646  0.37634676E-31  0.26440558E+01  0.26440558E+01
 -0.13636  0.34538293E-31  0.25698556E+01  0.25698556E+01
 -0.12626  0.31611378E-31  0.24897200E+01  0.24897200E+01
 -0.11616  0.28832073E-31  0.24027597E+01  0.24027597E+01
 -0.10606  0.26179990E-31  0.23078684E+01  0.23078684E+01
 -0.09596  0.23635400E-31  0.22036389E+01  0.22036389E+01
 -0.08586  0.21178219E-31  0.20882328E+01  0.20882328E+01
 -0.07576  0.18786554E-31  0.19591618E+01  0.19591618E+01
 -0.06566  0.16434298E-31  0.18129020E+01  0.18129020E+01
 -0.05556  0.14086563E-31  0.16441377E+01  0.16441377E+01
 -0.04545  0.11689492E-31  0.14440837E+01  0.14440837E+01
 -0.03535  0.91421206E-32  0.11959297E+01  0.11959297E+01
 -0.02525  0.61835979E-32  0.85706288E+00  0.85706288E+00
 -0.01515  0.47354074E-34  0.71445076E-02  0.71445076E-02
 -0.00505  0.39211368E-35  0.80261755E-03  0.80261755E-03
  0.00505  0.27010273E-35  0.63673577E-03  0.63673577E-03
  0.01515  0.21478662E-35  0.56507656E-03  0.56507656E-03
  0.02525  0.18137312E-35  0.52399295E-03  0.52399295E-03
  0.03535  0.15841075E-35  0.49749823E-03  0.49749823E-03
  0.04545  0.14142384E-35  0.47945139E-03  0.47945139E-03
  0.05556  0.12824716E-35  0.46693685E-03  0.46693685E-03
  0.06566  0.11768588E-35  0.45838143E-03  0.45838143E-03
  0.07576  0.10901882E-35  0.45286295E-03  0.45286295E-03
  0.08586  0.10178148E-35  0.44981133E-03  0.44981133E-03
  0.09596  0.95659825E-36  0.44886383E-03  0.44886383E-03
  0.10606  0.90433568E-36  0.44978891E-03  0.44978891E-03
  0.11616  0.85943796E-36  0.45244363E-03  0.45244363E-03
  0.12626  0.82073542E-36  0.45674887E-03  0.45674887E-03
  0.13636  0.78735595E-36  0.46267457E-03  0.46267457E-03
  0.14646  0.75864624E-36  0.47023108E-03  0.47023108E-03
  0.15657  0.73411956E-36  0.47946438E-03  0.47946438E-03
  0.16667  0.71342085E-36  0.49045411E-03  0.49045411E-03
  0.17677  0.69630346E-36  0.50331357E-03  0.50331357E-03
  0.18687  0.68261401E-36  0.51819163E-03  0.51819163E-03
  0.19697  0.67228365E-36  0.53527629E-03  0.53527629E-03
  0.20707  0.66532415E-36  0.55479994E-03  0.55479994E-03
  0.21717  0.66182848E-36  0.57704681E-03  0.57704681E-03
  0.22727  0.66197576E-36  0.60236278E-03  0.60236278E-03
  0.23737  0.66604067E-36  0.63116824E-03  0.63116824E-03
  0.24747  0.67440830E-36  0.66397506E-03  0.66397506E-03
  0.25758  0.68759548E-36  0.70140863E-03  0.70140863E-03
  0.26768  0.70628065E-36  0.74423713E-03  0.74423713E-03
  0.27778  0.73134503E-36  0.79341025E-03  0.79341025E-03
  0.28788  0.76392936E-36  0.85011131E-03  0.85011131E-03
  0.29798  0.80551247E-36  0.91582800E-03  0.91582800E-03
  0.30808  0.85802117E-36  0.99244988E-03  0.99244988E-03
  0.31818  0.92398577E-36  0.10824046E-02  0.10824046E-02
  0.32828  0.10067636E-35  0.11888518E-02  0.11888518E-02
  0.33838  0.11108664E-35  0.13159636E-02  0.13159636E-02
  0.34848  0.12424486E-35  0.14693401E-02  0.14693401E-02
  0.35859  0.14100543E-35  0.16566381E-02  0.16566381E-02
  0.36869  0.16257892E-35  0.18885496E-02  0.18885496E-02
  0.37879  0.19072159E-35  0.21803705E-02  0.21803705E-02
  0.38889  0.22805279E-35  0.25546045E-02  0.25546045E-02
  0.39899  0.27860840E-35  0.30454660E-02  0.30454660E-02
  0.40909  0.34885316E-35  0.37070462E-02  0.37070462E-02
  0.41919  0.44964110E-35  0.46289950E-02  0.46289950E-02
  0.42929  0.60028618E-35  0.59688093E-02  0.59688093E-02
  0.43939  0.83778491E-35  0.80243724E-02  0.80243724E-02
  0.44949  0.12401985E-34  0.11416313E-01  0.11416313E-01
  0.45960  0.19956410E-34  0.17621467E-01  0.17621467E-01
  0.46970  0.36554264E-34  0.30913335E-01  0.30913335E-01
  0.47980  0.84514114E-34  0.68368052E-01  0.68368052E-01
  0.48990  0.34151795E-33  0.26403125E+00  0.26403125E+00
  0.50000  0.45222707E-30  0.33391798E+03  0.33391798E+03
 Transport for spin ->  1  , kxy-point ->   5, of Node     0
           kxy=(0.142 -.082 0.000 ),w= 0.0156
    E           T(E)            TotDOS         PDOS
 -0.50000  0.81102170E-27  0.13501059E+02  0.15529004E+02
 -0.48990  0.81309298E-27  0.13486191E+02  0.15515325E+02
 -0.47980  0.81424943E-27  0.13471502E+02  0.15501908E+02
 -0.46970  0.81448843E-27  0.13456989E+02  0.15488746E+02
 -0.45960  0.81380953E-27  0.13442646E+02  0.15475834E+02
 -0.44949  0.81221448E-27  0.13428470E+02  0.15463170E+02
 -0.43939  0.80970714E-27  0.13414457E+02  0.15450749E+02
 -0.42929  0.80629354E-27  0.13400604E+02  0.15438566E+02
 -0.41919  0.80198178E-27  0.13386908E+02  0.15426620E+02
 -0.40909  0.79678209E-27  0.13373366E+02  0.15414907E+02
 -0.39899  0.79070669E-27  0.13359977E+02  0.15403425E+02
 -0.38889  0.78376985E-27  0.13346737E+02  0.15392172E+02
 -0.37879  0.77598778E-27  0.13333647E+02  0.15381145E+02
 -0.36869  0.76737862E-27  0.13320704E+02  0.15370344E+02
 -0.35859  0.75796234E-27  0.13307908E+02  0.15359767E+02
 -0.34848  0.74776077E-27  0.13295258E+02  0.15349414E+02
 -0.33838  0.73679744E-27  0.13282753E+02  0.15339284E+02
 -0.32828  0.72509760E-27  0.13270394E+02  0.15329377E+02
 -0.31818  0.71268811E-27  0.13258181E+02  0.15319693E+02
 -0.30808  0.69959737E-27  0.13246114E+02  0.15310233E+02
 -0.29798  0.68585528E-27  0.13234194E+02  0.15300998E+02
 -0.28788  0.67149313E-27  0.13222423E+02  0.15291988E+02
 -0.27778  0.65654357E-27  0.13210802E+02  0.15283205E+02
 -0.26768  0.64104046E-27  0.13199333E+02  0.15274651E+02
 -0.25758  0.62501887E-27  0.13188016E+02  0.15266328E+02
 -0.24747  0.60851493E-27  0.13176856E+02  0.15258238E+02
 -0.23737  0.59156581E-27  0.13165854E+02  0.15250384E+02
 -0.22727  0.57420956E-27  0.13155013E+02  0.15242769E+02
 -0.21717  0.55648510E-27  0.13144336E+02  0.15235397E+02
 -0.20707  0.53843209E-27  0.13133826E+02  0.15228269E+02
 -0.19697  0.52009085E-27  0.13123488E+02  0.15221391E+02
 -0.18687  0.50150227E-27  0.13113323E+02  0.15214767E+02
 -0.17677  0.48270773E-27  0.13103338E+02  0.15208400E+02
 -0.16667  0.46374902E-27  0.13093536E+02  0.15202296E+02
 -0.15657  0.44466823E-27  0.13083921E+02  0.15196460E+02
 -0.14646  0.42550766E-27  0.13074499E+02  0.15190896E+02
 -0.13636  0.40630977E-27  0.13065274E+02  0.15185610E+02
 -0.12626  0.38711706E-27  0.13056252E+02  0.15180609E+02
 -0.11616  0.36797199E-27  0.13047438E+02  0.15175897E+02
 -0.10606  0.34891690E-27  0.13038838E+02  0.15171483E+02
 -0.09596  0.32999391E-27  0.13030458E+02  0.15167371E+02
 -0.08586  0.31124489E-27  0.13022304E+02  0.15163569E+02
 -0.07576  0.29271131E-27  0.13014384E+02  0.15160085E+02
 -0.06566  0.27443419E-27  0.13006702E+02  0.15156925E+02
 -0.05556  0.25645403E-27  0.12999268E+02  0.15154098E+02
 -0.04545  0.23881074E-27  0.12992087E+02  0.15151612E+02
 -0.03535  0.22154354E-27  0.12985167E+02  0.15149474E+02
 -0.02525  0.20469089E-27  0.12978516E+02  0.15147694E+02
 -0.01515  0.18829044E-27  0.12972141E+02  0.15146281E+02
 -0.00505  0.17237895E-27  0.12966052E+02  0.15145243E+02
  0.00505  0.15699222E-27  0.12960255E+02  0.15144590E+02
  0.01515  0.14216504E-27  0.12954761E+02  0.15144332E+02
  0.02525  0.12793110E-27  0.12949577E+02  0.15144478E+02
  0.03535  0.11432296E-27  0.12944713E+02  0.15145040E+02
  0.04545  0.10137199E-27  0.12940177E+02  0.15146026E+02
  0.05556  0.89108293E-28  0.12935980E+02  0.15147450E+02
  0.06566  0.77560676E-28  0.12932131E+02  0.15149320E+02
  0.07576  0.66756589E-28  0.12928640E+02  0.15151649E+02
  0.08586  0.56722085E-28  0.12925517E+02  0.15154447E+02
  0.09596  0.47481769E-28  0.12922771E+02  0.15157728E+02
  0.10606  0.39058761E-28  0.12920415E+02  0.15161501E+02
  0.11616  0.31474656E-28  0.12918457E+02  0.15165781E+02
  0.12626  0.24749486E-28  0.12916908E+02  0.15170578E+02
  0.13636  0.18901686E-28  0.12915780E+02  0.15175905E+02
  0.14646  0.13948064E-28  0.12915084E+02  0.15181774E+02
  0.15657  0.99037670E-29  0.12914829E+02  0.15188199E+02
  0.16667  0.67822582E-29  0.12915026E+02  0.15195191E+02
  0.17677  0.45952887E-29  0.12915688E+02  0.15202763E+02
  0.18687  0.33528746E-29  0.12916823E+02  0.15210927E+02
  0.19697  0.30632756E-29  0.12918443E+02  0.15219695E+02
  0.20707  0.37329739E-29  0.12920559E+02  0.15229079E+02
  0.21717  0.53666557E-29  0.12923179E+02  0.15239091E+02
  0.22727  0.79671929E-29  0.12926314E+02  0.15249742E+02
  0.23737  0.11535625E-28  0.12929972E+02  0.15261041E+02
  0.24747  0.16071144E-28  0.12934162E+02  0.15272998E+02
  0.25758  0.21571071E-28  0.12938891E+02  0.15285622E+02
  0.26768  0.28030846E-28  0.12944166E+02  0.15298919E+02
  0.27778  0.35443999E-28  0.12949991E+02  0.15312895E+02
  0.28788  0.43802134E-28  0.12956370E+02  0.15327554E+02
  0.29798  0.53094895E-28  0.12963304E+02  0.15342896E+02
  0.30808  0.63309945E-28  0.12970794E+02  0.15358921E+02
  0.31818  0.74432916E-28  0.12978834E+02  0.15375622E+02
  0.32828  0.86447374E-28  0.12987418E+02  0.15392991E+02
  0.33838  0.99334755E-28  0.12996536E+02  0.15411014E+02
  0.34848  0.11307430E-27  0.13006171E+02  0.15429670E+02
  0.35859  0.12764296E-27  0.13016302E+02  0.15448933E+02
  0.36869  0.14301531E-27  0.13026900E+02  0.15468767E+02
  0.37879  0.15916338E-27  0.13037928E+02  0.15489126E+02
  0.38889  0.17605652E-27  0.13049339E+02  0.15509952E+02
  0.39899  0.19366119E-27  0.13061075E+02  0.15531171E+02
  0.40909  0.21194067E-27  0.13073060E+02  0.15552692E+02
  0.41919  0.23085476E-27  0.13085203E+02  0.15574402E+02
  0.42929  0.25035938E-27  0.13097391E+02  0.15596161E+02
  0.43939  0.27040602E-27  0.13109484E+02  0.15617797E+02
  0.44949  0.29094112E-27  0.13121308E+02  0.15639097E+02
  0.45960  0.31190523E-27  0.13132651E+02  0.15659799E+02
  0.46970  0.33323197E-27  0.13143252E+02  0.15679581E+02
  0.47980  0.35484665E-27  0.13152785E+02  0.15698046E+02
  0.48990  0.37666457E-27  0.13160851E+02  0.15714700E+02
  0.50000  0.39858873E-27  0.13166950E+02  0.15728931E+02
 Transport for spin ->  1  , kxy-point ->   6, of Node     0
           kxy=(0.284 -.164 0.000 ),w= 0.0156
    E           T(E)            TotDOS         PDOS
 -0.50000  0.64909359E-27  0.14982251E+02  0.16704918E+02
 -0.48990  0.65167108E-27  0.14979448E+02  0.16697507E+02
 -0.47980  0.65364716E-27  0.14976953E+02  0.16690408E+02
 -0.46970  0.65501451E-27  0.14974759E+02  0.16683615E+02
 -0.45960  0.65576699E-27  0.14972858E+02  0.16677123E+02
 -0.44949  0.65589974E-27  0.14971244E+02  0.16670926E+02
 -0.43939  0.65540914E-27  0.14969908E+02  0.16665016E+02
 -0.42929  0.65429285E-27  0.14968844E+02  0.16659390E+02
 -0.41919  0.65254985E-27  0.14968042E+02  0.16654039E+02
 -0.40909  0.65018042E-27  0.14967497E+02  0.16648960E+02
 -0.39899  0.64718613E-27  0.14967201E+02  0.16644144E+02
 -0.38889  0.64356993E-27  0.14967145E+02  0.16639586E+02
 -0.37879  0.63933604E-27  0.14967322E+02  0.16635280E+02
 -0.36869  0.63449005E-27  0.14967725E+02  0.16631220E+02
 -0.35859  0.62903886E-27  0.14968346E+02  0.16627400E+02
 -0.34848  0.62299069E-27  0.14969176E+02  0.16623813E+02
 -0.33838  0.61635507E-27  0.14970210E+02  0.16620452E+02
 -0.32828  0.60914282E-27  0.14971438E+02  0.16617313E+02
 -0.31818  0.60136605E-27  0.14972852E+02  0.16614388E+02
 -0.30808  0.59303814E-27  0.14974447E+02  0.16611671E+02
 -0.29798  0.58417370E-27  0.14976212E+02  0.16609156E+02
 -0.28788  0.57478857E-27  0.14978141E+02  0.16606836E+02
 -0.27778  0.56489978E-27  0.14980226E+02  0.16604705E+02
 -0.26768  0.55452550E-27  0.14982459E+02  0.16602756E+02
 -0.25758  0.54368506E-27  0.14984832E+02  0.16600984E+02
 -0.24747  0.53239887E-27  0.14987337E+02  0.16599381E+02
 -0.23737  0.52068839E-27  0.14989967E+02  0.16597941E+02
 -0.22727  0.50857610E-27  0.14992713E+02  0.16596658E+02
 -0.21717  0.49608545E-27  0.14995568E+02  0.16595525E+02
 -0.20707  0.48324082E-27  0.14998524E+02  0.16594535E+02
 -0.19697  0.47006745E-27  0.15001572E+02  0.16593681E+02
 -0.18687  0.45659143E-27  0.15004705E+02  0.16592958E+02
 -0.17677  0.44283959E-27  0.15007913E+02  0.16592356E+02
 -0.16667  0.42883949E-27  0.15011189E+02  0.16591870E+02
 -0.15657  0.41461932E-27  0.15014522E+02  0.16591490E+02
 -0.14646  0.40020782E-27  0.15017903E+02  0.16591207E+02
 -0.13636  0.38563414E-27  0.15021316E+02  0.16591006E+02
 -0.12626  0.37092753E-27  0.15024740E+02  0.16590865E+02
 -0.11616  0.35611619E-27  0.15028115E+02  0.16590721E+02
 -0.10606  0.34121817E-27  0.15031145E+02  0.16590243E+02
 -0.09596  0.32653068E-27  0.15039924E+02  0.16596258E+02
 -0.08586  0.31145081E-27  0.15039905E+02  0.16592477E+02
 -0.07576  0.29653785E-27  0.15043182E+02  0.16592445E+02
 -0.06566  0.28168802E-27  0.15046644E+02  0.16592682E+02
 -0.05556  0.26692695E-27  0.15050146E+02  0.16593027E+02
 -0.04545  0.25228488E-27  0.15053650E+02  0.16593440E+02
 -0.03535  0.23779284E-27  0.15057138E+02  0.16593901E+02
 -0.02525  0.22348198E-27  0.15060597E+02  0.16594399E+02
 -0.01515  0.20938333E-27  0.15064017E+02  0.16594925E+02
 -0.00505  0.19552770E-27  0.15067391E+02  0.16595470E+02
  0.00505  0.18194555E-27  0.15070708E+02  0.16596029E+02
  0.01515  0.16866698E-27  0.15073963E+02  0.16596594E+02
  0.02525  0.15572159E-27  0.15077147E+02  0.16597158E+02
  0.03535  0.14313847E-27  0.15080253E+02  0.16597715E+02
  0.04545  0.13094612E-27  0.15083274E+02  0.16598259E+02
  0.05556  0.11917237E-27  0.15086203E+02  0.16598784E+02
  0.06566  0.10784434E-27  0.15089032E+02  0.16599283E+02
  0.07576  0.96988389E-28  0.15091755E+02  0.16599751E+02
  0.08586  0.86630046E-28  0.15094364E+02  0.16600181E+02
  0.09596  0.76793957E-28  0.15096853E+02  0.16600567E+02
  0.10606  0.67503841E-28  0.15099216E+02  0.16600904E+02
  0.11616  0.58782436E-28  0.15101444E+02  0.16601185E+02
  0.12626  0.50651451E-28  0.15103533E+02  0.16601406E+02
  0.13636  0.43131525E-28  0.15105475E+02  0.16601559E+02
  0.14646  0.36242178E-28  0.15107264E+02  0.16601640E+02
  0.15657  0.30001777E-28  0.15108894E+02  0.16601643E+02
  0.16667  0.24427496E-28  0.15110358E+02  0.16601562E+02
  0.17677  0.19535277E-28  0.15111649E+02  0.16601392E+02
  0.18687  0.15339804E-28  0.15112763E+02  0.16601127E+02
  0.19697  0.11854469E-28  0.15113693E+02  0.16600761E+02
  0.20707  0.90913468E-29  0.15114432E+02  0.16600290E+02
  0.21717  0.70611689E-29  0.15114975E+02  0.16599709E+02
  0.22727  0.57733042E-29  0.15115316E+02  0.16599011E+02
  0.23737  0.52357399E-29  0.15115450E+02  0.16598192E+02
  0.24747  0.54550663E-29  0.15115370E+02  0.16597246E+02
  0.25758  0.64364638E-29  0.15115072E+02  0.16596170E+02
  0.26768  0.81836945E-29  0.15114549E+02  0.16594956E+02
  0.27778  0.10699095E-28  0.15113797E+02  0.16593602E+02
  0.28788  0.13983572E-28  0.15112809E+02  0.16592101E+02
  0.29798  0.18036604E-28  0.15111582E+02  0.16590449E+02
  0.30808  0.22856244E-28  0.15110109E+02  0.16588642E+02
  0.31818  0.28439122E-28  0.15108386E+02  0.16586674E+02
  0.32828  0.34780455E-28  0.15106408E+02  0.16584542E+02
  0.33838  0.41874060E-28  0.15104170E+02  0.16582240E+02
  0.34848  0.49712366E-28  0.15101668E+02  0.16579764E+02
  0.35859  0.58286431E-28  0.15098896E+02  0.16577110E+02
  0.36869  0.67585964E-28  0.15095850E+02  0.16574274E+02
  0.37879  0.77599343E-28  0.15092526E+02  0.16571251E+02
  0.38889  0.88313646E-28  0.15088920E+02  0.16568037E+02
  0.39899  0.99714673E-28  0.15085027E+02  0.16564629E+02
  0.40909  0.11178698E-27  0.15080844E+02  0.16561022E+02
  0.41919  0.12451391E-27  0.15076366E+02  0.16557212E+02
  0.42929  0.13787763E-27  0.15071589E+02  0.16553196E+02
  0.43939  0.15185916E-27  0.15066509E+02  0.16548970E+02
  0.44949  0.16643842E-27  0.15061124E+02  0.16544530E+02
  0.45960  0.18159428E-27  0.15055429E+02  0.16539872E+02
  0.46970  0.19730456E-27  0.15049421E+02  0.16534994E+02
  0.47980  0.21354616E-27  0.15043097E+02  0.16529891E+02
  0.48990  0.23029500E-27  0.15036453E+02  0.16524561E+02
  0.50000  0.24752616E-27  0.15029486E+02  0.16519000E+02
 Transport for spin ->  1  , kxy-point ->   7, of Node     0
           kxy=(0.427 -.246 0.000 ),w= 0.0156
    E           T(E)            TotDOS         PDOS
 -0.50000  0.59306596E-28  0.12795631E+02  0.81077275E+01
 -0.48990  0.57379554E-28  0.12772597E+02  0.80949023E+01
 -0.47980  0.55416536E-28  0.12750131E+02  0.80822557E+01
 -0.46970  0.53422008E-28  0.12728222E+02  0.80697842E+01
 -0.45960  0.51400577E-28  0.12706862E+02  0.80574847E+01
 -0.44949  0.49356995E-28  0.12686044E+02  0.80453540E+01
 -0.43939  0.47296143E-28  0.12665758E+02  0.80333894E+01
 -0.42929  0.45223034E-28  0.12645998E+02  0.80215884E+01
 -0.41919  0.43142801E-28  0.12626757E+02  0.80099485E+01
 -0.40909  0.41060695E-28  0.12608026E+02  0.79984675E+01
 -0.39899  0.38982075E-28  0.12589801E+02  0.79871432E+01
 -0.38889  0.36912404E-28  0.12572074E+02  0.79759737E+01
 -0.37879  0.34857239E-28  0.12554839E+02  0.79649572E+01
 -0.36869  0.32822228E-28  0.12538091E+02  0.79540921E+01
 -0.35859  0.30813100E-28  0.12521823E+02  0.79433768E+01
 -0.34848  0.28835656E-28  0.12506031E+02  0.79328099E+01
 -0.33838  0.26895768E-28  0.12490709E+02  0.79223900E+01
 -0.32828  0.24999362E-28  0.12475851E+02  0.79121160E+01
 -0.31818  0.23152418E-28  0.12461454E+02  0.79019867E+01
 -0.30808  0.21360956E-28  0.12447512E+02  0.78920010E+01
 -0.29798  0.19631035E-28  0.12434021E+02  0.78821581E+01
 -0.28788  0.17968734E-28  0.12420977E+02  0.78724571E+01
 -0.27778  0.16380155E-28  0.12408374E+02  0.78628971E+01
 -0.26768  0.14871407E-28  0.12396209E+02  0.78534776E+01
 -0.25758  0.13448599E-28  0.12384478E+02  0.78441977E+01
 -0.24747  0.12117832E-28  0.12373177E+02  0.78350570E+01
 -0.23737  0.10885191E-28  0.12362302E+02  0.78260548E+01
 -0.22727  0.97567347E-29  0.12351849E+02  0.78171908E+01
 -0.21717  0.87384857E-29  0.12341815E+02  0.78084645E+01
 -0.20707  0.78364241E-29  0.12332196E+02  0.77998754E+01
 -0.19697  0.70564767E-29  0.12322989E+02  0.77914234E+01
 -0.18687  0.64045085E-29  0.12314190E+02  0.77831081E+01
 -0.17677  0.58863135E-29  0.12305797E+02  0.77749293E+01
 -0.16667  0.55076061E-29  0.12297805E+02  0.77668866E+01
 -0.15657  0.52740117E-29  0.12290212E+02  0.77589801E+01
 -0.14646  0.51910577E-29  0.12283014E+02  0.77512094E+01
 -0.13636  0.52641651E-29  0.12276209E+02  0.77435746E+01
 -0.12626  0.54986389E-29  0.12269793E+02  0.77360755E+01
 -0.11616  0.58996600E-29  0.12263764E+02  0.77287121E+01
 -0.10606  0.64722758E-29  0.12258119E+02  0.77214842E+01
 -0.09596  0.72213921E-29  0.12252854E+02  0.77143920E+01
 -0.08586  0.81517645E-29  0.12247967E+02  0.77074354E+01
 -0.07576  0.92679895E-29  0.12243456E+02  0.77006144E+01
 -0.06566  0.10574497E-28  0.12239317E+02  0.76939291E+01
 -0.05556  0.12075541E-28  0.12235547E+02  0.76873796E+01
 -0.04545  0.13775193E-28  0.12232145E+02  0.76809658E+01
 -0.03535  0.15677333E-28  0.12229107E+02  0.76746879E+01
 -0.02525  0.17785643E-28  0.12226431E+02  0.76685460E+01
 -0.01515  0.20103598E-28  0.12224113E+02  0.76625402E+01
 -0.00505  0.22634458E-28  0.12222153E+02  0.76566705E+01
  0.00505  0.25381267E-28  0.12220546E+02  0.76509372E+01
  0.01515  0.28346836E-28  0.12219290E+02  0.76453403E+01
  0.02525  0.31533746E-28  0.12218383E+02  0.76398800E+01
  0.03535  0.34944335E-28  0.12217822E+02  0.76345565E+01
  0.04545  0.38580695E-28  0.12217605E+02  0.76293698E+01
  0.05556  0.42444666E-28  0.12217729E+02  0.76243200E+01
  0.06566  0.46537830E-28  0.12218191E+02  0.76194075E+01
  0.07576  0.50861503E-28  0.12218990E+02  0.76146322E+01
  0.08586  0.55416736E-28  0.12220122E+02  0.76099944E+01
  0.09596  0.60204302E-28  0.12221585E+02  0.76054942E+01
  0.10606  0.65224702E-28  0.12223377E+02  0.76011318E+01
  0.11616  0.70478148E-28  0.12225494E+02  0.75969072E+01
  0.12626  0.75964572E-28  0.12227935E+02  0.75928206E+01
  0.13636  0.81683614E-28  0.12230697E+02  0.75888722E+01
  0.14646  0.87634619E-28  0.12233777E+02  0.75850620E+01
  0.15657  0.93816642E-28  0.12237172E+02  0.75813902E+01
  0.16667  0.10022843E-27  0.12240881E+02  0.75778569E+01
  0.17677  0.10686845E-27  0.12244900E+02  0.75744621E+01
  0.18687  0.11373483E-27  0.12249228E+02  0.75712060E+01
  0.19697  0.12082544E-27  0.12253860E+02  0.75680884E+01
  0.20707  0.12813780E-27  0.12258794E+02  0.75651094E+01
  0.21717  0.13566915E-27  0.12264028E+02  0.75622687E+01
  0.22727  0.14341639E-27  0.12269557E+02  0.75595663E+01
  0.23737  0.15137614E-27  0.12275379E+02  0.75570013E+01
  0.24747  0.15954465E-27  0.12281489E+02  0.75545727E+01
  0.25758  0.16791781E-27  0.12287878E+02  0.75522781E+01
  0.26768  0.17649102E-27  0.12294536E+02  0.75501114E+01
  0.27778  0.18525865E-27  0.12301425E+02  0.75480535E+01
  0.28788  0.19420986E-27  0.12308353E+02  0.75459941E+01
  0.29798  0.20349025E-27  0.12320097E+02  0.75467123E+01
  0.30808  0.21272188E-27  0.12324849E+02  0.75433429E+01
  0.31818  0.22221867E-27  0.12332736E+02  0.75417778E+01
  0.32828  0.23188866E-27  0.12341035E+02  0.75404334E+01
  0.33838  0.24172238E-27  0.12349641E+02  0.75392514E+01
  0.34848  0.25171253E-27  0.12358529E+02  0.75382189E+01
  0.35859  0.26185200E-27  0.12367689E+02  0.75373312E+01
  0.36869  0.27213354E-27  0.12377115E+02  0.75365864E+01
  0.37879  0.28254972E-27  0.12386802E+02  0.75359835E+01
  0.38889  0.29309285E-27  0.12396746E+02  0.75355217E+01
  0.39899  0.30375503E-27  0.12406945E+02  0.75352006E+01
  0.40909  0.31452811E-27  0.12417394E+02  0.75350201E+01
  0.41919  0.32540370E-27  0.12428090E+02  0.75349799E+01
  0.42929  0.33637322E-27  0.12439031E+02  0.75350798E+01
  0.43939  0.34742784E-27  0.12450213E+02  0.75353196E+01
  0.44949  0.35855853E-27  0.12461634E+02  0.75356992E+01
  0.45960  0.36975608E-27  0.12473291E+02  0.75362184E+01
  0.46970  0.38101106E-27  0.12485179E+02  0.75368771E+01
  0.47980  0.39231388E-27  0.12497298E+02  0.75376750E+01
  0.48990  0.40365476E-27  0.12509642E+02  0.75386120E+01
  0.50000  0.41502376E-27  0.12522210E+02  0.75396880E+01
 Transport for spin ->  1  , kxy-point ->   8, of Node     0
           kxy=(0.569 -.328 0.000 ),w= 0.0156
    E           T(E)            TotDOS         PDOS
 -0.50000  0.16552267E-32  0.10262352E+02  0.10262352E+02
 -0.48990  0.16819224E-32  0.10333360E+02  0.10333360E+02
 -0.47980  0.17090566E-32  0.10403205E+02  0.10403205E+02
 -0.46970  0.17366488E-32  0.10471934E+02  0.10471934E+02
 -0.45960  0.17647190E-32  0.10539596E+02  0.10539596E+02
 -0.44949  0.17932879E-32  0.10606235E+02  0.10606235E+02
 -0.43939  0.18223771E-32  0.10671896E+02  0.10671896E+02
 -0.42929  0.18520095E-32  0.10736622E+02  0.10736622E+02
 -0.41919  0.18822092E-32  0.10800457E+02  0.10800457E+02
 -0.40909  0.19130017E-32  0.10863441E+02  0.10863441E+02
 -0.39899  0.19444145E-32  0.10925616E+02  0.10925616E+02
 -0.38889  0.19764773E-32  0.10987023E+02  0.10987023E+02
 -0.37879  0.20092224E-32  0.11047701E+02  0.11047701E+02
 -0.36869  0.20426849E-32  0.11107690E+02  0.11107690E+02
 -0.35859  0.20769038E-32  0.11167030E+02  0.11167030E+02
 -0.34848  0.21119219E-32  0.11225759E+02  0.11225759E+02
 -0.33838  0.21477873E-32  0.11283918E+02  0.11283918E+02
 -0.32828  0.21845537E-32  0.11341546E+02  0.11341546E+02
 -0.31818  0.22222815E-32  0.11398682E+02  0.11398682E+02
 -0.30808  0.22610395E-32  0.11455365E+02  0.11455365E+02
 -0.29798  0.23009061E-32  0.11511637E+02  0.11511637E+02
 -0.28788  0.23419708E-32  0.11567539E+02  0.11567539E+02
 -0.27778  0.23843370E-32  0.11623111E+02  0.11623111E+02
 -0.26768  0.24281246E-32  0.11678395E+02  0.11678395E+02
 -0.25758  0.24734729E-32  0.11733436E+02  0.11733436E+02
 -0.24747  0.25205455E-32  0.11788276E+02  0.11788276E+02
 -0.23737  0.25695347E-32  0.11842962E+02  0.11842962E+02
 -0.22727  0.26206689E-32  0.11897539E+02  0.11897539E+02
 -0.21717  0.26742206E-32  0.11952056E+02  0.11952056E+02
 -0.20707  0.27305173E-32  0.12006561E+02  0.12006561E+02
 -0.19697  0.27899556E-32  0.12061108E+02  0.12061108E+02
 -0.18687  0.28530206E-32  0.12115747E+02  0.12115747E+02
 -0.17677  0.29203100E-32  0.12170536E+02  0.12170536E+02
 -0.16667  0.29925690E-32  0.12225531E+02  0.12225531E+02
 -0.15657  0.30707373E-32  0.12280793E+02  0.12280793E+02
 -0.14646  0.31560157E-32  0.12336384E+02  0.12336384E+02
 -0.13636  0.32499624E-32  0.12392370E+02  0.12392370E+02
 -0.12626  0.33546347E-32  0.12448821E+02  0.12448821E+02
 -0.11616  0.34728047E-32  0.12505808E+02  0.12505808E+02
 -0.10606  0.36082990E-32  0.12563409E+02  0.12563409E+02
 -0.09596  0.37665525E-32  0.12621704E+02  0.12621704E+02
 -0.08586  0.39555579E-32  0.12680778E+02  0.12680778E+02
 -0.07576  0.41875865E-32  0.12740721E+02  0.12740721E+02
 -0.06566  0.44825406E-32  0.12801631E+02  0.12801631E+02
 -0.05556  0.48751153E-32  0.12863608E+02  0.12863608E+02
 -0.04545  0.54321369E-32  0.12926767E+02  0.12926767E+02
 -0.03535  0.63028359E-32  0.12991230E+02  0.12991230E+02
 -0.02525  0.79137879E-32  0.13057157E+02  0.13057157E+02
 -0.01515  0.12343893E-31  0.13124850E+02  0.13124850E+02
 -0.00505  0.88842952E-29  0.13948633E+02  0.13948633E+02
  0.00505  0.18588037E-28  0.15027652E+02  0.15027652E+02
  0.01515  0.22251681E-28  0.15704825E+02  0.15704825E+02
  0.02525  0.23655087E-28  0.16251301E+02  0.16251301E+02
  0.03535  0.23763366E-28  0.16726055E+02  0.16726055E+02
  0.04545  0.23046815E-28  0.17154176E+02  0.17154176E+02
  0.05556  0.21791759E-28  0.17549230E+02  0.17549230E+02
  0.06566  0.20193472E-28  0.17919613E+02  0.17919613E+02
  0.07576  0.18393823E-28  0.18270999E+02  0.18270999E+02
  0.08586  0.16499476E-28  0.18607484E+02  0.18607484E+02
  0.09596  0.14591815E-28  0.18932175E+02  0.18932175E+02
  0.10606  0.12732861E-28  0.19247526E+02  0.19247526E+02
  0.11616  0.10969094E-28  0.19555545E+02  0.19555545E+02
  0.12626  0.93341071E-29  0.19857927E+02  0.19857927E+02
  0.13636  0.78505874E-29  0.20156139E+02  0.20156139E+02
  0.14646  0.65319229E-29  0.20451484E+02  0.20451484E+02
  0.15657  0.53835996E-29  0.20745145E+02  0.20745145E+02
  0.16667  0.44045070E-29  0.21038216E+02  0.21038216E+02
  0.17677  0.35882245E-29  0.21331733E+02  0.21331733E+02
  0.18687  0.29243409E-29  0.21626688E+02  0.21626688E+02
  0.19697  0.23998404E-29  0.21924050E+02  0.21924050E+02
  0.20707  0.20005763E-29  0.22224779E+02  0.22224779E+02
  0.21717  0.17128460E-29  0.22529844E+02  0.22529844E+02
  0.22727  0.15250646E-29  0.22840244E+02  0.22840244E+02
  0.23737  0.14295316E-29  0.23157049E+02  0.23157049E+02
  0.24747  0.14242718E-29  0.23481507E+02  0.23481507E+02
  0.25758  0.15149447E-29  0.23815459E+02  0.23815459E+02
  0.26768  0.17170503E-29  0.24164387E+02  0.24164387E+02
  0.27778  0.20240819E-29  0.24258391E+02  0.24258391E+02
  0.28788  0.25648286E-29  0.24845582E+02  0.24845582E+02
  0.29798  0.33078315E-29  0.25226910E+02  0.25226910E+02
  0.30808  0.43465227E-29  0.25617240E+02  0.25617240E+02
  0.31818  0.57641315E-29  0.26021194E+02  0.26021194E+02
  0.32828  0.76581672E-29  0.26440751E+02  0.26440751E+02
  0.33838  0.10139187E-28  0.26877456E+02  0.26877456E+02
  0.34848  0.13328131E-28  0.27332745E+02  0.27332745E+02
  0.35859  0.17352182E-28  0.27808029E+02  0.27808029E+02
  0.36869  0.22338954E-28  0.28304707E+02  0.28304707E+02
  0.37879  0.28408828E-28  0.28824165E+02  0.28824165E+02
  0.38889  0.35665288E-28  0.29367759E+02  0.29367759E+02
  0.39899  0.44183251E-28  0.29936794E+02  0.29936794E+02
  0.40909  0.53995518E-28  0.30532493E+02  0.30532493E+02
  0.41919  0.65077679E-28  0.31155956E+02  0.31155956E+02
  0.42929  0.77332142E-28  0.31808116E+02  0.31808116E+02
  0.43939  0.90572271E-28  0.32489683E+02  0.32489683E+02
  0.44949  0.10450807E-27  0.33201071E+02  0.33201071E+02
  0.45960  0.11873539E-27  0.33942328E+02  0.33942328E+02
  0.46970  0.13273095E-27  0.34713048E+02  0.34713048E+02
  0.47980  0.14585615E-27  0.35512272E+02  0.35512272E+02
  0.48990  0.15737264E-27  0.36338390E+02  0.36338390E+02
  0.50000  0.16647268E-27  0.37189034E+02  0.37189034E+02
 Transport for spin ->  1  , kxy-point ->   9, of Node     0
           kxy=(-.427 0.410 0.000 ),w= 0.0312
    E           T(E)            TotDOS         PDOS
 -0.50000  0.54666664E-32  0.32186341E+02  0.24454112E+02
 -0.48990  0.53922822E-32  0.31656047E+02  0.23970392E+02
 -0.47980  0.52992904E-32  0.31115033E+02  0.23484209E+02
 -0.46970  0.51901012E-32  0.30567430E+02  0.22998517E+02
 -0.45960  0.50672319E-32  0.30016815E+02  0.22515811E+02
 -0.44949  0.49331885E-32  0.29466225E+02  0.22038148E+02
 -0.43939  0.47903736E-32  0.28918158E+02  0.21567166E+02
 -0.42929  0.46410167E-32  0.28374548E+02  0.21104068E+02
 -0.41919  0.44871044E-32  0.27836609E+02  0.20649520E+02
 -0.40909  0.43302292E-32  0.27304014E+02  0.20203044E+02
 -0.39899  0.41705522E-32  0.26768204E+02  0.19758106E+02
 -0.38889  0.40596041E-32  0.26557052E+02  0.19555980E+02
 -0.37879  0.38690081E-32  0.25825204E+02  0.18973781E+02
 -0.36869  0.37153067E-32  0.25327007E+02  0.18566926E+02
 -0.35859  0.35665737E-32  0.24848641E+02  0.18177720E+02
 -0.34848  0.34226191E-32  0.24384288E+02  0.17801686E+02
 -0.33838  0.32838398E-32  0.23932715E+02  0.17437732E+02
 -0.32828  0.31506500E-32  0.23493459E+02  0.17085345E+02
 -0.31818  0.30234060E-32  0.23066241E+02  0.16744160E+02
 -0.30808  0.29023966E-32  0.22650828E+02  0.16413851E+02
 -0.29798  0.27878494E-32  0.22246982E+02  0.16094103E+02
 -0.28788  0.26799400E-32  0.21854460E+02  0.15784603E+02
 -0.27778  0.25788017E-32  0.21473001E+02  0.15485035E+02
 -0.26768  0.24845351E-32  0.21102334E+02  0.15195081E+02
 -0.25758  0.23972168E-32  0.20742179E+02  0.14914428E+02
 -0.24747  0.23169076E-32  0.20392248E+02  0.14642762E+02
 -0.23737  0.22436605E-32  0.20052253E+02  0.14379775E+02
 -0.22727  0.21775272E-32  0.19721901E+02  0.14125162E+02
 -0.21717  0.21185652E-32  0.19400902E+02  0.13878628E+02
 -0.20707  0.20668446E-32  0.19088969E+02  0.13639881E+02
 -0.19697  0.20224538E-32  0.18785817E+02  0.13408642E+02
 -0.18687  0.19855072E-32  0.18491167E+02  0.13184634E+02
 -0.17677  0.19561514E-32  0.18204745E+02  0.12967595E+02
 -0.16667  0.19345727E-32  0.17926286E+02  0.12757267E+02
 -0.15657  0.19210057E-32  0.17655529E+02  0.12553404E+02
 -0.14646  0.19157423E-32  0.17392221E+02  0.12355767E+02
 -0.13636  0.19191423E-32  0.17136116E+02  0.12164126E+02
 -0.12626  0.19316461E-32  0.16886979E+02  0.11978260E+02
 -0.11616  0.19537893E-32  0.16644577E+02  0.11797957E+02
 -0.10606  0.19862205E-32  0.16408689E+02  0.11623013E+02
 -0.09596  0.20297231E-32  0.16179101E+02  0.11453231E+02
 -0.08586  0.20852418E-32  0.15955605E+02  0.11288422E+02
 -0.07576  0.21539159E-32  0.15738000E+02  0.11128407E+02
 -0.06566  0.22371206E-32  0.15526094E+02  0.10973011E+02
 -0.05556  0.23365198E-32  0.15319702E+02  0.10822068E+02
 -0.04545  0.24541335E-32  0.15118644E+02  0.10675418E+02
 -0.03535  0.25924247E-32  0.14922749E+02  0.10532908E+02
 -0.02525  0.27544138E-32  0.14731849E+02  0.10394392E+02
 -0.01515  0.29438292E-32  0.14545787E+02  0.10259729E+02
 -0.00505  0.31653105E-32  0.14364408E+02  0.10128782E+02
  0.00505  0.34246839E-32  0.14187564E+02  0.10001424E+02
  0.01515  0.37293445E-32  0.14015113E+02  0.98775304E+01
  0.02525  0.40887951E-32  0.13846919E+02  0.97569814E+01
  0.03535  0.45154200E-32  0.13682850E+02  0.96396636E+01
  0.04545  0.50256253E-32  0.13522780E+02  0.95254677E+01
  0.05556  0.56415604E-32  0.13366589E+02  0.94142893E+01
  0.06566  0.63938013E-32  0.13214159E+02  0.93060283E+01
  0.07576  0.73256793E-32  0.13065379E+02  0.92005893E+01
  0.08586  0.85005716E-32  0.12920143E+02  0.90978816E+01
  0.09596  0.10014819E-31  0.12778351E+02  0.89978190E+01
  0.10606  0.12022104E-31  0.12639906E+02  0.89003213E+01
  0.11616  0.14783303E-31  0.12504724E+02  0.88053151E+01
  0.12626  0.18779777E-31  0.12372729E+02  0.87127378E+01
  0.13636  0.25011566E-31  0.12243871E+02  0.86225481E+01
  0.14646  0.35977175E-31  0.12118162E+02  0.85347585E+01
  0.15657  0.60429973E-31  0.11995863E+02  0.84495972E+01
  0.16667  0.18235108E-30  0.11880183E+02  0.83698499E+01
  0.17677  0.17520065E-27  0.18608163E+02  0.14211602E+02
  0.18687  0.27208265E-27  0.22316938E+02  0.17401635E+02
  0.19697  0.34055757E-27  0.24973294E+02  0.19660086E+02
  0.20707  0.39462983E-27  0.27143791E+02  0.21482335E+02
  0.21717  0.43870006E-27  0.29016960E+02  0.23033973E+02
  0.22727  0.47472820E-27  0.30682955E+02  0.24394551E+02
  0.23737  0.50376166E-27  0.32192759E+02  0.25609290E+02
  0.24747  0.52645887E-27  0.33578092E+02  0.26706518E+02
  0.25758  0.54331823E-27  0.34859850E+02  0.27705069E+02
  0.26768  0.55479448E-27  0.36052232E+02  0.28617927E+02
  0.27778  0.56136344E-27  0.37164981E+02  0.29454190E+02
  0.28788  0.56355839E-27  0.38204681E+02  0.30220237E+02
  0.29798  0.56198830E-27  0.39175565E+02  0.30920444E+02
  0.30808  0.55734219E-27  0.40080042E+02  0.31557663E+02
  0.31818  0.55038172E-27  0.40919069E+02  0.32133553E+02
  0.32828  0.54192282E-27  0.41692423E+02  0.32648842E+02
  0.33838  0.53280748E-27  0.42398938E+02  0.33103528E+02
  0.34848  0.52386680E-27  0.43036719E+02  0.33497073E+02
  0.35859  0.51587755E-27  0.43603355E+02  0.33828583E+02
  0.36869  0.50951547E-27  0.44096147E+02  0.34097004E+02
  0.37879  0.50530963E-27  0.44512361E+02  0.34301308E+02
  0.38889  0.50360319E-27  0.44849485E+02  0.34440702E+02
  0.39899  0.50452586E-27  0.45105501E+02  0.34514819E+02
  0.40909  0.50798290E-27  0.45279135E+02  0.34523895E+02
  0.41919  0.51366358E-27  0.45370079E+02  0.34468917E+02
  0.42929  0.52106952E-27  0.45379155E+02  0.34351718E+02
  0.43939  0.52955989E-27  0.45308399E+02  0.34175007E+02
  0.44949  0.53840819E-27  0.45161056E+02  0.33942339E+02
  0.45960  0.54686327E-27  0.44941496E+02  0.33658017E+02
  0.46970  0.55420709E-27  0.44655046E+02  0.33326949E+02
  0.47980  0.55980299E-27  0.44307773E+02  0.32954460E+02
  0.48990  0.56313054E-27  0.43906240E+02  0.32546107E+02
  0.50000  0.56380528E-27  0.43457254E+02  0.32107487E+02
 Transport for spin ->  1  , kxy-point ->  10, of Node     0
           kxy=(-.284 0.328 0.000 ),w= 0.0312
    E           T(E)            TotDOS         PDOS
 -0.50000  0.33983092E-28  0.15337789E+02  0.14289750E+02
 -0.48990  0.30417282E-28  0.15304199E+02  0.14262298E+02
 -0.47980  0.26988940E-28  0.15271508E+02  0.14235328E+02
 -0.46970  0.23715684E-28  0.15239700E+02  0.14208831E+02
 -0.45960  0.20615101E-28  0.15208758E+02  0.14182797E+02
 -0.44949  0.17704711E-28  0.15178667E+02  0.14157216E+02
 -0.43939  0.15001918E-28  0.15149412E+02  0.14132080E+02
 -0.42929  0.12523979E-28  0.15120980E+02  0.14107381E+02
 -0.41919  0.10287954E-28  0.15093356E+02  0.14083110E+02
 -0.40909  0.83106688E-29  0.15066528E+02  0.14059261E+02
 -0.39899  0.66086737E-29  0.15040483E+02  0.14035825E+02
 -0.38889  0.51982035E-29  0.15015209E+02  0.14012795E+02
 -0.37879  0.40951368E-29  0.14990693E+02  0.13990166E+02
 -0.36869  0.33149564E-29  0.14966924E+02  0.13967931E+02
 -0.35859  0.28727109E-29  0.14943892E+02  0.13946084E+02
 -0.34848  0.27829756E-29  0.14921584E+02  0.13924619E+02
 -0.33838  0.30598157E-29  0.14899992E+02  0.13903531E+02
 -0.32828  0.37167492E-29  0.14879104E+02  0.13882813E+02
 -0.31818  0.47667112E-29  0.14858910E+02  0.13862462E+02
 -0.30808  0.62220194E-29  0.14839402E+02  0.13842472E+02
 -0.29798  0.80943404E-29  0.14820569E+02  0.13822838E+02
 -0.28788  0.10394657E-28  0.14802402E+02  0.13803556E+02
 -0.27778  0.13133238E-28  0.14784893E+02  0.13784621E+02
 -0.26768  0.16319605E-28  0.14768033E+02  0.13766030E+02
 -0.25758  0.19962511E-28  0.14751812E+02  0.13747777E+02
 -0.24747  0.24069905E-28  0.14736223E+02  0.13729860E+02
 -0.23737  0.28648913E-28  0.14721258E+02  0.13712274E+02
 -0.22727  0.33705811E-28  0.14706908E+02  0.13695016E+02
 -0.21717  0.39246003E-28  0.14693166E+02  0.13678082E+02
 -0.20707  0.45274005E-28  0.14680024E+02  0.13661470E+02
 -0.19697  0.51793422E-28  0.14667475E+02  0.13645175E+02
 -0.18687  0.58806937E-28  0.14655513E+02  0.13629196E+02
 -0.17677  0.66316304E-28  0.14644131E+02  0.13613531E+02
 -0.16667  0.74322351E-28  0.14633326E+02  0.13598180E+02
 -0.15657  0.82825037E-28  0.14623103E+02  0.13583150E+02
 -0.14646  0.91823827E-28  0.14613498E+02  0.13568478E+02
 -0.13636  0.10132487E-27  0.14605076E+02  0.13554677E+02
 -0.12626  0.11128336E-27  0.14594962E+02  0.13539160E+02
 -0.11616  0.12175353E-27  0.14587169E+02  0.13525545E+02
 -0.10606  0.13270101E-27  0.14579679E+02  0.13512017E+02
 -0.09596  0.14412231E-27  0.14572667E+02  0.13498738E+02
 -0.08586  0.15601069E-27  0.14566153E+02  0.13485729E+02
 -0.07576  0.16835814E-27  0.14560137E+02  0.13472994E+02
 -0.06566  0.18115559E-27  0.14554617E+02  0.13460533E+02
 -0.05556  0.19439299E-27  0.14549587E+02  0.13448345E+02
 -0.04545  0.20805930E-27  0.14545041E+02  0.13436428E+02
 -0.03535  0.22214254E-27  0.14540973E+02  0.13424780E+02
 -0.02525  0.23662980E-27  0.14537377E+02  0.13413398E+02
 -0.01515  0.25150721E-27  0.14534247E+02  0.13402280E+02
 -0.00505  0.26676004E-27  0.14531575E+02  0.13391424E+02
  0.00505  0.28237266E-27  0.14529357E+02  0.13380827E+02
  0.01515  0.29832858E-27  0.14527584E+02  0.13370486E+02
  0.02525  0.31461049E-27  0.14526251E+02  0.13360400E+02
  0.03535  0.33120026E-27  0.14525352E+02  0.13350565E+02
  0.04545  0.34807898E-27  0.14524881E+02  0.13340980E+02
  0.05556  0.36522699E-27  0.14524830E+02  0.13331641E+02
  0.06566  0.38262391E-27  0.14525193E+02  0.13322546E+02
  0.07576  0.40024869E-27  0.14525964E+02  0.13313693E+02
  0.08586  0.41807958E-27  0.14527137E+02  0.13305080E+02
  0.09596  0.43609427E-27  0.14528706E+02  0.13296703E+02
  0.10606  0.45426982E-27  0.14530663E+02  0.13288561E+02
  0.11616  0.47258278E-27  0.14533003E+02  0.13280650E+02
  0.12626  0.49100918E-27  0.14535719E+02  0.13272968E+02
  0.13636  0.50952458E-27  0.14538806E+02  0.13265514E+02
  0.14646  0.52810415E-27  0.14542255E+02  0.13258284E+02
  0.15657  0.54672264E-27  0.14546062E+02  0.13251275E+02
  0.16667  0.56535449E-27  0.14550220E+02  0.13244486E+02
  0.17677  0.58397385E-27  0.14554723E+02  0.13237913E+02
  0.18687  0.60255462E-27  0.14559563E+02  0.13231555E+02
  0.19697  0.62107050E-27  0.14564735E+02  0.13225408E+02
  0.20707  0.63949503E-27  0.14570233E+02  0.13219471E+02
  0.21717  0.65780167E-27  0.14576049E+02  0.13213740E+02
  0.22727  0.67596378E-27  0.14582178E+02  0.13208212E+02
  0.23737  0.69395475E-27  0.14588613E+02  0.13202886E+02
  0.24747  0.71174800E-27  0.14595348E+02  0.13197759E+02
  0.25758  0.72931701E-27  0.14602376E+02  0.13192828E+02
  0.26768  0.74663542E-27  0.14609691E+02  0.13188090E+02
  0.27778  0.76367704E-27  0.14617286E+02  0.13183543E+02
  0.28788  0.78041592E-27  0.14625155E+02  0.13179184E+02
  0.29798  0.79682639E-27  0.14633292E+02  0.13175010E+02
  0.30808  0.81288309E-27  0.14641689E+02  0.13171019E+02
  0.31818  0.82856105E-27  0.14650341E+02  0.13167208E+02
  0.32828  0.84383571E-27  0.14659241E+02  0.13163574E+02
  0.33838  0.85868298E-27  0.14668383E+02  0.13160115E+02
  0.34848  0.87307927E-27  0.14677759E+02  0.13156827E+02
  0.35859  0.88700157E-27  0.14687364E+02  0.13153708E+02
  0.36869  0.90042745E-27  0.14697191E+02  0.13150756E+02
  0.37879  0.91333512E-27  0.14707233E+02  0.13147966E+02
  0.38889  0.92570350E-27  0.14717483E+02  0.13145337E+02
  0.39899  0.93751220E-27  0.14727936E+02  0.13142865E+02
  0.40909  0.94874162E-27  0.14738585E+02  0.13140548E+02
  0.41919  0.95937294E-27  0.14749422E+02  0.13138383E+02
  0.42929  0.96938822E-27  0.14760442E+02  0.13136367E+02
  0.43939  0.97877035E-27  0.14771638E+02  0.13134496E+02
  0.44949  0.98750314E-27  0.14783002E+02  0.13132769E+02
  0.45960  0.99557138E-27  0.14794530E+02  0.13131181E+02
  0.46970  0.10029608E-26  0.14806213E+02  0.13129731E+02
  0.47980  0.10096581E-26  0.14818045E+02  0.13128414E+02
  0.48990  0.10156510E-26  0.14830020E+02  0.13127229E+02
  0.50000  0.10209285E-26  0.14842132E+02  0.13126171E+02
 Transport for spin ->  1  , kxy-point ->   1, of Node     1
           kxy=(-.142 0.246 0.000 ),w= 0.0313
    E           T(E)            TotDOS         PDOS
 -0.50000  0.38019002E-27  0.15629503E+02  0.18853201E+02
 -0.48990  0.36922859E-27  0.15613968E+02  0.18824130E+02
 -0.47980  0.35787463E-27  0.15598837E+02  0.18795508E+02
 -0.46970  0.34616211E-27  0.15584096E+02  0.18767323E+02
 -0.45960  0.33412610E-27  0.15569732E+02  0.18739566E+02
 -0.44949  0.32180263E-27  0.15555734E+02  0.18712225E+02
 -0.43939  0.30922865E-27  0.15542088E+02  0.18685290E+02
 -0.42929  0.29644187E-27  0.15528781E+02  0.18658747E+02
 -0.41919  0.28348064E-27  0.15515799E+02  0.18632587E+02
 -0.40909  0.27038388E-27  0.15503130E+02  0.18606796E+02
 -0.39899  0.25719088E-27  0.15490756E+02  0.18581360E+02
 -0.38889  0.24394119E-27  0.15478660E+02  0.18556261E+02
 -0.37879  0.23067434E-27  0.15466814E+02  0.18531470E+02
 -0.36869  0.21742905E-27  0.15455151E+02  0.18506917E+02
 -0.35859  0.20423667E-27  0.15443301E+02  0.18482190E+02
 -0.34848  0.19124847E-27  0.15435860E+02  0.18462441E+02
 -0.33838  0.17826980E-27  0.15423127E+02  0.18436802E+02
 -0.32828  0.16551499E-27  0.15412328E+02  0.18413373E+02
 -0.31818  0.15298515E-27  0.15401890E+02  0.18390395E+02
 -0.30808  0.14071601E-27  0.15391696E+02  0.18367739E+02
 -0.29798  0.12874460E-27  0.15381709E+02  0.18345366E+02
 -0.28788  0.11710756E-27  0.15371909E+02  0.18323255E+02
 -0.27778  0.10584085E-27  0.15362279E+02  0.18301392E+02
 -0.26768  0.94979487E-28  0.15352808E+02  0.18279764E+02
 -0.25758  0.84557520E-28  0.15343482E+02  0.18258360E+02
 -0.24747  0.74607870E-28  0.15334290E+02  0.18237170E+02
 -0.23737  0.65162272E-28  0.15325222E+02  0.18216183E+02
 -0.22727  0.56251185E-28  0.15316266E+02  0.18195390E+02
 -0.21717  0.47903724E-28  0.15307413E+02  0.18174780E+02
 -0.20707  0.40147583E-28  0.15298650E+02  0.18154345E+02
 -0.19697  0.33008978E-28  0.15289969E+02  0.18134075E+02
 -0.18687  0.26512578E-28  0.15281360E+02  0.18113961E+02
 -0.17677  0.20681460E-28  0.15272812E+02  0.18093993E+02
 -0.16667  0.15537048E-28  0.15264316E+02  0.18074163E+02
 -0.15657  0.11099077E-28  0.15255862E+02  0.18054462E+02
 -0.14646  0.73855440E-29  0.15247441E+02  0.18034881E+02
 -0.13636  0.44126793E-29  0.15239044E+02  0.18015412E+02
 -0.12626  0.21949118E-29  0.15230661E+02  0.17996046E+02
 -0.11616  0.74484456E-30  0.15222285E+02  0.17976774E+02
 -0.10606  0.73233780E-31  0.15213905E+02  0.17957589E+02
 -0.09596  0.18897320E-30  0.15205513E+02  0.17938482E+02
 -0.08586  0.10990830E-29  0.15197101E+02  0.17919445E+02
 -0.07576  0.28087038E-29  0.15188661E+02  0.17900471E+02
 -0.06566  0.53210953E-29  0.15180184E+02  0.17881552E+02
 -0.05556  0.86376396E-29  0.15171662E+02  0.17862679E+02
 -0.04545  0.12757850E-28  0.15163088E+02  0.17843847E+02
 -0.03535  0.17679381E-28  0.15154454E+02  0.17825046E+02
 -0.02525  0.23398050E-28  0.15145752E+02  0.17806270E+02
 -0.01515  0.29907853E-28  0.15136974E+02  0.17787512E+02
 -0.00505  0.37200996E-28  0.15128115E+02  0.17768765E+02
  0.00505  0.45267918E-28  0.15119166E+02  0.17750023E+02
  0.01515  0.54097331E-28  0.15110120E+02  0.17731277E+02
  0.02525  0.63676252E-28  0.15100972E+02  0.17712522E+02
  0.03535  0.73990048E-28  0.15091714E+02  0.17693751E+02
  0.04545  0.85022477E-28  0.15082339E+02  0.17674959E+02
  0.05556  0.96755737E-28  0.15072843E+02  0.17656138E+02
  0.06566  0.10917052E-27  0.15063218E+02  0.17637283E+02
  0.07576  0.12224606E-27  0.15053458E+02  0.17618388E+02
  0.08586  0.13596018E-27  0.15043558E+02  0.17599446E+02
  0.09596  0.15028939E-27  0.15033512E+02  0.17580453E+02
  0.10606  0.16520891E-27  0.15023315E+02  0.17561403E+02
  0.11616  0.18069273E-27  0.15012961E+02  0.17542291E+02
  0.12626  0.19671371E-27  0.15002445E+02  0.17523111E+02
  0.13636  0.21324362E-27  0.14991762E+02  0.17503858E+02
  0.14646  0.23025323E-27  0.14980907E+02  0.17484527E+02
  0.15657  0.24771234E-27  0.14969875E+02  0.17465114E+02
  0.16667  0.26558992E-27  0.14958662E+02  0.17445613E+02
  0.17677  0.28385412E-27  0.14947264E+02  0.17426020E+02
  0.18687  0.30247236E-27  0.14935676E+02  0.17406331E+02
  0.19697  0.32141145E-27  0.14923893E+02  0.17386541E+02
  0.20707  0.34063758E-27  0.14911913E+02  0.17366646E+02
  0.21717  0.36011648E-27  0.14899731E+02  0.17346643E+02
  0.22727  0.37981345E-27  0.14887343E+02  0.17326527E+02
  0.23737  0.39969344E-27  0.14874746E+02  0.17306294E+02
  0.24747  0.41972113E-27  0.14861937E+02  0.17285940E+02
  0.25758  0.43986102E-27  0.14848912E+02  0.17265463E+02
  0.26768  0.46007748E-27  0.14835668E+02  0.17244859E+02
  0.27778  0.48033484E-27  0.14822202E+02  0.17224125E+02
[...]
  0.17677  0.17516047E-27  0.18606665E+02  0.14322084E+02
  0.18687  0.27202864E-27  0.22314114E+02  0.17572036E+02
  0.19697  0.34049695E-27  0.24969607E+02  0.19872717E+02
  0.20707  0.39456729E-27  0.27139495E+02  0.21728776E+02
  0.21717  0.43863919E-27  0.29012232E+02  0.23308918E+02
  0.22727  0.47467185E-27  0.30677937E+02  0.24694206E+02
  0.23737  0.50371208E-27  0.32187571E+02  0.25930741E+02
  0.24747  0.52641773E-27  0.33572837E+02  0.27047417E+02
  0.25758  0.54328661E-27  0.34854620E+02  0.28063471E+02
  0.26768  0.55477288E-27  0.36047115E+02  0.28992182E+02
  0.27778  0.56135179E-27  0.37160056E+02  0.29842883E+02
  0.28788  0.56355607E-27  0.38200021E+02  0.30622141E+02
  0.29798  0.56199418E-27  0.39171238E+02  0.31334493E+02
  0.30808  0.55735472E-27  0.40076112E+02  0.31982929E+02
  0.31818  0.55039897E-27  0.40915590E+02  0.32569233E+02
  0.32828  0.54194266E-27  0.41689445E+02  0.33094239E+02
  0.33838  0.53282766E-27  0.42396504E+02  0.33558044E+02
  0.34848  0.52388511E-27  0.43034862E+02  0.33960195E+02
  0.35859  0.51589198E-27  0.43602099E+02  0.34299874E+02
  0.36869  0.50952431E-27  0.44095507E+02  0.34576086E+02
  0.37879  0.50531160E-27  0.44512340E+02  0.34787856E+02
  0.38889  0.50359752E-27  0.44850077E+02  0.34934421E+02
  0.39899  0.50451227E-27  0.45106687E+02  0.35015435E+02
  0.40909  0.50796161E-27  0.45280885E+02  0.35031137E+02
  0.41919  0.51363527E-27  0.45372354E+02  0.34982503E+02
  0.42929  0.52103518E-27  0.45381909E+02  0.34871340E+02
  0.43939  0.52952072E-27  0.45311576E+02  0.34700324E+02
  0.44949  0.53836550E-27  0.45164598E+02  0.34472966E+02
  0.45960  0.54681834E-27  0.44945341E+02  0.34193524E+02
  0.46970  0.55416108E-27  0.44659132E+02  0.33866857E+02
  0.47980  0.55975690E-27  0.44312039E+02  0.33498249E+02
  0.48990  0.56308515E-27  0.43910627E+02  0.33093216E+02
  0.50000  0.56376118E-27  0.43461709E+02  0.32657324E+02
 Transport for spin ->  1  , kxy-point ->   8, of Node     3
           kxy=(0.284 0.493 0.000 ),w= 0.0156
    E           T(E)            TotDOS         PDOS
 -0.50000  0.48342530E-32  0.27684936E+02  0.20428707E+02
 -0.48990  0.46972519E-32  0.27162345E+02  0.19962920E+02
 -0.47980  0.45582399E-32  0.26655148E+02  0.19512887E+02
 -0.46970  0.44179747E-32  0.26162730E+02  0.19077950E+02
 -0.45960  0.42771370E-32  0.25684394E+02  0.18657403E+02
 -0.44949  0.41363154E-32  0.25219249E+02  0.18250410E+02
 -0.43939  0.39959525E-32  0.24765843E+02  0.17855745E+02
 -0.42929  0.38561074E-32  0.24320595E+02  0.17470672E+02
 -0.41919  0.37144535E-32  0.23864700E+02  0.17081598E+02
 -0.40909  0.36305609E-32  0.23783721E+02  0.16963536E+02
 -0.39899  0.34637776E-32  0.23156542E+02  0.16458933E+02
 -0.38889  0.33320159E-32  0.22750145E+02  0.16115034E+02
 -0.37879  0.32053543E-32  0.22366761E+02  0.15790550E+02
 -0.36869  0.30827616E-32  0.21997434E+02  0.15478956E+02
 -0.35859  0.29641911E-32  0.21639841E+02  0.15178468E+02
 -0.34848  0.28497637E-32  0.21292942E+02  0.14888220E+02
 -0.33838  0.27396366E-32  0.20956092E+02  0.14607636E+02
 -0.32828  0.26339704E-32  0.20628806E+02  0.14336261E+02
 -0.31818  0.25329196E-32  0.20310684E+02  0.14073703E+02
 -0.30808  0.24366314E-32  0.20001370E+02  0.13819608E+02
 -0.29798  0.23452454E-32  0.19700538E+02  0.13573646E+02
 -0.28788  0.22588965E-32  0.19407884E+02  0.13335511E+02
 -0.27778  0.21777170E-32  0.19123125E+02  0.13104911E+02
 -0.26768  0.21018391E-32  0.18845989E+02  0.12881570E+02
 -0.25758  0.20313987E-32  0.18576219E+02  0.12665225E+02
 -0.24747  0.19665381E-32  0.18313569E+02  0.12455622E+02
 -0.23737  0.19074099E-32  0.18057803E+02  0.12252522E+02
 -0.22727  0.18541806E-32  0.17808695E+02  0.12055693E+02
 -0.21717  0.18070352E-32  0.17566030E+02  0.11864915E+02
 -0.20707  0.17661815E-32  0.17329598E+02  0.11679974E+02
 -0.19697  0.17318554E-32  0.17099201E+02  0.11500668E+02
 -0.18687  0.17043271E-32  0.16874647E+02  0.11326801E+02
 -0.17677  0.16839072E-32  0.16655750E+02  0.11158185E+02
 -0.16667  0.16709552E-32  0.16442335E+02  0.10994639E+02
 -0.15657  0.16658879E-32  0.16234228E+02  0.10835991E+02
 -0.14646  0.16691905E-32  0.16031268E+02  0.10682073E+02
 -0.13636  0.16814287E-32  0.15833294E+02  0.10532725E+02
 -0.12626  0.17032640E-32  0.15640156E+02  0.10387794E+02
 -0.11616  0.17354719E-32  0.15451706E+02  0.10247130E+02
 -0.10606  0.17789633E-32  0.15267802E+02  0.10110592E+02
 -0.09596  0.18348117E-32  0.15088310E+02  0.99780425E+01
 -0.08586  0.19042857E-32  0.14913097E+02  0.98493484E+01
 -0.07576  0.19888903E-32  0.14742038E+02  0.97243830E+01
 -0.06566  0.20904180E-32  0.14575010E+02  0.96030238E+01
 -0.05556  0.22110131E-32  0.14411896E+02  0.94851529E+01
 -0.04545  0.23532542E-32  0.14252583E+02  0.93706566E+01
 -0.03535  0.25202605E-32  0.14096961E+02  0.92594255E+01
 -0.02525  0.27158289E-32  0.13944926E+02  0.91513541E+01
 -0.01515  0.29446159E-32  0.13796376E+02  0.90463408E+01
 -0.00505  0.32123788E-32  0.13651212E+02  0.89442878E+01
  0.00505  0.35263019E-32  0.13509341E+02  0.88451007E+01
  0.01515  0.38954429E-32  0.13370672E+02  0.87486886E+01
  0.02525  0.43313564E-32  0.13235116E+02  0.86549641E+01
  0.03535  0.48489772E-32  0.13102589E+02  0.85638427E+01
  0.04545  0.54679021E-32  0.12973010E+02  0.84752435E+01
  0.05556  0.62142911E-32  0.12846301E+02  0.83890885E+01
  0.06566  0.71237661E-32  0.12722386E+02  0.83053029E+01
  0.07576  0.82459688E-32  0.12601193E+02  0.82238150E+01
  0.08586  0.96519921E-32  0.12482654E+02  0.81445569E+01
  0.09596  0.11447029E-31  0.12366706E+02  0.80674641E+01
  0.10606  0.13793044E-31  0.12253288E+02  0.79924773E+01
  0.11616  0.16952081E-31  0.12142349E+02  0.79195434E+01
  0.12626  0.21375945E-31  0.12033847E+02  0.78486194E+01
  0.13636  0.27912593E-31  0.11927764E+02  0.77796809E+01
  0.14646  0.38355847E-31  0.11824126E+02  0.77127448E+01
  0.15657  0.57266555E-31  0.11723095E+02  0.76479441E+01
  0.16667  0.10077146E-30  0.11625380E+02  0.75858875E+01
  0.17677  0.31015932E-30  0.11537516E+02  0.75322423E+01
  0.18687  0.36684392E-27  0.28983716E+02  0.22661870E+02
  0.19697  0.51924497E-27  0.37864782E+02  0.30225454E+02
  0.20707  0.59294428E-27  0.42898234E+02  0.34406799E+02
  0.21717  0.63856604E-27  0.46156874E+02  0.37031723E+02
  0.22727  0.67173270E-27  0.48348407E+02  0.38726578E+02
  0.23737  0.69885060E-27  0.49823729E+02  0.39802447E+02
  0.24747  0.72280228E-27  0.50788291E+02  0.40441407E+02
  0.25758  0.74489374E-27  0.51374568E+02  0.40760637E+02
  0.26768  0.76566530E-27  0.51673544E+02  0.40840366E+02
  0.27778  0.78527022E-27  0.51750553E+02  0.40737967E+02
  0.28788  0.80366569E-27  0.51654075E+02  0.40495798E+02
  0.29798  0.82071438E-27  0.51421003E+02  0.40145903E+02
  0.30808  0.83624058E-27  0.51079965E+02  0.39712982E+02
  0.31818  0.85006193E-27  0.50653528E+02  0.39216358E+02
  0.32828  0.86200743E-27  0.50159702E+02  0.38671324E+02
  0.33838  0.87192753E-27  0.49613011E+02  0.38090099E+02
  0.34848  0.87969938E-27  0.49025258E+02  0.37482511E+02
  0.35859  0.88522906E-27  0.48406102E+02  0.36856512E+02
  0.36869  0.88845204E-27  0.47763486E+02  0.36218559E+02
  0.37879  0.88933240E-27  0.47103969E+02  0.35573910E+02
  0.38889  0.88786127E-27  0.46432981E+02  0.34926849E+02
  0.39899  0.88405487E-27  0.45755030E+02  0.34280869E+02
  0.40909  0.87795225E-27  0.45073854E+02  0.33638812E+02
  0.41919  0.86961293E-27  0.44392562E+02  0.33002982E+02
  0.42929  0.85911445E-27  0.43713730E+02  0.32375241E+02
  0.43939  0.84654998E-27  0.43039490E+02  0.31757081E+02
  0.44949  0.83202605E-27  0.42371603E+02  0.31149684E+02
  0.45960  0.81566028E-27  0.41711511E+02  0.30553979E+02
  0.46970  0.79757933E-27  0.41060396E+02  0.29970678E+02
  0.47980  0.77791696E-27  0.40419210E+02  0.29400314E+02
  0.48990  0.75681225E-27  0.39788717E+02  0.28843270E+02
  0.50000  0.73440793E-27  0.39169520E+02  0.28299803E+02
 Transport for spin ->  1  , kxy-point ->   9, of Node     3
           kxy=(0.427 0.410 0.000 ),w= 0.0156
    E           T(E)            TotDOS         PDOS
 -0.50000  0.54687741E-32  0.32203160E+02  0.24468453E+02
 -0.48990  0.53946415E-32  0.31673476E+02  0.23985067E+02
 -0.47980  0.53018598E-32  0.31132894E+02  0.23499084E+02
 -0.46970  0.51928392E-32  0.30585566E+02  0.23013475E+02
 -0.45960  0.50700988E-32  0.30035088E+02  0.22530752E+02
 -0.44949  0.49361468E-32  0.29484513E+02  0.22052986E+02
 -0.43939  0.47933894E-32  0.28936358E+02  0.21581828E+02
 -0.42929  0.46440594E-32  0.28392573E+02  0.21118496E+02
 -0.41919  0.44901473E-32  0.27854387E+02  0.20663663E+02
 -0.40909  0.43332494E-32  0.27321486E+02  0.20216866E+02
 -0.39899  0.41735315E-32  0.26785329E+02  0.19771581E+02
 -0.38889  0.40624809E-32  0.26573467E+02  0.19568855E+02
 -0.37879  0.38718498E-32  0.25841450E+02  0.18986445E+02
 -0.36869  0.37180674E-32  0.25342808E+02  0.18579188E+02
 -0.35859  0.35692447E-32  0.24863974E+02  0.18189569E+02
 -0.34848  0.34251944E-32  0.24399140E+02  0.17813116E+02
 -0.33838  0.32863154E-32  0.23947077E+02  0.17448743E+02
 -0.32828  0.31530238E-32  0.23507328E+02  0.17095939E+02
 -0.31818  0.30256770E-32  0.23079618E+02  0.16754341E+02
 -0.30808  0.29045650E-32  0.22663713E+02  0.16423626E+02
 -0.29798  0.27899165E-32  0.22259383E+02  0.16103479E+02
 -0.28788  0.26819077E-32  0.21866382E+02  0.15793589E+02
 -0.27778  0.25806726E-32  0.21484454E+02  0.15493640E+02
 -0.26768  0.24863122E-32  0.21113327E+02  0.15203317E+02
 -0.25758  0.23989034E-32  0.20752722E+02  0.14922305E+02
 -0.24747  0.23185075E-32  0.20402354E+02  0.14650291E+02
 -0.23737  0.22451775E-32  0.20061932E+02  0.14386967E+02
 -0.22727  0.21789652E-32  0.19731167E+02  0.14132029E+02
 -0.21717  0.21199283E-32  0.19409767E+02  0.13885181E+02
 -0.20707  0.20681367E-32  0.19097446E+02  0.13646132E+02
 -0.19697  0.20236792E-32  0.18793918E+02  0.13414601E+02
 -0.18687  0.19866697E-32  0.18498905E+02  0.13190314E+02
 -0.17677  0.19572550E-32  0.18212134E+02  0.12973005E+02
 -0.16667  0.19356212E-32  0.17933337E+02  0.12762419E+02
 -0.15657  0.19220029E-32  0.17662254E+02  0.12558307E+02
 -0.14646  0.19166918E-32  0.17398632E+02  0.12360432E+02
 -0.13636  0.19200477E-32  0.17142226E+02  0.12168563E+02
 -0.12626  0.19325109E-32  0.16892798E+02  0.11982478E+02
 -0.11616  0.19546168E-32  0.16650118E+02  0.11801965E+02
 -0.10606  0.19870140E-32  0.16413962E+02  0.11626819E+02
 -0.09596  0.20304859E-32  0.16184116E+02  0.11456845E+02
 -0.08586  0.20859770E-32  0.15960372E+02  0.11291852E+02
 -0.07576  0.21546266E-32  0.15742530E+02  0.11131660E+02
 -0.06566  0.22378100E-32  0.15530397E+02  0.10976095E+02
 -0.05556  0.23371909E-32  0.15323786E+02  0.10824991E+02
 -0.04545  0.24547894E-32  0.15122519E+02  0.10678187E+02
 -0.03535  0.25930686E-32  0.14926423E+02  0.10535530E+02
 -0.02525  0.27550491E-32  0.14735331E+02  0.10396872E+02
 -0.01515  0.29444594E-32  0.14549084E+02  0.10262074E+02
 -0.00505  0.31659393E-32  0.14367527E+02  0.10130999E+02
  0.00505  0.34253154E-32  0.14190514E+02  0.10003517E+02
  0.01515  0.37299833E-32  0.14017901E+02  0.98795058E+01
  0.02525  0.40894463E-32  0.13849551E+02  0.97588444E+01
  0.03535  0.45160898E-32  0.13685334E+02  0.96414193E+01
  0.04545  0.50263208E-32  0.13525122E+02  0.95271211E+01
  0.05556  0.56422906E-32  0.13368794E+02  0.94158449E+01
  0.06566  0.63945773E-32  0.13216233E+02  0.93074907E+01
  0.07576  0.73265156E-32  0.13067329E+02  0.92019629E+01
  0.08586  0.85014878E-32  0.12921974E+02  0.90991706E+01
  0.09596  0.10015842E-31  0.12780067E+02  0.89990275E+01
  0.10606  0.12023274E-31  0.12641514E+02  0.89014533E+01
  0.11616  0.14784682E-31  0.12506227E+02  0.88063746E+01
  0.12626  0.18781467E-31  0.12374132E+02  0.87137292E+01
  0.13636  0.25013759E-31  0.12245179E+02  0.86234759E+01
  0.14646  0.35980287E-31  0.12119379E+02  0.85356289E+01
  0.15657  0.60435247E-31  0.11996993E+02  0.84504220E+01
  0.16667  0.18236814E-30  0.11881230E+02  0.83706948E+01
  0.17677  0.17521767E-27  0.18609993E+02  0.14325315E+02
  0.18687  0.27210628E-27  0.22319095E+02  0.17576796E+02
  0.19697  0.34058389E-27  0.24975607E+02  0.19878410E+02
  0.20707  0.39465675E-27  0.27146169E+02  0.21735078E+02
  0.21717  0.43872620E-27  0.29019337E+02  0.23315604E+02
  0.22727  0.47475256E-27  0.30685283E+02  0.24701100E+02
  0.23737  0.50378349E-27  0.32194995E+02  0.25937696E+02
  0.24747  0.52647765E-27  0.33580199E+02  0.27054307E+02
  0.25758  0.54333359E-27  0.34861794E+02  0.28070184E+02
  0.26768  0.55480623E-27  0.36053983E+02  0.28998615E+02
  0.27778  0.56137151E-27  0.37166512E+02  0.29848943E+02
  0.28788  0.56356287E-27  0.38205966E+02  0.30627746E+02
  0.29798  0.56198936E-27  0.39176581E+02  0.31339566E+02
  0.30808  0.55734013E-27  0.40080769E+02  0.31987403E+02
  0.31818  0.55037688E-27  0.40919489E+02  0.32573047E+02
  0.32828  0.54191559E-27  0.41692521E+02  0.33097344E+02
  0.33838  0.53279824E-27  0.42398704E+02  0.33560400E+02
  0.34848  0.52385592E-27  0.43036146E+02  0.33961771E+02
  0.35859  0.51586534E-27  0.43602440E+02  0.34300653E+02
  0.36869  0.50950217E-27  0.44094893E+02  0.34576064E+02
  0.37879  0.50529540E-27  0.44510776E+02  0.34787040E+02
  0.38889  0.50358813E-27  0.44847584E+02  0.34932834E+02
  0.39899  0.50450998E-27  0.45103301E+02  0.35013109E+02
  0.40909  0.50796620E-27  0.45276661E+02  0.35028120E+02
  0.41919  0.51364606E-27  0.45367360E+02  0.34978854E+02
  0.42929  0.52105121E-27  0.45376224E+02  0.34867126E+02
  0.43939  0.52954089E-27  0.45305290E+02  0.34695618E+02
  0.44949  0.53838871E-27  0.45157808E+02  0.34467847E+02
  0.45960  0.54684360E-27  0.44938147E+02  0.34188073E+02
  0.46970  0.55418762E-27  0.44651634E+02  0.33861154E+02
  0.47980  0.55978420E-27  0.44304333E+02  0.33492369E+02
  0.48990  0.56311295E-27  0.43902806E+02  0.33087232E+02
  0.50000  0.56378944E-27  0.43453857E+02  0.32651302E+02
 Transport for spin ->  1  , kxy-point ->  10, of Node     3
           kxy=(0.569 0.328 0.000 ),w= 0.0156
    E           T(E)            TotDOS         PDOS
 -0.50000  0.16548739E-32  0.10260075E+02  0.10260075E+02
 -0.48990  0.16815711E-32  0.10331137E+02  0.10331137E+02
 -0.47980  0.17087070E-32  0.10401038E+02  0.10401038E+02
 -0.46970  0.17363010E-32  0.10469826E+02  0.10469826E+02
 -0.45960  0.17643733E-32  0.10537547E+02  0.10537547E+02
 -0.44949  0.17929446E-32  0.10604247E+02  0.10604247E+02
 -0.43939  0.18220366E-32  0.10669971E+02  0.10669971E+02
 -0.42929  0.18516720E-32  0.10734762E+02  0.10734762E+02
 -0.41919  0.18818749E-32  0.10798662E+02  0.10798662E+02
 -0.40909  0.19126710E-32  0.10861714E+02  0.10861714E+02
 -0.39899  0.19440877E-32  0.10923958E+02  0.10923958E+02
 -0.38889  0.19761548E-32  0.10985435E+02  0.10985435E+02
 -0.37879  0.20089044E-32  0.11046184E+02  0.11046184E+02
 -0.36869  0.20423718E-32  0.11106246E+02  0.11106246E+02
 -0.35859  0.20765958E-32  0.11165660E+02  0.11165660E+02
 -0.34848  0.21116195E-32  0.11224466E+02  0.11224466E+02
 -0.33838  0.21474908E-32  0.11282701E+02  0.11282701E+02
 -0.32828  0.21842633E-32  0.11340407E+02  0.11340407E+02
 -0.31818  0.22219978E-32  0.11397622E+02  0.11397622E+02
 -0.30808  0.22607628E-32  0.11454386E+02  0.11454386E+02
 -0.29798  0.23006366E-32  0.11510739E+02  0.11510739E+02
 -0.28788  0.23417091E-32  0.11566723E+02  0.11566723E+02
 -0.27778  0.23840834E-32  0.11622378E+02  0.11622378E+02
 -0.26768  0.24278794E-32  0.11677747E+02  0.11677747E+02
 -0.25758  0.24732367E-32  0.11732873E+02  0.11732873E+02
 -0.24747  0.25203184E-32  0.11787800E+02  0.11787800E+02
 -0.23737  0.25693173E-32  0.11842573E+02  0.11842573E+02
 -0.22727  0.26204615E-32  0.11897238E+02  0.11897238E+02
 -0.21717  0.26740235E-32  0.11951843E+02  0.11951843E+02
 -0.20707  0.27303309E-32  0.12006439E+02  0.12006439E+02
 -0.19697  0.27897804E-32  0.12061075E+02  0.12061075E+02
 -0.18687  0.28528568E-32  0.12115806E+02  0.12115806E+02
 -0.17677  0.29201580E-32  0.12170686E+02  0.12170686E+02
 -0.16667  0.29924291E-32  0.12225773E+02  0.12225773E+02
 -0.15657  0.30706098E-32  0.12281128E+02  0.12281128E+02
 -0.14646  0.31559009E-32  0.12336812E+02  0.12336812E+02
 -0.13636  0.32498605E-32  0.12392891E+02  0.12392891E+02
 -0.12626  0.33545458E-32  0.12449436E+02  0.12449436E+02
 -0.11616  0.34727291E-32  0.12506517E+02  0.12506517E+02
 -0.10606  0.36082368E-32  0.12564212E+02  0.12564212E+02
 -0.09596  0.37665037E-32  0.12622602E+02  0.12622602E+02
 -0.08586  0.39555224E-32  0.12681770E+02  0.12681770E+02
 -0.07576  0.41875641E-32  0.12741808E+02  0.12741808E+02
 -0.06566  0.44825309E-32  0.12802812E+02  0.12802812E+02
 -0.05556  0.48751178E-32  0.12864884E+02  0.12864884E+02
 -0.04545  0.54321511E-32  0.12928136E+02  0.12928136E+02
 -0.03535  0.63028616E-32  0.12992693E+02  0.12992693E+02
 -0.02525  0.79138272E-32  0.13058712E+02  0.13058712E+02
 -0.01515  0.12343965E-31  0.13126499E+02  0.13126499E+02
 -0.00505  0.88844216E-29  0.13950515E+02  0.13950515E+02
  0.00505  0.18588021E-28  0.15029822E+02  0.15029822E+02
  0.01515  0.22251135E-28  0.15707198E+02  0.15707198E+02
  0.02525  0.23653854E-28  0.16253848E+02  0.16253848E+02
  0.03535  0.23761371E-28  0.16728760E+02  0.16728760E+02
  0.04545  0.23044036E-28  0.17157025E+02  0.17157025E+02
  0.05556  0.21788214E-28  0.17552215E+02  0.17552215E+02
  0.06566  0.20189207E-28  0.17922724E+02  0.17922724E+02
  0.07576  0.18388907E-28  0.18274230E+02  0.18274230E+02
  0.08586  0.16493999E-28  0.18610828E+02  0.18610828E+02
  0.09596  0.14585877E-28  0.18935625E+02  0.18935625E+02
  0.10606  0.12726571E-28  0.19251075E+02  0.19251075E+02
  0.11616  0.10962564E-28  0.19559189E+02  0.19559189E+02
  0.12626  0.93274492E-29  0.19861658E+02  0.19861658E+02
  0.13636  0.78439080E-29  0.20159951E+02  0.20159951E+02
  0.14646  0.65253192E-29  0.20455370E+02  0.20455370E+02
  0.15657  0.53771556E-29  0.20749097E+02  0.20749097E+02
  0.16667  0.43982901E-29  0.21042229E+02  0.21042229E+02
  0.17677  0.35822823E-29  0.21335798E+02  0.21335798E+02
  0.18687  0.29186990E-29  0.21630796E+02  0.21630796E+02
  0.19697  0.23945000E-29  0.21928193E+02  0.21928193E+02
  0.20707  0.19955139E-29  0.22228947E+02  0.22228947E+02
  0.21717  0.17080127E-29  0.22534028E+02  0.22534028E+02
  0.22727  0.15203876E-29  0.22844433E+02  0.22844433E+02
  0.23737  0.14249161E-29  0.23161232E+02  0.23161232E+02
  0.24747  0.14196046E-29  0.23485673E+02  0.23485673E+02
  0.25758  0.15100994E-29  0.23819601E+02  0.23819601E+02
  0.26768  0.17118942E-29  0.24168521E+02  0.24168521E+02
  0.27778  0.20183992E-29  0.24261031E+02  0.24261031E+02
  0.28788  0.25586440E-29  0.24849381E+02  0.24849381E+02
  0.29798  0.33009718E-29  0.25230634E+02  0.25230634E+02
  0.30808  0.43389119E-29  0.25620840E+02  0.25620840E+02
  0.31818  0.57557376E-29  0.26024638E+02  0.26024638E+02
  0.32828  0.76490133E-29  0.26444008E+02  0.26444008E+02
  0.33838  0.10129365E-28  0.26880492E+02  0.26880492E+02
  0.34848  0.13317811E-28  0.27335527E+02  0.27335527E+02
  0.35859  0.17341626E-28  0.27810517E+02  0.27810517E+02
  0.36869  0.22328528E-28  0.28306861E+02  0.28306861E+02
  0.37879  0.28399003E-28  0.28825938E+02  0.28825938E+02
  0.38889  0.35656653E-28  0.29369102E+02  0.29369102E+02
  0.39899  0.44176514E-28  0.29937653E+02  0.29937653E+02
  0.40909  0.53991505E-28  0.30532808E+02  0.30532808E+02
  0.41919  0.65077335E-28  0.31155665E+02  0.31155665E+02
  0.42929  0.77336525E-28  0.31807151E+02  0.31807151E+02
  0.43939  0.90582543E-28  0.32487972E+02  0.32487972E+02
  0.44949  0.10452549E-27  0.33198538E+02  0.33198538E+02
  0.45960  0.11876130E-27  0.33938894E+02  0.33938894E+02
  0.46970  0.13276674E-27  0.34708630E+02  0.34708630E+02
  0.47980  0.14590326E-27  0.35506787E+02  0.35506787E+02
  0.48990  0.15743248E-27  0.36331755E+02  0.36331755E+02
  0.50000  0.16654658E-27  0.37181171E+02  0.37181171E+02
 ==============================================================
 
 Results:
 
 Volt, Current =   1.00000000E+00  1.63378444E-29
 
 ==============================================================
