SIESTA 1.1 -- [] (Sept 22, 2001)
Architecture  : osfdxml
Compiler flags: f90 -fast -tune host
SERIAL version
NetCDF-capable

* Running in serial mode
>> Start of run:  25-SEP-2001  18:11:42

                           ***********************       
                           *  WELCOME TO SIESTA  *       
                           ***********************       
Reading from standard input...

*: ****************** Dump of input data file ****************************
SystemName          Water molecule, using order-N method
SystemLabel         h2o
NumberOfAtoms       3
NumberOfSpecies     2
%block ChemicalSpeciesLabel
 1  8  O      # Species index, atomic number, species label
 2  1  H
%endblock ChemicalSpeciesLabel
AtomicCoordinatesFormat  Ang
%block AtomicCoordinatesAndAtomicSpecies
 0.000  0.000  0.000  1
 0.757  0.586  0.000  2
-0.757  0.586  0.000  2
%endblock AtomicCoordinatesAndAtomicSpecies
SolutionMethod   ordern
*: ****************** End of input data file *****************************

redata: ****************** Simulation parameters ******************************
redata:
redata: The following are some of the parameters of the simulation.
redata: A complete list of the parameters used, including defect values,
redata: can be found in file out.fdf             
redata:
redata: -----------------------------------------------------------------------
redata: System Name: Water molecule, using order-N method                       
redata: -----------------------------------------------------------------------
redata: System Label                     =     h2o                 

initatom: Reading input for the pseudopotentials and atomic orbitals
 Species number:            1  Label: O Atomic number:           8
 Species number:            2  Label: H Atomic number:           1
Ground state valence configuration:   2s02  2p04
Reading pseudopotential information in formatted form from O.psf
Ground state valence configuration:   1s01
Reading pseudopotential information in formatted form from H.psf
 For O, increment lmxkb to           3  due to polarization orbitals.
 For H, increment lmxkb to           2  due to polarization orbitals.
<basis_specs>
======================================================================
O                    Z=   8    Mass=  16.000        Charge=  0.0000    
Lmxo=1 Lmxkb=3     BasisType=split      Semic=F
L=0  Nsemic=0  Cnfigmx=2
          n=1  nzeta=2  polorb=0
               vcte:    0.0000    
               rinn:    0.0000    
                rcs:    0.0000      0.0000    
            lambdas:    1.0000      1.0000    
L=1  Nsemic=0  Cnfigmx=2
          n=1  nzeta=2  polorb=1
               vcte:    0.0000    
               rinn:    0.0000    
                rcs:    0.0000      0.0000    
            lambdas:    1.0000      1.0000    
----------------------------------------------------------------------
L=0  Nkbl=1  erefs: 0.17977+309
L=1  Nkbl=1  erefs: 0.17977+309
L=2  Nkbl=1  erefs: 0.17977+309
L=3  Nkbl=1  erefs: 0.17977+309
======================================================================
</basis_specs>
ATOM: Called for O   (Z =   8)

read_vps: Pseudopotential generation method:
read_vps: ATM3      Troullier-Martins                       

read_vps: Valence configuration (pseudopotential and basis set generation):
2s( 2.00) rc: 1.14
2p( 4.00) rc: 1.14
3d( 0.00) rc: 1.14
4f( 0.00) rc: 1.14

xc_check: Exchange-correlation functional:
xc_check: Ceperley-Alder

VLOCAL1: 99.0% of the norm of Vloc inside     34.126 Ry
VLOCAL1: 99.9% of the norm of Vloc inside     77.774 Ry
ATOM: Maximum radius for local-pseudopot. charge    1.37759
GHOST: No ghost state for L =  0
GHOST: No ghost state for L =  1
GHOST: No ghost state for L =  2
GHOST: No ghost state for L =  3

KBgen: Kleinman-Bylander projectors: 
   l= 0   rc=  1.294105   el= -1.742414   Ekb=  9.135903   kbcos=  0.326910
   l= 1   rc=  1.294105   el= -0.676589   Ekb= -8.124878   kbcos= -0.395047
   l= 2   rc=  1.448233   el=  0.002386   Ekb= -2.039267   kbcos= -0.003484
   l= 3   rc=  1.561052   el=  0.003508   Ekb= -0.799141   kbcos= -0.000344

KBgen: Total number of  Kleinman-Bylander projectors:   16
ATOM: -------------------------------------------------------------------------

ATOM: SANKEY-TYPE ORBITALS:
ATOM: Selected multiple-zeta basis: split     

SPLIT: Orbitals with angular momentum L= 0

SPLIT: Basis orbitals for state 2s

SPLIT: PAO cut-off radius determinated from an
SPLIT: energy shift=  0.020000 Ry

   izeta = 1
                 lambda =    1.000000
                     rc =    3.305093
                 energy =   -1.723766
                kinetic =    1.614911
    potential(screened) =   -3.338677
       potential(ionic) =  -11.304675

   izeta = 2
                 rmatch =    2.510382
              splitnorm =    0.150000
                 energy =   -1.471081
                kinetic =    2.446738
    potential(screened) =   -3.917818
       potential(ionic) =  -12.476310

SPLIT: Orbitals with angular momentum L= 1

SPLIT: Basis orbitals for state 2p

SPLIT: PAO cut-off radius determinated from an
SPLIT: energy shift=  0.020000 Ry

   izeta = 1
                 lambda =    1.000000
                     rc =    3.937239
                 energy =   -0.658841
                kinetic =    5.005986
    potential(screened) =   -5.664827
       potential(ionic) =  -13.452360

   izeta = 2
                 rmatch =    2.541963
              splitnorm =    0.150000
                 energy =   -0.367387
                kinetic =    7.530138
    potential(screened) =   -7.897525
       potential(ionic) =  -16.611418

POLgen: Perturbative polarization orbital with L=  2

POLgen: Polarization orbital for state 2p

   izeta = 1
                     rc =    3.937239
                 energy =    2.398520
                kinetic =    4.716729
    potential(screened) =   -2.318209
       potential(ionic) =   -8.603170
ATOM: Total number of Sankey-type orbitals: 13

atm_pop: Valence configuration(local Pseudopot. screening):
 2s( 2.00)                                                            
 2p( 4.00)                                                            

Vna:  Cut-off radius for the neutral-atom potential:   3.937239

ATOM:__________________________ 
<basis_specs>
======================================================================
H                    Z=   1    Mass=  1.0100        Charge=  0.0000    
Lmxo=0 Lmxkb=2     BasisType=split      Semic=F
L=0  Nsemic=0  Cnfigmx=1
          n=1  nzeta=2  polorb=1
               vcte:    0.0000    
               rinn:    0.0000    
                rcs:    0.0000      0.0000    
            lambdas:    1.0000      1.0000    
----------------------------------------------------------------------
L=0  Nkbl=1  erefs: 0.17977+309
L=1  Nkbl=1  erefs: 0.17977+309
L=2  Nkbl=1  erefs: 0.17977+309
======================================================================
</basis_specs>
ATOM: Called for H   (Z =   1)

read_vps: Pseudopotential generation method:
read_vps: ATM3      Troullier-Martins                       

read_vps: Valence configuration (pseudopotential and basis set generation):
1s( 1.00) rc: 1.25
2p( 0.00) rc: 1.25
3d( 0.00) rc: 1.25

xc_check: Exchange-correlation functional:
xc_check: Ceperley-Alder

VLOCAL1: 99.0% of the norm of Vloc inside     28.493 Ry
VLOCAL1: 99.9% of the norm of Vloc inside     64.935 Ry
ATOM: Maximum radius for local-pseudopot. charge    1.45251
GHOST: No ghost state for L =  0
GHOST: No ghost state for L =  1
GHOST: No ghost state for L =  2

KBgen: Kleinman-Bylander projectors: 
   l= 0   rc=  1.364359   el= -0.467325   Ekb= -2.005361   kbcos= -0.336422
   l= 1   rc=  1.434438   el=  0.001430   Ekb= -0.501708   kbcos= -0.021697
   l= 2   rc=  1.470814   el=  0.002365   Ekb= -0.190555   kbcos= -0.002281

KBgen: Total number of  Kleinman-Bylander projectors:    9
ATOM: -------------------------------------------------------------------------

ATOM: SANKEY-TYPE ORBITALS:
ATOM: Selected multiple-zeta basis: split     

SPLIT: Orbitals with angular momentum L= 0

SPLIT: Basis orbitals for state 1s

SPLIT: PAO cut-off radius determinated from an
SPLIT: energy shift=  0.020000 Ry

   izeta = 1
                 lambda =    1.000000
                     rc =    4.828263
                 energy =   -0.449375
                kinetic =    0.929372
    potential(screened) =   -1.378747
       potential(ionic) =   -1.915047

   izeta = 2
                 rmatch =    3.854947
              splitnorm =    0.150000
                 energy =   -0.335649
                kinetic =    1.505971
    potential(screened) =   -1.841620
       potential(ionic) =   -2.413776

POLgen: Perturbative polarization orbital with L=  1

POLgen: Polarization orbital for state 1s

   izeta = 1
                     rc =    4.828263
                 energy =    0.706972
                kinetic =    1.396397
    potential(screened) =   -0.689424
       potential(ionic) =   -1.169792
ATOM: Total number of Sankey-type orbitals:  5

atm_pop: Valence configuration(local Pseudopot. screening):
 1s( 1.00)                                                            

Vna:  Cut-off radius for the neutral-atom potential:   4.828263

ATOM:__________________________ 

prinput:  Basis input **

PAO.BasisType split     

%block ChemicalSpeciesLabel
    1    8 O                       # Species index, atomic number, species label
    2    1 H                       # Species index, atomic number, species label
%endblock ChemicalSpeciesLabel

%block PAO.Basis                 # Define Basis set
O           2                    # Species label, number of l-shells
 n=2   0   2                         # n, l, Nzeta 
   3.305      2.510   
   1.000      1.000   
 n=2   1   2 P   1                   # n, l, Nzeta, Polarization, NzetaPol
   3.937      2.542   
   1.000      1.000   
H           1                    # Species label, number of l-shells
 n=1   0   2 P   1                   # n, l, Nzeta, Polarization, NzetaPol
   4.828      3.855   
   1.000      1.000   
%endblock PAO.Basis

prinput: *****
Dumping basis to NetCDF file O.ion.nc
Dumping basis to NetCDF file H.ion.nc
coor: Atomic-coordinates input format  =     Cartesian coordinates
coor:                                        (in Angstroms)
redata: Number of spin components        =     1
redata: Long output                      =     F
redata: Number of Atomic Species         =     2
redata: Charge density info will appear in .RHO file
redata: Write Mulliken Pop.              =     NO
redata: Mesh Cutoff                      =    50.0000  Ry
redata: Net charge of the system         =     0.0000 |e|
redata: Max. number of SCF Iter          =    50
redata: Mixing is linear
redata: Mix DM in first SCF step ?       =     F
redata: Write Pulay info on disk?        =     F
redata: New DM Mixing Weight             =     0.2500
redata: No kicks to SCF
redata: DM Mixing Weight for Kicks       =     0.5000
redata: DM Tolerance for SCF             =     0.000100
redata: Use continuation files for DM    =     F
redata: Neglect nonoverlap interactions  =     F
redata: Method of Calculation            =     Order-N
redata: Fix the spin of the system       =     F
redata: Maximum number of iterations     =  1000
redata: Relative tolerance               =     0.10D-07
redata: Eta (Fermi level parameter)      =     0.0000  Ry
redata: Radius of LWFs                   =     9.5000  Bohr
redata: Use continuation files for LWF   =     F
redata: Method to build LWFs             =     kim          
redata: Dynamics option                  =     Verlet MD run
redata: Initial MD time step             =     1
redata:   Final MD time step             =     1
redata: Length of MD time step           =     1.0000  fs
redata: Length of MD time step           =     1.0000  fs
redata: Initial Temperature of MD run    =     0.0000  K
redata: Perform a MD quench              =     F
redata: ***********************************************************************

siesta: Atomic coordinates (Bohr) and species
siesta:      0.00000   0.00000   0.00000  1      1
siesta:      1.43052   1.10738   0.00000  2      2
siesta:     -1.43052   1.10738   0.00000  2      3
initatomlists: Number of atoms, orbitals, and projectors:      3    23    34

siesta: Automatic unit cell vectors (Ang):
siesta:    7.286412    0.000000    0.000000
siesta:    0.000000    5.746952    0.000000
siesta:    0.000000    0.000000    5.621012

siesta: System type = molecule  


* Maximum dynamic memory allocated =     2 MB

siesta:    ===============================
siesta:        Begin MD step =      1
siesta:    ===============================

InitMesh: MESH =    32 x    30 x    24 =       23040
InitMesh: Mesh cutoff (required, used) =    50.000    50.384 Ry


* Maximum dynamic memory allocated =     3 MB

ordern: enum =      8.0000

ordern: ioptlwf =  1
cgwf: iter =    1      grad =        -400.709952      Eb(Ry) =      -0.772334
cgwf: iter =    2      grad =         -21.822178      Eb(Ry) =      -2.908658
cgwf: iter =    3      grad =         -12.245129      Eb(Ry) =      -3.371746
cgwf: iter =    4      grad =          -8.119139      Eb(Ry) =      -3.649450
cgwf: iter =    5      grad =         -12.183489      Eb(Ry) =      -3.877333
cgwf: iter =    6      grad =         -10.366602      Eb(Ry) =      -4.149655
cgwf: iter =    7      grad =          -1.874882      Eb(Ry) =      -4.312419
cgwf: iter =    8      grad =          -0.902737      Eb(Ry) =      -4.350464
cgwf: iter =    9      grad =          -0.567349      Eb(Ry) =      -4.367991
cgwf: iter =   10      grad =          -0.268926      Eb(Ry) =      -4.381120
cgwf: iter =   11      grad =          -0.243597      Eb(Ry) =      -4.398352
cgwf: iter =   12      grad =          -0.245606      Eb(Ry) =      -4.406191
cgwf: iter =   13      grad =          -0.306201      Eb(Ry) =      -4.418448
cgwf: iter =   14      grad =          -0.177644      Eb(Ry) =      -4.423427
cgwf: iter =   15      grad =          -0.079220      Eb(Ry) =      -4.430158
cgwf: iter =   16      grad =          -0.219915      Eb(Ry) =      -4.437207
cgwf: iter =   17      grad =          -0.219968      Eb(Ry) =      -4.444406
cgwf: iter =   18      grad =          -0.245724      Eb(Ry) =      -4.449424
cgwf: iter =   19      grad =          -0.123105      Eb(Ry) =      -4.459360
cgwf: iter =   20      grad =          -0.137061      Eb(Ry) =      -4.464420
cgwf: iter =   21      grad =          -0.162982      Eb(Ry) =      -4.468653
cgwf: iter =   22      grad =          -0.162300      Eb(Ry) =      -4.473080
cgwf: iter =   23      grad =          -0.092140      Eb(Ry) =      -4.477945
cgwf: iter =   24      grad =          -0.066759      Eb(Ry) =      -4.481718
cgwf: iter =   25      grad =          -0.032660      Eb(Ry) =      -4.482776
cgwf: iter =   26      grad =          -0.047079      Eb(Ry) =      -4.484037
cgwf: iter =   27      grad =          -0.034994      Eb(Ry) =      -4.486371
cgwf: iter =   28      grad =          -0.069755      Eb(Ry) =      -4.487558
cgwf: iter =   29      grad =          -0.059488      Eb(Ry) =      -4.490025
cgwf: iter =   30      grad =          -0.026229      Eb(Ry) =      -4.491350
cgwf: iter =   31      grad =          -0.039467      Eb(Ry) =      -4.492778
cgwf: iter =   32      grad =          -0.042990      Eb(Ry) =      -4.493815
cgwf: iter =   33      grad =          -0.038394      Eb(Ry) =      -4.495038
cgwf: iter =   34      grad =          -0.038108      Eb(Ry) =      -4.496526
cgwf: iter =   35      grad =          -0.036018      Eb(Ry) =      -4.498254
cgwf: iter =   36      grad =          -0.026497      Eb(Ry) =      -4.498941
cgwf: iter =   37      grad =          -0.010976      Eb(Ry) =      -4.499714
cgwf: iter =   38      grad =          -0.018160      Eb(Ry) =      -4.500194
cgwf: iter =   39      grad =          -0.014867      Eb(Ry) =      -4.500768
cgwf: iter =   40      grad =          -0.009482      Eb(Ry) =      -4.501051
cgwf: iter =   41      grad =          -0.010331      Eb(Ry) =      -4.501507
cgwf: iter =   42      grad =          -0.011483      Eb(Ry) =      -4.501859
cgwf: iter =   43      grad =          -0.024567      Eb(Ry) =      -4.502329
cgwf: iter =   44      grad =          -0.014990      Eb(Ry) =      -4.502984
cgwf: iter =   45      grad =          -0.024592      Eb(Ry) =      -4.503861
cgwf: iter =   46      grad =          -0.020795      Eb(Ry) =      -4.504576
cgwf: iter =   47      grad =          -0.011281      Eb(Ry) =      -4.504982
cgwf: iter =   48      grad =          -0.007764      Eb(Ry) =      -4.505330
cgwf: iter =   49      grad =          -0.007844      Eb(Ry) =      -4.505649
cgwf: iter =   50      grad =          -0.005101      Eb(Ry) =      -4.505813
cgwf: iter =   51      grad =          -0.003830      Eb(Ry) =      -4.505948
cgwf: iter =   52      grad =          -0.001642      Eb(Ry) =      -4.506049
cgwf: iter =   53      grad =          -0.002996      Eb(Ry) =      -4.506138
cgwf: iter =   54      grad =          -0.000969      Eb(Ry) =      -4.506184
cgwf: iter =   55      grad =          -0.002007      Eb(Ry) =      -4.506236
cgwf: iter =   56      grad =          -0.002040      Eb(Ry) =      -4.506324
cgwf: iter =   57      grad =          -0.001900      Eb(Ry) =      -4.506371
cgwf: iter =   58      grad =          -0.001337      Eb(Ry) =      -4.506426
cgwf: iter =   59      grad =          -0.001564      Eb(Ry) =      -4.506479
cgwf: iter =   60      grad =          -0.002341      Eb(Ry) =      -4.506540
cgwf: iter =   61      grad =          -0.002940      Eb(Ry) =      -4.506610
cgwf: iter =   62      grad =          -0.001248      Eb(Ry) =      -4.506693
cgwf: iter =   63      grad =          -0.001535      Eb(Ry) =      -4.506745
cgwf: iter =   64      grad =          -0.001225      Eb(Ry) =      -4.506784
cgwf: iter =   65      grad =          -0.000573      Eb(Ry) =      -4.506808
cgwf: iter =   66      grad =          -0.000652      Eb(Ry) =      -4.506835
cgwf: iter =   67      grad =          -0.001443      Eb(Ry) =      -4.506865
cgwf: iter =   68      grad =          -0.000792      Eb(Ry) =      -4.506902
cgwf: iter =   69      grad =          -0.000390      Eb(Ry) =      -4.506918
cgwf: iter =   70      grad =          -0.000538      Eb(Ry) =      -4.506943
cgwf: iter =   71      grad =          -0.000515      Eb(Ry) =      -4.506955
cgwf: iter =   72      grad =          -0.000506      Eb(Ry) =      -4.506972
cgwf: iter =   73      grad =          -0.000427      Eb(Ry) =      -4.506991
cgwf: iter =   74      grad =          -0.000476      Eb(Ry) =      -4.507007
cgwf: iter =   75      grad =          -0.000315      Eb(Ry) =      -4.507016
cgwf: iter =   76      grad =          -0.000157      Eb(Ry) =      -4.507026
cgwf: iter =   77      grad =          -0.000208      Eb(Ry) =      -4.507032
cgwf: iter =   78      grad =          -0.000180      Eb(Ry) =      -4.507039
cgwf: iter =   79      grad =          -0.000097      Eb(Ry) =      -4.507042
cgwf: iter =   80      grad =          -0.000079      Eb(Ry) =      -4.507046
cgwf: iter =   81      grad =          -0.000050      Eb(Ry) =      -4.507048
cgwf: iter =   82      grad =          -0.000064      Eb(Ry) =      -4.507050
cgwf: iter =   83      grad =          -0.000042      Eb(Ry) =      -4.507052
cgwf: iter =   84      grad =          -0.000113      Eb(Ry) =      -4.507055
cgwf: iter =   85      grad =          -0.000091      Eb(Ry) =      -4.507058
cgwf: iter =   86      grad =          -0.000076      Eb(Ry) =      -4.507060
cgwf: iter =   87      grad =          -0.000090      Eb(Ry) =      -4.507063
cgwf: iter =   88      grad =          -0.000091      Eb(Ry) =      -4.507067
cgwf: iter =   89      grad =          -0.000055      Eb(Ry) =      -4.507069
cgwf: iter =   90      grad =          -0.000059      Eb(Ry) =      -4.507071
cgwf: iter =   91      grad =          -0.000027      Eb(Ry) =      -4.507073
cgwf: iter =   92      grad =          -0.000036      Eb(Ry) =      -4.507073
cgwf: iter =   93      grad =          -0.000013      Eb(Ry) =      -4.507074
cgwf: iter =   94      grad =          -0.000019      Eb(Ry) =      -4.507075
cgwf: iter =   95      grad =          -0.000013      Eb(Ry) =      -4.507075
cgwf: iter =   96      grad =          -0.000023      Eb(Ry) =      -4.507076
cgwf: iter =   97      grad =          -0.000022      Eb(Ry) =      -4.507077
cgwf: iter =   98      grad =          -0.000015      Eb(Ry) =      -4.507077
cgwf: iter =   99      grad =          -0.000028      Eb(Ry) =      -4.507078
cgwf: iter =  100      grad =          -0.000022      Eb(Ry) =      -4.507079
cgwf: iter =  101      grad =          -0.000016      Eb(Ry) =      -4.507080
cgwf: iter =  102      grad =          -0.000020      Eb(Ry) =      -4.507080
cgwf: iter =  103      grad =          -0.000012      Eb(Ry) =      -4.507081
cgwf: iter =  104      grad =          -0.000009      Eb(Ry) =      -4.507081
cgwf: iter =  105      grad =          -0.000005      Eb(Ry) =      -4.507081
cgwf: iter =  106      grad =          -0.000005      Eb(Ry) =      -4.507081
cgwf: iter =  107      grad =          -0.000007      Eb(Ry) =      -4.507082
cgwf: iter =  108      grad =          -0.000003      Eb(Ry) =      -4.507082
cgwf: iter =  109      grad =          -0.000005      Eb(Ry) =      -4.507082
cgwf: iter =  110      grad =          -0.000004      Eb(Ry) =      -4.507082
cgwf: iter =  111      grad =          -0.000004      Eb(Ry) =      -4.507082
cgwf: iter =  112      grad =          -0.000005      Eb(Ry) =      -4.507082
cgwf: iter =  113      grad =          -0.000008      Eb(Ry) =      -4.507083
cgwf: iter =  114      grad =          -0.000007      Eb(Ry) =      -4.507083
cgwf: iter =  115      grad =          -0.000003      Eb(Ry) =      -4.507083
cgwf: iter =  116      grad =          -0.000002      Eb(Ry) =      -4.507083
cgwf: iter =  117      grad =          -0.000003      Eb(Ry) =      -4.507083
cgwf: iter =  118      grad =          -0.000001      Eb(Ry) =      -4.507083
cgwf: iter =  119      grad =          -0.000002      Eb(Ry) =      -4.507083
cgwf: iter =  120      grad =          -0.000001      Eb(Ry) =      -4.507083

cgwf:  CG tolerance reached

denmat: qtot (before DM normalization) =       8.0000
ordern: qtot (after  DM normalization) =       8.0000

siesta: Program's energy decomposition (eV):
siesta: Eions   =     815.854478
siesta: Ena     =     175.154399
siesta: Ekin    =     341.667405
siesta: Enl     =     -52.736793
siesta: DEna    =      -0.000001
siesta: DUscf   =       0.000000
siesta: DUext   =       0.000000
siesta: Exc     =    -109.951257
siesta: eta*DQ  =       0.000000
siesta: Emadel  =       0.000000
siesta: Eharris =    -466.430247
siesta: Etot    =    -461.720725
siesta: FreeEng =    -461.720725

siesta: iscf =    1
Eharris(eV) =       -466.4302  E_KS(eV) =       -461.7207  dDmax =  1.4398

timer: Routine,Calls,Time,% = IterSCF        1       6.287  68.77

ordern: enum =      8.0000
cgwf: iter =    1      grad =          -0.399356      Eb(Ry) =      -3.180185
cgwf: iter =    2      grad =          -0.678779      Eb(Ry) =      -3.221615
cgwf: iter =    3      grad =          -0.107738      Eb(Ry) =      -3.229880
cgwf: iter =    4      grad =          -0.072376      Eb(Ry) =      -3.235209
cgwf: iter =    5      grad =          -0.017114      Eb(Ry) =      -3.237947
cgwf: iter =    6      grad =          -0.005643      Eb(Ry) =      -3.238531
cgwf: iter =    7      grad =          -0.005506      Eb(Ry) =      -3.238655
cgwf: iter =    8      grad =          -0.001213      Eb(Ry) =      -3.238893
cgwf: iter =    9      grad =          -0.000972      Eb(Ry) =      -3.239074
cgwf: iter =   10      grad =          -0.002006      Eb(Ry) =      -3.239120
cgwf: iter =   11      grad =          -0.004451      Eb(Ry) =      -3.239213
cgwf: iter =   12      grad =          -0.001091      Eb(Ry) =      -3.239381
cgwf: iter =   13      grad =          -0.001821      Eb(Ry) =      -3.239525
cgwf: iter =   14      grad =          -0.001123      Eb(Ry) =      -3.239574
cgwf: iter =   15      grad =          -0.000774      Eb(Ry) =      -3.239605
cgwf: iter =   16      grad =          -0.000764      Eb(Ry) =      -3.239633
cgwf: iter =   17      grad =          -0.000840      Eb(Ry) =      -3.239671
cgwf: iter =   18      grad =          -0.000652      Eb(Ry) =      -3.239689
cgwf: iter =   19      grad =          -0.000584      Eb(Ry) =      -3.239733
cgwf: iter =   20      grad =          -0.000216      Eb(Ry) =      -3.239750
cgwf: iter =   21      grad =          -0.000682      Eb(Ry) =      -3.239762
cgwf: iter =   22      grad =          -0.000590      Eb(Ry) =      -3.239791
cgwf: iter =   23      grad =          -0.000259      Eb(Ry) =      -3.239806
cgwf: iter =   24      grad =          -0.000398      Eb(Ry) =      -3.239829
cgwf: iter =   25      grad =          -0.000367      Eb(Ry) =      -3.239841
cgwf: iter =   26      grad =          -0.000461      Eb(Ry) =      -3.239853
cgwf: iter =   27      grad =          -0.000299      Eb(Ry) =      -3.239879
cgwf: iter =   28      grad =          -0.000336      Eb(Ry) =      -3.239891
cgwf: iter =   29      grad =          -0.000281      Eb(Ry) =      -3.239905
cgwf: iter =   30      grad =          -0.000248      Eb(Ry) =      -3.239912
cgwf: iter =   31      grad =          -0.000129      Eb(Ry) =      -3.239924
cgwf: iter =   32      grad =          -0.000080      Eb(Ry) =      -3.239927
cgwf: iter =   33      grad =          -0.000047      Eb(Ry) =      -3.239929
cgwf: iter =   34      grad =          -0.000056      Eb(Ry) =      -3.239934
cgwf: iter =   35      grad =          -0.000081      Eb(Ry) =      -3.239937
cgwf: iter =   36      grad =          -0.000079      Eb(Ry) =      -3.239940
cgwf: iter =   37      grad =          -0.000104      Eb(Ry) =      -3.239943
cgwf: iter =   38      grad =          -0.000037      Eb(Ry) =      -3.239947
cgwf: iter =   39      grad =          -0.000070      Eb(Ry) =      -3.239950
cgwf: iter =   40      grad =          -0.000038      Eb(Ry) =      -3.239951
cgwf: iter =   41      grad =          -0.000038      Eb(Ry) =      -3.239953
cgwf: iter =   42      grad =          -0.000025      Eb(Ry) =      -3.239955
cgwf: iter =   43      grad =          -0.000028      Eb(Ry) =      -3.239956
cgwf: iter =   44      grad =          -0.000028      Eb(Ry) =      -3.239957
cgwf: iter =   45      grad =          -0.000029      Eb(Ry) =      -3.239958
cgwf: iter =   46      grad =          -0.000022      Eb(Ry) =      -3.239960
cgwf: iter =   47      grad =          -0.000015      Eb(Ry) =      -3.239961
cgwf: iter =   48      grad =          -0.000017      Eb(Ry) =      -3.239961
cgwf: iter =   49      grad =          -0.000019      Eb(Ry) =      -3.239962
cgwf: iter =   50      grad =          -0.000015      Eb(Ry) =      -3.239963
cgwf: iter =   51      grad =          -0.000012      Eb(Ry) =      -3.239963
cgwf: iter =   52      grad =          -0.000012      Eb(Ry) =      -3.239964
cgwf: iter =   53      grad =          -0.000014      Eb(Ry) =      -3.239964
cgwf: iter =   54      grad =          -0.000016      Eb(Ry) =      -3.239965
cgwf: iter =   55      grad =          -0.000008      Eb(Ry) =      -3.239966
cgwf: iter =   56      grad =          -0.000020      Eb(Ry) =      -3.239966
cgwf: iter =   57      grad =          -0.000016      Eb(Ry) =      -3.239967
cgwf: iter =   58      grad =          -0.000007      Eb(Ry) =      -3.239967
cgwf: iter =   59      grad =          -0.000006      Eb(Ry) =      -3.239968
cgwf: iter =   60      grad =          -0.000013      Eb(Ry) =      -3.239968
cgwf: iter =   61      grad =          -0.000015      Eb(Ry) =      -3.239969
cgwf: iter =   62      grad =          -0.000018      Eb(Ry) =      -3.239969
cgwf: iter =   63      grad =          -0.000015      Eb(Ry) =      -3.239970
cgwf: iter =   64      grad =          -0.000013      Eb(Ry) =      -3.239972
cgwf: iter =   65      grad =          -0.000019      Eb(Ry) =      -3.239972
cgwf: iter =   66      grad =          -0.000004      Eb(Ry) =      -3.239972
cgwf: iter =   67      grad =          -0.000002      Eb(Ry) =      -3.239973
cgwf: iter =   68      grad =          -0.000001      Eb(Ry) =      -3.239973
cgwf: iter =   69      grad =          -0.000002      Eb(Ry) =      -3.239973
cgwf: iter =   70      grad =          -0.000001      Eb(Ry) =      -3.239973

cgwf:  CG tolerance reached

denmat: qtot (before DM normalization) =       8.0000
ordern: qtot (after  DM normalization) =       8.0000

siesta: iscf =    2
Eharris(eV) =       -466.8697  E_KS(eV) =       -465.2427  dDmax =  0.1763


ordern: enum =      8.0000
cgwf: iter =    1      grad =          -0.082011      Eb(Ry) =      -3.657845
cgwf: iter =    2      grad =          -0.086342      Eb(Ry) =      -3.667810
cgwf: iter =    3      grad =          -0.015492      Eb(Ry) =      -3.668786
cgwf: iter =    4      grad =          -0.008899      Eb(Ry) =      -3.669926
cgwf: iter =    5      grad =          -0.001209      Eb(Ry) =      -3.670134
cgwf: iter =    6      grad =          -0.000472      Eb(Ry) =      -3.670169
cgwf: iter =    7      grad =          -0.000837      Eb(Ry) =      -3.670203
cgwf: iter =    8      grad =          -0.000372      Eb(Ry) =      -3.670234
cgwf: iter =    9      grad =          -0.000842      Eb(Ry) =      -3.670248
cgwf: iter =   10      grad =          -0.000264      Eb(Ry) =      -3.670277
cgwf: iter =   11      grad =          -0.000375      Eb(Ry) =      -3.670291
cgwf: iter =   12      grad =          -0.000937      Eb(Ry) =      -3.670311
cgwf: iter =   13      grad =          -0.000398      Eb(Ry) =      -3.670331
cgwf: iter =   14      grad =          -0.000342      Eb(Ry) =      -3.670347
cgwf: iter =   15      grad =          -0.000369      Eb(Ry) =      -3.670362
cgwf: iter =   16      grad =          -0.000420      Eb(Ry) =      -3.670373
cgwf: iter =   17      grad =          -0.000313      Eb(Ry) =      -3.670383
cgwf: iter =   18      grad =          -0.000227      Eb(Ry) =      -3.670404
cgwf: iter =   19      grad =          -0.000238      Eb(Ry) =      -3.670412
cgwf: iter =   20      grad =          -0.000296      Eb(Ry) =      -3.670418
cgwf: iter =   21      grad =          -0.000080      Eb(Ry) =      -3.670430
cgwf: iter =   22      grad =          -0.000051      Eb(Ry) =      -3.670432
cgwf: iter =   23      grad =          -0.000148      Eb(Ry) =      -3.670435
cgwf: iter =   24      grad =          -0.000080      Eb(Ry) =      -3.670439
cgwf: iter =   25      grad =          -0.000038      Eb(Ry) =      -3.670441
cgwf: iter =   26      grad =          -0.000047      Eb(Ry) =      -3.670444
cgwf: iter =   27      grad =          -0.000043      Eb(Ry) =      -3.670445
cgwf: iter =   28      grad =          -0.000053      Eb(Ry) =      -3.670447
cgwf: iter =   29      grad =          -0.000043      Eb(Ry) =      -3.670449
cgwf: iter =   30      grad =          -0.000054      Eb(Ry) =      -3.670451
cgwf: iter =   31      grad =          -0.000047      Eb(Ry) =      -3.670453
cgwf: iter =   32      grad =          -0.000025      Eb(Ry) =      -3.670454
cgwf: iter =   33      grad =          -0.000014      Eb(Ry) =      -3.670455
cgwf: iter =   34      grad =          -0.000033      Eb(Ry) =      -3.670456
cgwf: iter =   35      grad =          -0.000020      Eb(Ry) =      -3.670457
cgwf: iter =   36      grad =          -0.000014      Eb(Ry) =      -3.670457
cgwf: iter =   37      grad =          -0.000024      Eb(Ry) =      -3.670458
cgwf: iter =   38      grad =          -0.000051      Eb(Ry) =      -3.670459
cgwf: iter =   39      grad =          -0.000032      Eb(Ry) =      -3.670461
cgwf: iter =   40      grad =          -0.000046      Eb(Ry) =      -3.670464
cgwf: iter =   41      grad =          -0.000025      Eb(Ry) =      -3.670465
cgwf: iter =   42      grad =          -0.000011      Eb(Ry) =      -3.670465
cgwf: iter =   43      grad =          -0.000005      Eb(Ry) =      -3.670466
cgwf: iter =   44      grad =          -0.000006      Eb(Ry) =      -3.670466
cgwf: iter =   45      grad =          -0.000005      Eb(Ry) =      -3.670466
cgwf: iter =   46      grad =          -0.000002      Eb(Ry) =      -3.670467
cgwf: iter =   47      grad =          -0.000003      Eb(Ry) =      -3.670467
cgwf: iter =   48      grad =          -0.000002      Eb(Ry) =      -3.670467

cgwf:  CG tolerance reached

denmat: qtot (before DM normalization) =       8.0000
ordern: qtot (after  DM normalization) =       8.0000

siesta: iscf =    3
Eharris(eV) =       -465.9264  E_KS(eV) =       -465.4658  dDmax =  0.0511


ordern: enum =      8.0000
cgwf: iter =    1      grad =          -0.006697      Eb(Ry) =      -3.795065
cgwf: iter =    2      grad =          -0.010868      Eb(Ry) =      -3.795804
cgwf: iter =    3      grad =          -0.001310      Eb(Ry) =      -3.795925
cgwf: iter =    4      grad =          -0.001386      Eb(Ry) =      -3.795999
cgwf: iter =    5      grad =          -0.000090      Eb(Ry) =      -3.796038
cgwf: iter =    6      grad =          -0.000076      Eb(Ry) =      -3.796043
cgwf: iter =    7      grad =          -0.000065      Eb(Ry) =      -3.796046
cgwf: iter =    8      grad =          -0.000034      Eb(Ry) =      -3.796047
cgwf: iter =    9      grad =          -0.000037      Eb(Ry) =      -3.796048
cgwf: iter =   10      grad =          -0.000048      Eb(Ry) =      -3.796050
cgwf: iter =   11      grad =          -0.000039      Eb(Ry) =      -3.796051
cgwf: iter =   12      grad =          -0.000058      Eb(Ry) =      -3.796056
cgwf: iter =   13      grad =          -0.000067      Eb(Ry) =      -3.796059
cgwf: iter =   14      grad =          -0.000059      Eb(Ry) =      -3.796061
cgwf: iter =   15      grad =          -0.000040      Eb(Ry) =      -3.796062
cgwf: iter =   16      grad =          -0.000030      Eb(Ry) =      -3.796064
cgwf: iter =   17      grad =          -0.000036      Eb(Ry) =      -3.796065
cgwf: iter =   18      grad =          -0.000023      Eb(Ry) =      -3.796066
cgwf: iter =   19      grad =          -0.000040      Eb(Ry) =      -3.796067
cgwf: iter =   20      grad =          -0.000010      Eb(Ry) =      -3.796069
cgwf: iter =   21      grad =          -0.000019      Eb(Ry) =      -3.796069
cgwf: iter =   22      grad =          -0.000008      Eb(Ry) =      -3.796070
cgwf: iter =   23      grad =          -0.000010      Eb(Ry) =      -3.796070
cgwf: iter =   24      grad =          -0.000002      Eb(Ry) =      -3.796070
cgwf: iter =   25      grad =          -0.000007      Eb(Ry) =      -3.796071
cgwf: iter =   26      grad =          -0.000004      Eb(Ry) =      -3.796071
cgwf: iter =   27      grad =          -0.000009      Eb(Ry) =      -3.796071
cgwf: iter =   28      grad =          -0.000004      Eb(Ry) =      -3.796071
cgwf: iter =   29      grad =          -0.000004      Eb(Ry) =      -3.796072
cgwf: iter =   30      grad =          -0.000004      Eb(Ry) =      -3.796072
cgwf: iter =   31      grad =          -0.000004      Eb(Ry) =      -3.796072
cgwf: iter =   32      grad =          -0.000003      Eb(Ry) =      -3.796072
cgwf: iter =   33      grad =          -0.000003      Eb(Ry) =      -3.796072
cgwf: iter =   34      grad =          -0.000001      Eb(Ry) =      -3.796072

cgwf:  CG tolerance reached

denmat: qtot (before DM normalization) =       8.0000
ordern: qtot (after  DM normalization) =       8.0000

siesta: iscf =    4
Eharris(eV) =       -465.8472  E_KS(eV) =       -465.5658  dDmax =  0.0147


ordern: enum =      8.0000
cgwf: iter =    1      grad =          -0.000612      Eb(Ry) =      -3.833471
cgwf: iter =    2      grad =          -0.000885      Eb(Ry) =      -3.833536
cgwf: iter =    3      grad =          -0.000123      Eb(Ry) =      -3.833546
cgwf: iter =    4      grad =          -0.000133      Eb(Ry) =      -3.833553
cgwf: iter =    5      grad =          -0.000016      Eb(Ry) =      -3.833557
cgwf: iter =    6      grad =          -0.000008      Eb(Ry) =      -3.833557
cgwf: iter =    7      grad =          -0.000006      Eb(Ry) =      -3.833558
cgwf: iter =    8      grad =          -0.000004      Eb(Ry) =      -3.833558
cgwf: iter =    9      grad =          -0.000013      Eb(Ry) =      -3.833558
cgwf: iter =   10      grad =          -0.000003      Eb(Ry) =      -3.833558
cgwf: iter =   11      grad =          -0.000005      Eb(Ry) =      -3.833559
cgwf: iter =   12      grad =          -0.000006      Eb(Ry) =      -3.833559
cgwf: iter =   13      grad =          -0.000002      Eb(Ry) =      -3.833559
cgwf: iter =   14      grad =          -0.000006      Eb(Ry) =      -3.833560
cgwf: iter =   15      grad =          -0.000003      Eb(Ry) =      -3.833560
cgwf: iter =   16      grad =          -0.000002      Eb(Ry) =      -3.833560
cgwf: iter =   17      grad =          -0.000005      Eb(Ry) =      -3.833560
cgwf: iter =   18      grad =          -0.000001      Eb(Ry) =      -3.833560
cgwf: iter =   19      grad =          -0.000002      Eb(Ry) =      -3.833560
cgwf: iter =   20      grad =          -0.000002      Eb(Ry) =      -3.833561
cgwf: iter =   21      grad =          -0.000003      Eb(Ry) =      -3.833561
cgwf: iter =   22      grad =          -0.000001      Eb(Ry) =      -3.833561
cgwf: iter =   23      grad =          -0.000001      Eb(Ry) =      -3.833561
cgwf: iter =   24      grad =          -0.000001      Eb(Ry) =      -3.833561
cgwf: iter =   25      grad =          -0.000001      Eb(Ry) =      -3.833561

cgwf:  CG tolerance reached

denmat: qtot (before DM normalization) =       8.0000
ordern: qtot (after  DM normalization) =       8.0000

siesta: iscf =    5
Eharris(eV) =       -465.8397  E_KS(eV) =       -465.6347  dDmax =  0.0096


ordern: enum =      8.0000
cgwf: iter =    1      grad =          -0.000063      Eb(Ry) =      -3.844767
cgwf: iter =    2      grad =          -0.000026      Eb(Ry) =      -3.844774
cgwf: iter =    3      grad =          -0.000020      Eb(Ry) =      -3.844775
cgwf: iter =    4      grad =          -0.000010      Eb(Ry) =      -3.844775
cgwf: iter =    5      grad =          -0.000005      Eb(Ry) =      -3.844776
cgwf: iter =    6      grad =          -0.000004      Eb(Ry) =      -3.844776
cgwf: iter =    7      grad =          -0.000001      Eb(Ry) =      -3.844776
cgwf: iter =    8      grad =          -0.000001      Eb(Ry) =      -3.844776

cgwf:  CG tolerance reached

denmat: qtot (before DM normalization) =       8.0000
ordern: qtot (after  DM normalization) =       8.0000

siesta: iscf =    6
Eharris(eV) =       -465.8389  E_KS(eV) =       -465.6858  dDmax =  0.0065


ordern: enum =      8.0000
cgwf: iter =    1      grad =          -0.000008      Eb(Ry) =      -3.848180
cgwf: iter =    2      grad =          -0.000011      Eb(Ry) =      -3.848181
cgwf: iter =    3      grad =          -0.000003      Eb(Ry) =      -3.848181
cgwf: iter =    4      grad =          -0.000001      Eb(Ry) =      -3.848181
cgwf: iter =    5      grad =          -0.000001      Eb(Ry) =      -3.848181

cgwf:  CG tolerance reached

denmat: qtot (before DM normalization) =       8.0000
ordern: qtot (after  DM normalization) =       8.0000

siesta: iscf =    7
Eharris(eV) =       -465.8387  E_KS(eV) =       -465.7240  dDmax =  0.0049


ordern: enum =      8.0000
cgwf: iter =    1      grad =          -0.000002      Eb(Ry) =      -3.849130
cgwf: iter =    2      grad =          -0.000001      Eb(Ry) =      -3.849130

cgwf:  CG tolerance reached

denmat: qtot (before DM normalization) =       8.0000
ordern: qtot (after  DM normalization) =       8.0000

siesta: iscf =    8
Eharris(eV) =       -465.8387  E_KS(eV) =       -465.7527  dDmax =  0.0036


ordern: enum =      8.0000
cgwf: iter =    1      grad =          -0.000001      Eb(Ry) =      -3.849608

cgwf:  CG tolerance reached

denmat: qtot (before DM normalization) =       8.0000
ordern: qtot (after  DM normalization) =       8.0000

siesta: iscf =    9
Eharris(eV) =       -465.8387  E_KS(eV) =       -465.7742  dDmax =  0.0027


ordern: enum =      8.0000
cgwf: iter =    1      grad =          -0.000002      Eb(Ry) =      -3.849855

cgwf:  CG tolerance reached

denmat: qtot (before DM normalization) =       8.0000
ordern: qtot (after  DM normalization) =       8.0000

siesta: iscf =   10
Eharris(eV) =       -465.8387  E_KS(eV) =       -465.7903  dDmax =  0.0020


ordern: enum =      8.0000
cgwf: iter =    1      grad =          -0.000001      Eb(Ry) =      -3.850022

cgwf:  CG tolerance reached

denmat: qtot (before DM normalization) =       8.0000
ordern: qtot (after  DM normalization) =       8.0000

siesta: iscf =   11
Eharris(eV) =       -465.8387  E_KS(eV) =       -465.8024  dDmax =  0.0015


ordern: enum =      8.0000
cgwf: iter =    1      grad =          -0.000002      Eb(Ry) =      -3.850081

cgwf:  CG tolerance reached

denmat: qtot (before DM normalization) =       8.0000
ordern: qtot (after  DM normalization) =       8.0000

siesta: iscf =   12
Eharris(eV) =       -465.8387  E_KS(eV) =       -465.8115  dDmax =  0.0011


ordern: enum =      8.0000
cgwf: iter =    1      grad =          -0.000001      Eb(Ry) =      -3.850105

cgwf:  CG tolerance reached

denmat: qtot (before DM normalization) =       8.0000
ordern: qtot (after  DM normalization) =       8.0000

siesta: iscf =   13
Eharris(eV) =       -465.8387  E_KS(eV) =       -465.8183  dDmax =  0.0009


ordern: enum =      8.0000
cgwf: iter =    1      grad =          -0.000002      Eb(Ry) =      -3.850073

cgwf:  CG tolerance reached

denmat: qtot (before DM normalization) =       8.0000
ordern: qtot (after  DM normalization) =       8.0000

siesta: iscf =   14
Eharris(eV) =       -465.8387  E_KS(eV) =       -465.8234  dDmax =  0.0006


ordern: enum =      8.0000
cgwf: iter =    1      grad =          -0.000001      Eb(Ry) =      -3.850037

cgwf:  CG tolerance reached

denmat: qtot (before DM normalization) =       8.0000
ordern: qtot (after  DM normalization) =       8.0000

siesta: iscf =   15
Eharris(eV) =       -465.8387  E_KS(eV) =       -465.8272  dDmax =  0.0005


ordern: enum =      8.0000
cgwf: iter =    1      grad =          -0.000001      Eb(Ry) =      -3.849974

cgwf:  CG tolerance reached

denmat: qtot (before DM normalization) =       8.0000
ordern: qtot (after  DM normalization) =       8.0000

siesta: iscf =   16
Eharris(eV) =       -465.8387  E_KS(eV) =       -465.8301  dDmax =  0.0004


ordern: enum =      8.0000
cgwf: iter =    1      grad =           0.000000      Eb(Ry) =      -3.849923

cgwf:  CG tolerance reached

denmat: qtot (before DM normalization) =       8.0000
ordern: qtot (after  DM normalization) =       8.0000

siesta: iscf =   17
Eharris(eV) =       -465.8387  E_KS(eV) =       -465.8322  dDmax =  0.0003


ordern: enum =      8.0000
cgwf: iter =    1      grad =          -0.000001      Eb(Ry) =      -3.849866

cgwf:  CG tolerance reached

denmat: qtot (before DM normalization) =       8.0000
ordern: qtot (after  DM normalization) =       8.0000

siesta: iscf =   18
Eharris(eV) =       -465.8387  E_KS(eV) =       -465.8338  dDmax =  0.0002


ordern: enum =      8.0000
cgwf: iter =    1      grad =           0.000000      Eb(Ry) =      -3.849823

cgwf:  CG tolerance reached

denmat: qtot (before DM normalization) =       8.0000
ordern: qtot (after  DM normalization) =       8.0000

siesta: iscf =   19
Eharris(eV) =       -465.8387  E_KS(eV) =       -465.8351  dDmax =  0.0002


ordern: enum =      8.0000
cgwf: iter =    1      grad =          -0.000001      Eb(Ry) =      -3.849784

cgwf:  CG tolerance reached

denmat: qtot (before DM normalization) =       8.0000
ordern: qtot (after  DM normalization) =       8.0000

siesta: iscf =   20
Eharris(eV) =       -465.8387  E_KS(eV) =       -465.8359  dDmax =  0.0001


ordern: enum =      8.0000
cgwf: iter =    1      grad =           0.000000      Eb(Ry) =      -3.849756

cgwf:  CG tolerance reached

denmat: qtot (before DM normalization) =       8.0000
ordern: qtot (after  DM normalization) =       8.0000

siesta: iscf =   21
Eharris(eV) =       -465.8387  E_KS(eV) =       -465.8367  dDmax =  0.0001


ordern: enum =      8.0000
cgwf: iter =    1      grad =           0.000000      Eb(Ry) =      -3.849735

cgwf:  CG tolerance reached

denmat: qtot (before DM normalization) =       8.0000
ordern: qtot (after  DM normalization) =       8.0000

siesta: iscf =   22
Eharris(eV) =       -465.8387  E_KS(eV) =       -465.8372  dDmax =  0.0001


siesta: E_KS(eV) =      -465.8375

siesta: Atomic forces (eV/Ang):
----------------------------------------
 Tot    0.000001    0.055871    0.000021
----------------------------------------
 Max    0.721938
 Res    0.402956    sqrt( Sum f_i^2 / 3N )
----------------------------------------
 Max    0.721938    constrained

siesta: Temp_ion =       0.000 K


* Maximum dynamic memory allocated =     4 MB
 siesta: ERROR: PDOS implemented only with diagon

siesta: Program's energy decomposition (eV):
siesta:-Eions   =    -815.854478
siesta: Ena     =     175.154399
siesta: Ekin    =     350.760622
siesta: Enl     =     -61.952439
siesta: DEna    =      -1.763371
siesta: DUscf   =       0.727367
siesta: DUext   =       0.000000
siesta: Exc     =    -112.909626
siesta: eta*DQ  =       0.000000
siesta: Emadel  =       0.000000
siesta: Ekinion =       0.000000
siesta: Eharris =    -465.839060
siesta: Etot    =    -465.837527
siesta: FreeEng =    -465.837527

siesta: Final energy (eV):
siesta:       Kinetic =     350.760622
siesta:       Hartree =     382.603694
siesta:    Ext. field =       0.000000
siesta:   Exch.-corr. =    -112.909626
siesta:  Ion-electron =   -1072.786434
siesta:       Ion-ion =     -13.505783
siesta:       Ekinion =       0.000000
siesta:         Total =    -465.837527

siesta: Atomic forces (eV/Ang):
siesta:    1   -0.000033   -0.509254    0.000025
siesta:    2    0.721938    0.282558   -0.000004
siesta:    3   -0.721904    0.282567    0.000000
siesta: ----------------------------------------
siesta:  Tot    0.000001    0.055871    0.000021

siesta: Stress tensor (eV/Ang**3):
siesta:    -0.012639    0.000000    0.000000
siesta:     0.000000   -0.002323    0.000000
siesta:     0.000000    0.000000    0.013998

siesta: Cell volume =        235.378012 Ang**3

siesta: Pressure:
siesta:                Solid            Molecule  Units
siesta:           0.00000350         -0.00001813  Ry/Bohr**3
siesta:           0.00032125         -0.00166467  eV/Ang**3
siesta:           0.51469824         -2.66712919  kBar

siesta: Electric dipole (a.u.)  =    0.000001    0.558664   -0.000001
siesta: Electric dipole (Debye) =    0.000003    1.419984   -0.000002


* Maximum dynamic memory allocated : Node    0 =     4 MB
* Maximum memory occured during ranger                        

timer: CPU execution times:
timer:  Routine       Calls   Time/call    Tot.time        %
timer:  siesta            1      10.898      10.898    99.98
timer:  Setup             1       1.112       1.112    10.20
timer:  bands             1       0.000       0.000     0.00
timer:  KSV_init          1       0.001       0.001     0.01
timer:  IterMD            1       9.781       9.781    89.74
timer:  hsparse           2       0.004       0.009     0.08
timer:  overfsm           2       0.867       1.734    15.91
timer:  IterSCF          23       0.349       8.031    73.67
timer:  kinefsm           2       0.828       1.655    15.19
timer:  nlefsm            2       2.167       4.333    39.76
timer:  DHSCF            23       0.076       1.746    16.02
timer:  DHSCF1            1       0.056       0.056     0.51
timer:  DHSCF2            1       0.117       0.117     1.07
timer:  REORD           186       0.000       0.054     0.49
timer:  POISON           24       0.013       0.316     2.90
timer:  DHSCF3           23       0.062       1.432    13.14
timer:  rhoofd           23       0.018       0.417     3.82
timer:  CELLXC           23       0.012       0.278     2.55
timer:  vmat             23       0.013       0.292     2.68
timer:  gradient        348       0.000       0.039     0.36
timer:  ener3           326       0.000       0.070     0.64
timer:  denmat           22       0.000       0.007     0.06
timer:  DHSCF4            1       0.139       0.139     1.27
timer:  dfscf             1       0.122       0.122     1.12
  
>> End of run:  25-SEP-2001  18:11:54
