Siesta Version: siesta-trunk-479--so-ramon
Architecture  : ifort_O-1018-2_serial
Compiler flags: ifort    -w -O2 -mp
PP flags      : -DGFORTRAN -DFC_HAVE_FLUSH -DFC_HAVE_ABORT           
SERIAL version

* Running in serial mode
>> Start of run:  11-DEC-2015  21:50:34

                           ***********************       
                           *  WELCOME TO SIESTA  *       
                           ***********************       

reinit: Reading from standard input
************************** Dump of input data file ****************************
SystemName              pt2
SystemLabel             pt2
NumberOfAtoms           2
NumberOfSpecies         1
%block Chemical_Species_label
        1       78      Pt
%endblock Chemical_Species_label
PAO.EnergyShift  100 meV
PAO.SplitNorm      0.15
%Block PAO.Basis
Pt  2
n=6   0   2   P
     0.0  0.0
n=5   2   2
     0.0  0.0
%EndBlock PAO.Basis
AtomicCoordinatesFormat NotScaledCartesianAng
%block LatticeVectors
     1.00      .00      .00
      .00     1.00      .00
      .00      .00     1.00
%endblock LatticeVectors
LatticeConstant  20.0 Ang
%block AtomicCoordinatesAndAtomicSpecies
     -1.19940   0.00000   0.00000  1
      1.19940   0.00000   0.00000  1
%endblock AtomicCoordinatesAndAtomicSpecies
SpinPolarized           T
NonCollinearSpin        T
SpinOrbit               T
#WriteOrbMom             F
%block DM.InitSpin
 1  +1.   0.   0.
 2  +1.   0.   0.
%endblock DM.InitSpin
xc.functional           GGA
xc.authors              PBE
MeshCutoff              300. Ry
SolutionMethod          diagon
ElectronicTemperature   50 meV
DM.Tolerance            1.0E-5
MaxSCFIterations        1000
DM.MixingWeight         0.003
DM.NumberPulay          3
DM.UseSaveDM            T
DM.NumberKick           50
#Diag.DivideAndConquer   F
WriteMullikenPop       1
WriteEigenvalues       T
WriteForces            T
WriteCoorStep          T
#WriteCoorXmol          F
#WriteMDXmol            F
#%block ProjectedDensityOfStates
#-20.00 10.00 0.200 500 eV
#%endblock ProjectedDensityOfStates
#MD.TypeOfRun    CG
#MD.NumCGsteps   100
#MD.MaxCGDispl   0.10 Ang
#MD.MaxForceTol  0.01 eV/Ang
#MD.UseSaveCG   .true.
#MD.UseSaveXV   .true.
************************** End of input data file *****************************

reinit: -----------------------------------------------------------------------
reinit: System Name: pt2
reinit: -----------------------------------------------------------------------
reinit: System Label: pt2                                                         
reinit: -----------------------------------------------------------------------

initatom: Reading input for the pseudopotentials and atomic orbitals ----------
 Species number:            1  Label: Pt Atomic number:          78
Ground state valence configuration:   6s01  5d09
Reading pseudopotential information in formatted form from Pt.psf

Pseudopotential generated from a relativistic atomic calculation
There are spin-orbit pseudopotentials available
Spin-orbit interaction is not included in this calculation

Valence configuration for pseudopotential generation:
6s( 1.00) rc: 2.24
6p( 0.00) rc: 2.73
5d( 9.00) rc: 1.24
5f( 0.00) rc: 2.98
For Pt, standard SIESTA heuristics set lmxkb to 3
 (one more than the basis l, including polarization orbitals).
Use PS.lmax or PS.KBprojectors blocks to override.
 Warning: Empty PAO shell. l =           1
 Will have a KB projector anyway...

<basis_specs>
===============================================================================
Pt                   Z=  78    Mass=  195.08        Charge= 0.17977+309
Lmxo=2 Lmxkb= 3    BasisType=split      Semic=F
L=0  Nsemic=0  Cnfigmx=6
          n=1  nzeta=2  polorb=1
            splnorm:   0.15000    
               vcte:    0.0000    
               rinn:    0.0000    
               qcoe:    0.0000    
               qyuk:    0.0000    
               qwid:   0.10000E-01
                rcs:    0.0000      0.0000    
            lambdas:   1.00000     1.00000    
L=1  Nsemic=0  Cnfigmx=6
L=2  Nsemic=0  Cnfigmx=5
          n=1  nzeta=2  polorb=0
            splnorm:   0.15000    
               vcte:    0.0000    
               rinn:    0.0000    
               qcoe:    0.0000    
               qyuk:    0.0000    
               qwid:   0.10000E-01
                rcs:    0.0000      0.0000    
            lambdas:   1.00000     1.00000    
-------------------------------------------------------------------------------
L=0  Nkbl=1  erefs: 0.17977+309
L=1  Nkbl=1  erefs: 0.17977+309
L=2  Nkbl=1  erefs: 0.17977+309
L=3  Nkbl=1  erefs: 0.17977+309
===============================================================================
</basis_specs>

atom: Called for Pt                    (Z =  78)

read_vps: Pseudopotential generation method:
read_vps: ATM 3.2.2 Troullier-Martins                       
Total valence charge:   10.00000

read_vps: Pseudopotential includes a core correction:
read_vps: Pseudo-core for xc-correction

xc_check: Exchange-correlation functional:
xc_check: GGA Perdew, Burke & Ernzerhof 1996
V l=0 = -2*Zval/r beyond r=  3.0596
V l=1 = -2*Zval/r beyond r=  3.0596
V l=2 = -2*Zval/r beyond r=  3.0596
V l=3 = -2*Zval/r beyond r=  3.0981
All V_l potentials equal beyond r=  2.9104
This should be close to max(r_c) in ps generation
All pots = -2*Zval/r beyond r=  3.0981

VLOCAL1: 99.0% of the norm of Vloc inside      5.125 Ry
VLOCAL1: 99.9% of the norm of Vloc inside     11.679 Ry
atom: Maximum radius for 4*pi*r*r*local-pseudopot. charge    3.51058
atom: Maximum radius for r*vlocal+2*Zval:    3.09807
GHOST: No ghost state for L =  0
GHOST: No ghost state for L =  1
GHOST: No ghost state for L =  2
GHOST: No ghost state for L =  3

KBgen: Kleinman-Bylander projectors: 
   l= 0   rc=  3.297886   el= -0.413885   Ekb=  4.454381   kbcos=  0.246717
   l= 1   rc=  3.381373   el= -0.063071   Ekb=  1.998299   kbcos=  0.230762
   l= 2   rc=  3.137044   el= -0.454162   Ekb= -5.116612   kbcos= -0.676172
   l= 3   rc=  3.599455   el=  0.003169   Ekb= -0.935521   kbcos= -0.024370

KBgen: Total number of  Kleinman-Bylander projectors:   16
atom: -------------------------------------------------------------------------

atom: SANKEY-TYPE ORBITALS:
atom: Selected multiple-zeta basis: split     

SPLIT: Orbitals with angular momentum L= 0

SPLIT: Basis orbitals for state 6s

SPLIT: PAO cut-off radius determined from an
SPLIT: energy shift=  0.007350 Ry

   izeta = 1
                 lambda =    1.000000
                     rc =    7.158402
                 energy =   -0.407576
                kinetic =    0.352573
    potential(screened) =   -0.760148
       potential(ionic) =   -7.385835

   izeta = 2
                 rmatch =    6.009165
              splitnorm =    0.150000
                 energy =   -0.341372
                kinetic =    0.579404
    potential(screened) =   -0.920777
       potential(ionic) =   -8.017759

SPLIT: Orbitals with angular momentum L= 2

SPLIT: Basis orbitals for state 5d

SPLIT: PAO cut-off radius determined from an
SPLIT: energy shift=  0.007350 Ry

   izeta = 1
                 lambda =    1.000000
                     rc =    5.044431
                 energy =   -0.446663
                kinetic =    4.610144
    potential(screened) =   -5.056807
       potential(ionic) =  -13.997492

   izeta = 2
                 rmatch =    3.021582
              splitnorm =    0.150000
                 energy =   -0.194009
                kinetic =    6.450170
    potential(screened) =   -6.644179
       potential(ionic) =  -16.245470

POLgen: Perturbative polarization orbital with L=  1

POLgen: Polarization orbital for state 6s

   izeta = 1
                     rc =    7.158402
                 energy =   -0.090110
                kinetic =    0.622430
    potential(screened) =   -0.712540
       potential(ionic) =   -6.949247
atom: Total number of Sankey-type orbitals: 15

atm_pop: Valence configuration (for local Pseudopot. screening):
 6s( 1.00)                                                            
 6p( 0.00)                                                            
 5d( 9.00)                                                            
Vna: chval, zval:   10.00000  10.00000

Vna:  Cut-off radius for the neutral-atom potential:   7.158402
comcore: Pseudo-core radius Rcore=  4.130025

atom: _________________________________________________________________________

prinput: Basis input ----------------------------------------------------------

PAO.BasisType split     

%block ChemicalSpeciesLabel
    1   78 Pt                      # Species index, atomic number, species label
%endblock ChemicalSpeciesLabel

%block PAO.Basis                 # Define Basis set
Pt                    2                    # Species label, number of l-shells
 n=6   0   2 P   1                   # n, l, Nzeta, Polarization, NzetaPol
   7.158      6.009   
   1.000      1.000   
 n=5   2   2                         # n, l, Nzeta 
   5.044      3.022   
   1.000      1.000   
%endblock PAO.Basis

prinput: ----------------------------------------------------------------------

coor:   Atomic-coordinates input format  =     Cartesian coordinates
coor:                                          (in Angstroms)

siesta: Atomic coordinates (Bohr) and species
siesta:     -2.26654   0.00000   0.00000  1        1
siesta:      2.26654   0.00000   0.00000  1        2

siesta: System type = molecule  

initatomlists: Number of atoms, orbitals, and projectors:      2    30    32

siesta: ******************** Simulation parameters ****************************
siesta:
siesta: The following are some of the parameters of the simulation.
siesta: A complete list of the parameters used, including default values,
siesta: can be found in file out.fdf
siesta:
m_spin: SpOrb =  T
redata: Non-magnetic run                =     F
redata: SpinPolarized run                =     F
redata: Non-Collinear-spin run           =     F
redata: Spin-Orbit run                   =     T
redata: Time-Reversal Symmetry           =     F
redata: Number of spin components        =     4
redata: Long output                      =     F
redata: Number of Atomic Species         =        1
redata: Charge density info will appear in .RHO file
redata: Write Mulliken Pop.              =     Atomic and Orbital charges
redata: Mesh Cutoff                      =   300.0000  Ry
redata: Net charge of the system         =     0.0000 |e|
redata: Min. number of SCF Iter          =        0
redata: Max. number of SCF Iter          =     1000
redata: Mix DM or H after convergence    =     F
redata: Recompute H after scf cycle      =     F
redata: Performing Pulay mixing using    =     3 iterations
redata: Mix DM in first SCF step ?       =     F
redata: Write Pulay info on disk?        =     F
redata: Discard 1st Pulay DM after  kick =     F
redata: New DM Mixing Weight             =     0.0030
redata: New DM Occupancy tolerance       = 0.000000000001
redata: Kick with linear mixing every    =    50 iterations
redata: DM Mixing Weight for Kicks       =     0.5000
redata: DM Tolerance for SCF             =     0.000010
redata: Require (free) Energy convergence in SCF =     F
redata: DM (free)Energy tolerance for SCF =     0.000010 eV
redata: Require Harris convergence for SCF =     F
redata: DM Harris energy tolerance for SCF =     0.000010 eV
redata: Using Saved Data (generic)   =     F
redata: Use continuation files for DM    =     T
redata: Neglect nonoverlap interactions  =     F
redata: Method of Calculation            =     Diagonalization
redata: Divide and Conquer               =     T
redata: Electronic Temperature           =     0.0037  Ry
redata: Fix the spin of the system       =     F
redata: Dynamics option                  =     Single-point calculation
redata: ***********************************************************************
Total number of electrons:    20.000000
Total ionic charge:    20.000000
 Kpoints in:            1 . Kpoints trimmed:            1

siesta: k-grid: Number of k-points =     1
siesta: k-grid: Cutoff (effective) =    10.000 Ang
siesta: k-grid: Supercell and displacements
siesta: k-grid:    1   0   0      0.000
siesta: k-grid:    0   1   0      0.000
siesta: k-grid:    0   0   1      0.000

                     ====================================
                        Single-point calculation
                     ====================================

outcoor: Atomic coordinates (Ang):                          
   -1.19940000    0.00000000    0.00000000   1       1  Pt
    1.19940000    0.00000000    0.00000000   1       2  Pt

outcell: Unit cell vectors (Ang):
       20.000000    0.000000    0.000000
        0.000000   20.000000    0.000000
        0.000000    0.000000   20.000000

outcell: Cell vector modules (Ang)   :   20.000000   20.000000   20.000000
outcell: Cell angles (23,13,12) (deg):     90.0000     90.0000     90.0000
outcell: Cell volume (Ang**3)        :   8000.0000
New_DM. Step:     1
Initializing Density Matrix...

iodm: Reading Density Matrix from files
 qsol =    20.000000
 ++++++++++ Calling dhscf_init ++++++++++
 
New grid distribution:   1
           1       1:  108    1:  108    1:  108

InitMesh: MESH =   216 x   216 x   216 =    10077696
InitMesh: (bp) =   108 x   108 x   108 =     1259712
InitMesh: Mesh cutoff (required, used) =   300.000   322.366 Ry
ExtMesh (bp) on 0 =   192 x   192 x   192 =     7077888
PhiOnMesh: Number of (b)points on node 0 =              1259712
PhiOnMesh: nlist on node 0 =               514193
 
 ++++++++++ Leaving dhscf_init ++++++++++
 
 
++++++++++ Getting setup_hamiltonian ++++++++++
 
 
++++++++++ Leaving setup_hamiltonian ++++++++++
 
++++++++++ Getting compute_dm ++++++++++
 
h_spin_dim/e_spin_dim/spinor_dim =    8   4   2
 compute_dm: Calling diagon
 nuotot =    30
    nuo =    30
  maxuo =    30
    nhs = 2*(2*nuotot)*(2*nuo)   =  7200
   npsi = 2*(2*nuotot)*(2*maxuo) =  7200
   naux =           (2*nuotot)*5 =   300

stepf: Fermi-Dirac step function
 compute_dm: Leaving diagon
 qsol =    20.000000
 normalize_dm: Calculating tol 
 
++++++++++ Leaving compute_dm ++++++++++
 
 
++++++++++ Getting compute_energies ++++++++++
 
 
++++++++++ Leaving compute_energies ++++++++++

siesta: Program's energy decomposition (eV):
siesta: Ebs     =      -115.494934
siesta: Eions   =      1671.574203
siesta: Ena     =        29.270177
siesta: Ekin    =      1097.725563
siesta: Enl     =      -554.921308
siesta: Eso     =        -1.532040
siesta: DEna    =         5.526611
siesta: DUscf   =         0.920816
siesta: DUext   =         0.000000
siesta: Exc     =     -1709.936454
siesta: eta*DQ  =         0.000000
siesta: Emadel  =         0.000000
siesta: Emeta   =         0.000000
siesta: Emolmec =         0.000000
siesta: Ekinion =         0.000000
siesta: Eharris =     -2804.520837
siesta: Etot    =     -2804.520838
siesta: FreeEng =     -2804.654134

siesta: iscf      Eharris(eV)         E_KS(eV)      FreeEng(eV)      dDmax      Ef(eV)
   scf:    1     -2804.520837     -2804.520838     -2804.654134   0.000018   -4.226744
timer: Routine,Calls,Time,% =    IterSCF     1       9.663  54.80
 
++++++++++ Getting setup_hamiltonian ++++++++++
 
 
++++++++++ Leaving setup_hamiltonian ++++++++++
 
++++++++++ Getting compute_dm ++++++++++
 
h_spin_dim/e_spin_dim/spinor_dim =    8   4   2
 compute_dm: Calling diagon
 nuotot =    30
    nuo =    30
  maxuo =    30
    nhs = 2*(2*nuotot)*(2*nuo)   =  7200
   npsi = 2*(2*nuotot)*(2*maxuo) =  7200
   naux =           (2*nuotot)*5 =   300
 compute_dm: Leaving diagon
 qsol =    20.000000
 normalize_dm: Calculating tol 
 
++++++++++ Leaving compute_dm ++++++++++
 
 
++++++++++ Getting compute_energies ++++++++++
 
 
++++++++++ Leaving compute_energies ++++++++++
   scf:    2     -2804.520835     -2804.520837     -2804.654136   0.000189   -4.226761
 
++++++++++ Getting setup_hamiltonian ++++++++++
 
 
++++++++++ Leaving setup_hamiltonian ++++++++++
 
++++++++++ Getting compute_dm ++++++++++
 
h_spin_dim/e_spin_dim/spinor_dim =    8   4   2
 compute_dm: Calling diagon
 nuotot =    30
    nuo =    30
  maxuo =    30
    nhs = 2*(2*nuotot)*(2*nuo)   =  7200
   npsi = 2*(2*nuotot)*(2*maxuo) =  7200
   naux =           (2*nuotot)*5 =   300
 compute_dm: Leaving diagon
 qsol =    20.000000
 normalize_dm: Calculating tol 
 
++++++++++ Leaving compute_dm ++++++++++
 
 
++++++++++ Getting compute_energies ++++++++++
 
 
++++++++++ Leaving compute_energies ++++++++++
   scf:    3     -2804.520837     -2804.520838     -2804.654135   0.000016   -4.226745
Warning: unstable inversion in Pulayx - fallback to linear mixing
 
++++++++++ Getting setup_hamiltonian ++++++++++
 
 
++++++++++ Leaving setup_hamiltonian ++++++++++
 
++++++++++ Getting compute_dm ++++++++++
 
h_spin_dim/e_spin_dim/spinor_dim =    8   4   2
 compute_dm: Calling diagon
 nuotot =    30
    nuo =    30
  maxuo =    30
    nhs = 2*(2*nuotot)*(2*nuo)   =  7200
   npsi = 2*(2*nuotot)*(2*maxuo) =  7200
   naux =           (2*nuotot)*5 =   300
 compute_dm: Leaving diagon
 qsol =    20.000000
 normalize_dm: Calculating tol 
 
++++++++++ Leaving compute_dm ++++++++++
 
 
++++++++++ Getting compute_energies ++++++++++
 
 
++++++++++ Leaving compute_energies ++++++++++
   scf:    4     -2804.520837     -2804.520838     -2804.654135   0.000016   -4.226745
 
++++++++++ Getting setup_hamiltonian ++++++++++
 
 
++++++++++ Leaving setup_hamiltonian ++++++++++
 
++++++++++ Getting compute_dm ++++++++++
 
h_spin_dim/e_spin_dim/spinor_dim =    8   4   2
 compute_dm: Calling diagon
 nuotot =    30
    nuo =    30
  maxuo =    30
    nhs = 2*(2*nuotot)*(2*nuo)   =  7200
   npsi = 2*(2*nuotot)*(2*maxuo) =  7200
   naux =           (2*nuotot)*5 =   300
 compute_dm: Leaving diagon
 qsol =    20.000000
 normalize_dm: Calculating tol 
 
++++++++++ Leaving compute_dm ++++++++++
 
 
++++++++++ Getting compute_energies ++++++++++
 
 
++++++++++ Leaving compute_energies ++++++++++
   scf:    5     -2804.520837     -2804.520838     -2804.654134   0.000017   -4.226742
 
++++++++++ Getting setup_hamiltonian ++++++++++
 
 
++++++++++ Leaving setup_hamiltonian ++++++++++
 
++++++++++ Getting compute_dm ++++++++++
 
h_spin_dim/e_spin_dim/spinor_dim =    8   4   2
 compute_dm: Calling diagon
 nuotot =    30
    nuo =    30
  maxuo =    30
    nhs = 2*(2*nuotot)*(2*nuo)   =  7200
   npsi = 2*(2*nuotot)*(2*maxuo) =  7200
   naux =           (2*nuotot)*5 =   300
 compute_dm: Leaving diagon
 qsol =    20.000000
 normalize_dm: Calculating tol 
 
++++++++++ Leaving compute_dm ++++++++++
 
 
++++++++++ Getting compute_energies ++++++++++
 
 
++++++++++ Leaving compute_energies ++++++++++
   scf:    6     -2804.520837     -2804.520838     -2804.654134   0.000017   -4.226742
 
++++++++++ Getting setup_hamiltonian ++++++++++
 
 
++++++++++ Leaving setup_hamiltonian ++++++++++
 
++++++++++ Getting compute_dm ++++++++++
 
h_spin_dim/e_spin_dim/spinor_dim =    8   4   2
 compute_dm: Calling diagon
 nuotot =    30
    nuo =    30
  maxuo =    30
    nhs = 2*(2*nuotot)*(2*nuo)   =  7200
   npsi = 2*(2*nuotot)*(2*maxuo) =  7200
   naux =           (2*nuotot)*5 =   300
 compute_dm: Leaving diagon
 qsol =    20.000000
 normalize_dm: Calculating tol 
 
++++++++++ Leaving compute_dm ++++++++++
 
 
++++++++++ Getting compute_energies ++++++++++
 
 
++++++++++ Leaving compute_energies ++++++++++
   scf:    7     -2804.520837     -2804.520838     -2804.654134   0.000017   -4.226740
Warning: unstable inversion in Pulayx - fallback to linear mixing
 
++++++++++ Getting setup_hamiltonian ++++++++++
 
 
++++++++++ Leaving setup_hamiltonian ++++++++++
 
++++++++++ Getting compute_dm ++++++++++
 
h_spin_dim/e_spin_dim/spinor_dim =    8   4   2
 compute_dm: Calling diagon
 nuotot =    30
    nuo =    30
  maxuo =    30
    nhs = 2*(2*nuotot)*(2*nuo)   =  7200
   npsi = 2*(2*nuotot)*(2*maxuo) =  7200
   naux =           (2*nuotot)*5 =   300
 compute_dm: Leaving diagon
 qsol =    20.000000
 normalize_dm: Calculating tol 
 
++++++++++ Leaving compute_dm ++++++++++
 
 
++++++++++ Getting compute_energies ++++++++++
 
 
++++++++++ Leaving compute_energies ++++++++++
   scf:    8     -2804.520837     -2804.520838     -2804.654134   0.000017   -4.226740
 
++++++++++ Getting setup_hamiltonian ++++++++++
 
 
++++++++++ Leaving setup_hamiltonian ++++++++++
 
++++++++++ Getting compute_dm ++++++++++
 
h_spin_dim/e_spin_dim/spinor_dim =    8   4   2
 compute_dm: Calling diagon
 nuotot =    30
    nuo =    30
  maxuo =    30
    nhs = 2*(2*nuotot)*(2*nuo)   =  7200
   npsi = 2*(2*nuotot)*(2*maxuo) =  7200
   naux =           (2*nuotot)*5 =   300
 compute_dm: Leaving diagon
 qsol =    20.000000
 normalize_dm: Calculating tol 
 
++++++++++ Leaving compute_dm ++++++++++
 
 
++++++++++ Getting compute_energies ++++++++++
 
 
++++++++++ Leaving compute_energies ++++++++++
   scf:    9     -2804.520837     -2804.520839     -2804.654135   0.000017   -4.226739
Warning: unstable inversion in Pulayx - fallback to linear mixing
 
++++++++++ Getting setup_hamiltonian ++++++++++
 
 
++++++++++ Leaving setup_hamiltonian ++++++++++
 
++++++++++ Getting compute_dm ++++++++++
 
h_spin_dim/e_spin_dim/spinor_dim =    8   4   2
 compute_dm: Calling diagon
 nuotot =    30
    nuo =    30
  maxuo =    30
    nhs = 2*(2*nuotot)*(2*nuo)   =  7200
   npsi = 2*(2*nuotot)*(2*maxuo) =  7200
   naux =           (2*nuotot)*5 =   300
 compute_dm: Leaving diagon
 qsol =    20.000000
 normalize_dm: Calculating tol 
 
++++++++++ Leaving compute_dm ++++++++++
 
 
++++++++++ Getting compute_energies ++++++++++
 
 
++++++++++ Leaving compute_energies ++++++++++
   scf:   10     -2804.520837     -2804.520839     -2804.654135   0.000017   -4.226739
 
++++++++++ Getting setup_hamiltonian ++++++++++
 
 
++++++++++ Leaving setup_hamiltonian ++++++++++
 
++++++++++ Getting compute_dm ++++++++++
 
h_spin_dim/e_spin_dim/spinor_dim =    8   4   2
 compute_dm: Calling diagon
 nuotot =    30
    nuo =    30
  maxuo =    30
    nhs = 2*(2*nuotot)*(2*nuo)   =  7200
   npsi = 2*(2*nuotot)*(2*maxuo) =  7200
   naux =           (2*nuotot)*5 =   300
 compute_dm: Leaving diagon
 qsol =    20.000000
 normalize_dm: Calculating tol 
 
++++++++++ Leaving compute_dm ++++++++++
 
 
++++++++++ Getting compute_energies ++++++++++
 
 
++++++++++ Leaving compute_energies ++++++++++
   scf:   11     -2804.520837     -2804.520839     -2804.654135   0.000017   -4.226740
Warning: unstable inversion in Pulayx - fallback to linear mixing
 
++++++++++ Getting setup_hamiltonian ++++++++++
 
 
++++++++++ Leaving setup_hamiltonian ++++++++++
 
++++++++++ Getting compute_dm ++++++++++
 
h_spin_dim/e_spin_dim/spinor_dim =    8   4   2
 compute_dm: Calling diagon
 nuotot =    30
    nuo =    30
  maxuo =    30
    nhs = 2*(2*nuotot)*(2*nuo)   =  7200
   npsi = 2*(2*nuotot)*(2*maxuo) =  7200
   naux =           (2*nuotot)*5 =   300
 compute_dm: Leaving diagon
 qsol =    20.000000
 normalize_dm: Calculating tol 
 
++++++++++ Leaving compute_dm ++++++++++
 
 
++++++++++ Getting compute_energies ++++++++++
 
 
++++++++++ Leaving compute_energies ++++++++++
   scf:   12     -2804.520837     -2804.520839     -2804.654135   0.000017   -4.226740
Warning: unstable inversion in Pulayx - fallback to linear mixing
 
++++++++++ Getting setup_hamiltonian ++++++++++
 
 
++++++++++ Leaving setup_hamiltonian ++++++++++
 
++++++++++ Getting compute_dm ++++++++++
 
h_spin_dim/e_spin_dim/spinor_dim =    8   4   2
 compute_dm: Calling diagon
 nuotot =    30
    nuo =    30
  maxuo =    30
    nhs = 2*(2*nuotot)*(2*nuo)   =  7200
   npsi = 2*(2*nuotot)*(2*maxuo) =  7200
   naux =           (2*nuotot)*5 =   300
 compute_dm: Leaving diagon
 qsol =    20.000000
 normalize_dm: Calculating tol 
 
++++++++++ Leaving compute_dm ++++++++++
 
 
++++++++++ Getting compute_energies ++++++++++
 
 
++++++++++ Leaving compute_energies ++++++++++
   scf:   13     -2804.520837     -2804.520839     -2804.654135   0.000017   -4.226740
Warning: unstable inversion in Pulayx - fallback to linear mixing
 
++++++++++ Getting setup_hamiltonian ++++++++++
 
 
++++++++++ Leaving setup_hamiltonian ++++++++++
 
++++++++++ Getting compute_dm ++++++++++
 
h_spin_dim/e_spin_dim/spinor_dim =    8   4   2
 compute_dm: Calling diagon
 nuotot =    30
    nuo =    30
  maxuo =    30
    nhs = 2*(2*nuotot)*(2*nuo)   =  7200
   npsi = 2*(2*nuotot)*(2*maxuo) =  7200
   naux =           (2*nuotot)*5 =   300
 compute_dm: Leaving diagon
 qsol =    20.000000
 normalize_dm: Calculating tol 
 
++++++++++ Leaving compute_dm ++++++++++
 
 
++++++++++ Getting compute_energies ++++++++++
 
 
++++++++++ Leaving compute_energies ++++++++++
   scf:   14     -2804.520837     -2804.520839     -2804.654135   0.000017   -4.226740
Warning: unstable inversion in Pulayx - fallback to linear mixing
 
++++++++++ Getting setup_hamiltonian ++++++++++
 
 
++++++++++ Leaving setup_hamiltonian ++++++++++
 
++++++++++ Getting compute_dm ++++++++++
 
h_spin_dim/e_spin_dim/spinor_dim =    8   4   2
 compute_dm: Calling diagon
 nuotot =    30
    nuo =    30
  maxuo =    30
    nhs = 2*(2*nuotot)*(2*nuo)   =  7200
   npsi = 2*(2*nuotot)*(2*maxuo) =  7200
   naux =           (2*nuotot)*5 =   300
 compute_dm: Leaving diagon
 qsol =    20.000000
 normalize_dm: Calculating tol 
 
++++++++++ Leaving compute_dm ++++++++++
 
 
++++++++++ Getting compute_energies ++++++++++
 
 
++++++++++ Leaving compute_energies ++++++++++
   scf:   15     -2804.520837     -2804.520839     -2804.654135   0.000017   -4.226740
Warning: unstable inversion in Pulayx - fallback to linear mixing
 
++++++++++ Getting setup_hamiltonian ++++++++++
 
 
++++++++++ Leaving setup_hamiltonian ++++++++++
 
++++++++++ Getting compute_dm ++++++++++
 
h_spin_dim/e_spin_dim/spinor_dim =    8   4   2
 compute_dm: Calling diagon
 nuotot =    30
    nuo =    30
  maxuo =    30
    nhs = 2*(2*nuotot)*(2*nuo)   =  7200
   npsi = 2*(2*nuotot)*(2*maxuo) =  7200
   naux =           (2*nuotot)*5 =   300
 compute_dm: Leaving diagon
 qsol =    20.000000
 normalize_dm: Calculating tol 
 
++++++++++ Leaving compute_dm ++++++++++
 
 
++++++++++ Getting compute_energies ++++++++++
 
 
++++++++++ Leaving compute_energies ++++++++++
   scf:   16     -2804.520837     -2804.520839     -2804.654135   0.000017   -4.226740
Warning: unstable inversion in Pulayx - fallback to linear mixing
 
++++++++++ Getting setup_hamiltonian ++++++++++
 
 
++++++++++ Leaving setup_hamiltonian ++++++++++
 
++++++++++ Getting compute_dm ++++++++++
 
h_spin_dim/e_spin_dim/spinor_dim =    8   4   2
 compute_dm: Calling diagon
 nuotot =    30
    nuo =    30
  maxuo =    30
    nhs = 2*(2*nuotot)*(2*nuo)   =  7200
   npsi = 2*(2*nuotot)*(2*maxuo) =  7200
   naux =           (2*nuotot)*5 =   300
 compute_dm: Leaving diagon
 qsol =    20.000000
 normalize_dm: Calculating tol 
 
++++++++++ Leaving compute_dm ++++++++++
 
 
++++++++++ Getting compute_energies ++++++++++
 
 
++++++++++ Leaving compute_energies ++++++++++
   scf:   17     -2804.520837     -2804.520839     -2804.654135   0.000017   -4.226740
Warning: unstable inversion in Pulayx - fallback to linear mixing
 
++++++++++ Getting setup_hamiltonian ++++++++++
 
 
++++++++++ Leaving setup_hamiltonian ++++++++++
 
++++++++++ Getting compute_dm ++++++++++
 
h_spin_dim/e_spin_dim/spinor_dim =    8   4   2
 compute_dm: Calling diagon
 nuotot =    30
    nuo =    30
  maxuo =    30
    nhs = 2*(2*nuotot)*(2*nuo)   =  7200
   npsi = 2*(2*nuotot)*(2*maxuo) =  7200
   naux =           (2*nuotot)*5 =   300
 compute_dm: Leaving diagon
 qsol =    20.000000
 normalize_dm: Calculating tol 
 
++++++++++ Leaving compute_dm ++++++++++
 
 
++++++++++ Getting compute_energies ++++++++++
 
 
++++++++++ Leaving compute_energies ++++++++++
   scf:   18     -2804.520837     -2804.520839     -2804.654135   0.000017   -4.226740
Warning: unstable inversion in Pulayx - fallback to linear mixing
 
++++++++++ Getting setup_hamiltonian ++++++++++
 
 
++++++++++ Leaving setup_hamiltonian ++++++++++
 
++++++++++ Getting compute_dm ++++++++++
 
h_spin_dim/e_spin_dim/spinor_dim =    8   4   2
 compute_dm: Calling diagon
 nuotot =    30
    nuo =    30
  maxuo =    30
    nhs = 2*(2*nuotot)*(2*nuo)   =  7200
   npsi = 2*(2*nuotot)*(2*maxuo) =  7200
   naux =           (2*nuotot)*5 =   300
 compute_dm: Leaving diagon
 qsol =    20.000000
 normalize_dm: Calculating tol 
 
++++++++++ Leaving compute_dm ++++++++++
 
 
++++++++++ Getting compute_energies ++++++++++
 
 
++++++++++ Leaving compute_energies ++++++++++
   scf:   19     -2804.520837     -2804.520839     -2804.654135   0.000017   -4.226740
Warning: unstable inversion in Pulayx - fallback to linear mixing
 
++++++++++ Getting setup_hamiltonian ++++++++++
 
 
++++++++++ Leaving setup_hamiltonian ++++++++++
 
++++++++++ Getting compute_dm ++++++++++
 
h_spin_dim/e_spin_dim/spinor_dim =    8   4   2
 compute_dm: Calling diagon
 nuotot =    30
    nuo =    30
  maxuo =    30
    nhs = 2*(2*nuotot)*(2*nuo)   =  7200
   npsi = 2*(2*nuotot)*(2*maxuo) =  7200
   naux =           (2*nuotot)*5 =   300
 compute_dm: Leaving diagon
 qsol =    20.000000
 normalize_dm: Calculating tol 
 
++++++++++ Leaving compute_dm ++++++++++
 
 
++++++++++ Getting compute_energies ++++++++++
 
 
++++++++++ Leaving compute_energies ++++++++++
   scf:   20     -2804.520837     -2804.520839     -2804.654135   0.000017   -4.226740
Warning: unstable inversion in Pulayx - fallback to linear mixing
 
++++++++++ Getting setup_hamiltonian ++++++++++
 
 
++++++++++ Leaving setup_hamiltonian ++++++++++
 
++++++++++ Getting compute_dm ++++++++++
 
h_spin_dim/e_spin_dim/spinor_dim =    8   4   2
 compute_dm: Calling diagon
 nuotot =    30
    nuo =    30
  maxuo =    30
    nhs = 2*(2*nuotot)*(2*nuo)   =  7200
   npsi = 2*(2*nuotot)*(2*maxuo) =  7200
   naux =           (2*nuotot)*5 =   300
 compute_dm: Leaving diagon
 qsol =    20.000000
 normalize_dm: Calculating tol 
 
++++++++++ Leaving compute_dm ++++++++++
 
 
++++++++++ Getting compute_energies ++++++++++
 
 
++++++++++ Leaving compute_energies ++++++++++
   scf:   21     -2804.520837     -2804.520839     -2804.654135   0.000017   -4.226740
Warning: unstable inversion in Pulayx - fallback to linear mixing
 
++++++++++ Getting setup_hamiltonian ++++++++++
 
 
++++++++++ Leaving setup_hamiltonian ++++++++++
 
++++++++++ Getting compute_dm ++++++++++
 
h_spin_dim/e_spin_dim/spinor_dim =    8   4   2
 compute_dm: Calling diagon
 nuotot =    30
    nuo =    30
  maxuo =    30
    nhs = 2*(2*nuotot)*(2*nuo)   =  7200
   npsi = 2*(2*nuotot)*(2*maxuo) =  7200
   naux =           (2*nuotot)*5 =   300
 compute_dm: Leaving diagon
 qsol =    20.000000
 normalize_dm: Calculating tol 
 
++++++++++ Leaving compute_dm ++++++++++
 
 
++++++++++ Getting compute_energies ++++++++++
 
 
++++++++++ Leaving compute_energies ++++++++++
   scf:   22     -2804.520837     -2804.520839     -2804.654135   0.000017   -4.226740
Warning: unstable inversion in Pulayx - fallback to linear mixing
 
++++++++++ Getting setup_hamiltonian ++++++++++
 
 
++++++++++ Leaving setup_hamiltonian ++++++++++
 
++++++++++ Getting compute_dm ++++++++++
 
h_spin_dim/e_spin_dim/spinor_dim =    8   4   2
 compute_dm: Calling diagon
 nuotot =    30
    nuo =    30
  maxuo =    30
    nhs = 2*(2*nuotot)*(2*nuo)   =  7200
   npsi = 2*(2*nuotot)*(2*maxuo) =  7200
   naux =           (2*nuotot)*5 =   300
 compute_dm: Leaving diagon
 qsol =    20.000000
 normalize_dm: Calculating tol 
 
++++++++++ Leaving compute_dm ++++++++++
 
 
++++++++++ Getting compute_energies ++++++++++
 
 
++++++++++ Leaving compute_energies ++++++++++
   scf:   23     -2804.520837     -2804.520839     -2804.654135   0.000017   -4.226740
Warning: unstable inversion in Pulayx - fallback to linear mixing
 
++++++++++ Getting setup_hamiltonian ++++++++++
 
 
++++++++++ Leaving setup_hamiltonian ++++++++++
 
++++++++++ Getting compute_dm ++++++++++
 
h_spin_dim/e_spin_dim/spinor_dim =    8   4   2
 compute_dm: Calling diagon
 nuotot =    30
    nuo =    30
  maxuo =    30
    nhs = 2*(2*nuotot)*(2*nuo)   =  7200
   npsi = 2*(2*nuotot)*(2*maxuo) =  7200
   naux =           (2*nuotot)*5 =   300
 compute_dm: Leaving diagon
 qsol =    20.000000
 normalize_dm: Calculating tol 
 
++++++++++ Leaving compute_dm ++++++++++
 
 
++++++++++ Getting compute_energies ++++++++++
 
 
++++++++++ Leaving compute_energies ++++++++++
   scf:   24     -2804.520837     -2804.520839     -2804.654135   0.000017   -4.226740
Warning: unstable inversion in Pulayx - fallback to linear mixing
 
++++++++++ Getting setup_hamiltonian ++++++++++
 
 
++++++++++ Leaving setup_hamiltonian ++++++++++
 
++++++++++ Getting compute_dm ++++++++++
 
h_spin_dim/e_spin_dim/spinor_dim =    8   4   2
 compute_dm: Calling diagon
 nuotot =    30
    nuo =    30
  maxuo =    30
    nhs = 2*(2*nuotot)*(2*nuo)   =  7200
   npsi = 2*(2*nuotot)*(2*maxuo) =  7200
   naux =           (2*nuotot)*5 =   300
 compute_dm: Leaving diagon
 qsol =    20.000000
 normalize_dm: Calculating tol 
 
++++++++++ Leaving compute_dm ++++++++++
 
 
++++++++++ Getting compute_energies ++++++++++
 
 
++++++++++ Leaving compute_energies ++++++++++
   scf:   25     -2804.520837     -2804.520839     -2804.654135   0.000017   -4.226740
Warning: unstable inversion in Pulayx - fallback to linear mixing
 
++++++++++ Getting setup_hamiltonian ++++++++++
 
 
++++++++++ Leaving setup_hamiltonian ++++++++++
 
++++++++++ Getting compute_dm ++++++++++
 
h_spin_dim/e_spin_dim/spinor_dim =    8   4   2
 compute_dm: Calling diagon
 nuotot =    30
    nuo =    30
  maxuo =    30
    nhs = 2*(2*nuotot)*(2*nuo)   =  7200
   npsi = 2*(2*nuotot)*(2*maxuo) =  7200
   naux =           (2*nuotot)*5 =   300
 compute_dm: Leaving diagon
 qsol =    20.000000
 normalize_dm: Calculating tol 
 
++++++++++ Leaving compute_dm ++++++++++
 
 
++++++++++ Getting compute_energies ++++++++++
 
 
++++++++++ Leaving compute_energies ++++++++++
   scf:   26     -2804.520837     -2804.520839     -2804.654135   0.000017   -4.226740
Warning: unstable inversion in Pulayx - fallback to linear mixing
 
++++++++++ Getting setup_hamiltonian ++++++++++
 
 
++++++++++ Leaving setup_hamiltonian ++++++++++
 
++++++++++ Getting compute_dm ++++++++++
 
h_spin_dim/e_spin_dim/spinor_dim =    8   4   2
 compute_dm: Calling diagon
 nuotot =    30
    nuo =    30
  maxuo =    30
    nhs = 2*(2*nuotot)*(2*nuo)   =  7200
   npsi = 2*(2*nuotot)*(2*maxuo) =  7200
   naux =           (2*nuotot)*5 =   300
 compute_dm: Leaving diagon
 qsol =    20.000000
 normalize_dm: Calculating tol 
 
++++++++++ Leaving compute_dm ++++++++++
 
 
++++++++++ Getting compute_energies ++++++++++
 
 
++++++++++ Leaving compute_energies ++++++++++
   scf:   27     -2804.520837     -2804.520838     -2804.654135   0.000017   -4.226740
Warning: unstable inversion in Pulayx - fallback to linear mixing
 
++++++++++ Getting setup_hamiltonian ++++++++++
 
 
++++++++++ Leaving setup_hamiltonian ++++++++++
 
++++++++++ Getting compute_dm ++++++++++
 
h_spin_dim/e_spin_dim/spinor_dim =    8   4   2
 compute_dm: Calling diagon
 nuotot =    30
    nuo =    30
  maxuo =    30
    nhs = 2*(2*nuotot)*(2*nuo)   =  7200
   npsi = 2*(2*nuotot)*(2*maxuo) =  7200
   naux =           (2*nuotot)*5 =   300
 compute_dm: Leaving diagon
 qsol =    20.000000
 normalize_dm: Calculating tol 
 
++++++++++ Leaving compute_dm ++++++++++
 
 
++++++++++ Getting compute_energies ++++++++++
 
 
++++++++++ Leaving compute_energies ++++++++++
   scf:   28     -2804.520837     -2804.520838     -2804.654135   0.000017   -4.226740
Warning: unstable inversion in Pulayx - fallback to linear mixing
 
++++++++++ Getting setup_hamiltonian ++++++++++
 
 
++++++++++ Leaving setup_hamiltonian ++++++++++
 
++++++++++ Getting compute_dm ++++++++++
 
h_spin_dim/e_spin_dim/spinor_dim =    8   4   2
 compute_dm: Calling diagon
 nuotot =    30
    nuo =    30
  maxuo =    30
    nhs = 2*(2*nuotot)*(2*nuo)   =  7200
   npsi = 2*(2*nuotot)*(2*maxuo) =  7200
   naux =           (2*nuotot)*5 =   300
 compute_dm: Leaving diagon
 qsol =    20.000000
 normalize_dm: Calculating tol 
 
++++++++++ Leaving compute_dm ++++++++++
 
 
++++++++++ Getting compute_energies ++++++++++
 
 
++++++++++ Leaving compute_energies ++++++++++
   scf:   29     -2804.520837     -2804.520838     -2804.654135   0.000017   -4.226740
Warning: unstable inversion in Pulayx - fallback to linear mixing
 
++++++++++ Getting setup_hamiltonian ++++++++++
 
 
++++++++++ Leaving setup_hamiltonian ++++++++++
 
++++++++++ Getting compute_dm ++++++++++
 
h_spin_dim/e_spin_dim/spinor_dim =    8   4   2
 compute_dm: Calling diagon
 nuotot =    30
    nuo =    30
  maxuo =    30
    nhs = 2*(2*nuotot)*(2*nuo)   =  7200
   npsi = 2*(2*nuotot)*(2*maxuo) =  7200
   naux =           (2*nuotot)*5 =   300
 compute_dm: Leaving diagon
 qsol =    20.000000
 normalize_dm: Calculating tol 
 
++++++++++ Leaving compute_dm ++++++++++
 
 
++++++++++ Getting compute_energies ++++++++++
 
 
++++++++++ Leaving compute_energies ++++++++++
   scf:   30     -2804.520837     -2804.520838     -2804.654135   0.000017   -4.226740
Warning: unstable inversion in Pulayx - fallback to linear mixing
 
++++++++++ Getting setup_hamiltonian ++++++++++
 
 
++++++++++ Leaving setup_hamiltonian ++++++++++
 
++++++++++ Getting compute_dm ++++++++++
 
h_spin_dim/e_spin_dim/spinor_dim =    8   4   2
 compute_dm: Calling diagon
 nuotot =    30
    nuo =    30
  maxuo =    30
    nhs = 2*(2*nuotot)*(2*nuo)   =  7200
   npsi = 2*(2*nuotot)*(2*maxuo) =  7200
   naux =           (2*nuotot)*5 =   300
 compute_dm: Leaving diagon
 qsol =    20.000000
 normalize_dm: Calculating tol 
 
++++++++++ Leaving compute_dm ++++++++++
 
 
++++++++++ Getting compute_energies ++++++++++
 
 
++++++++++ Leaving compute_energies ++++++++++
   scf:   31     -2804.520837     -2804.520838     -2804.654135   0.000017   -4.226741
Warning: unstable inversion in Pulayx - fallback to linear mixing
 
++++++++++ Getting setup_hamiltonian ++++++++++
 
 
++++++++++ Leaving setup_hamiltonian ++++++++++
 
++++++++++ Getting compute_dm ++++++++++
 
h_spin_dim/e_spin_dim/spinor_dim =    8   4   2
 compute_dm: Calling diagon
 nuotot =    30
    nuo =    30
  maxuo =    30
    nhs = 2*(2*nuotot)*(2*nuo)   =  7200
   npsi = 2*(2*nuotot)*(2*maxuo) =  7200
   naux =           (2*nuotot)*5 =   300
 compute_dm: Leaving diagon
 qsol =    20.000000
 normalize_dm: Calculating tol 
 
++++++++++ Leaving compute_dm ++++++++++
 
 
++++++++++ Getting compute_energies ++++++++++
 
 
++++++++++ Leaving compute_energies ++++++++++
   scf:   32     -2804.520837     -2804.520838     -2804.654135   0.000017   -4.226741
Warning: unstable inversion in Pulayx - fallback to linear mixing
 
++++++++++ Getting setup_hamiltonian ++++++++++
 
 
++++++++++ Leaving setup_hamiltonian ++++++++++
 
++++++++++ Getting compute_dm ++++++++++
 
h_spin_dim/e_spin_dim/spinor_dim =    8   4   2
 compute_dm: Calling diagon
 nuotot =    30
    nuo =    30
  maxuo =    30
    nhs = 2*(2*nuotot)*(2*nuo)   =  7200
   npsi = 2*(2*nuotot)*(2*maxuo) =  7200
   naux =           (2*nuotot)*5 =   300
 compute_dm: Leaving diagon
 qsol =    20.000000
 normalize_dm: Calculating tol 
 
++++++++++ Leaving compute_dm ++++++++++
 
 
++++++++++ Getting compute_energies ++++++++++
 
 
++++++++++ Leaving compute_energies ++++++++++
   scf:   33     -2804.520837     -2804.520838     -2804.654135   0.000017   -4.226741
Warning: unstable inversion in Pulayx - fallback to linear mixing
 
++++++++++ Getting setup_hamiltonian ++++++++++
 
 
++++++++++ Leaving setup_hamiltonian ++++++++++
 
++++++++++ Getting compute_dm ++++++++++
 
h_spin_dim/e_spin_dim/spinor_dim =    8   4   2
 compute_dm: Calling diagon
 nuotot =    30
    nuo =    30
  maxuo =    30
    nhs = 2*(2*nuotot)*(2*nuo)   =  7200
   npsi = 2*(2*nuotot)*(2*maxuo) =  7200
   naux =           (2*nuotot)*5 =   300
 compute_dm: Leaving diagon
 qsol =    20.000000
 normalize_dm: Calculating tol 
 
++++++++++ Leaving compute_dm ++++++++++
 
 
++++++++++ Getting compute_energies ++++++++++
 
 
++++++++++ Leaving compute_energies ++++++++++
   scf:   34     -2804.520837     -2804.520838     -2804.654135   0.000017   -4.226741
Warning: unstable inversion in Pulayx - fallback to linear mixing
 
++++++++++ Getting setup_hamiltonian ++++++++++
 
 
++++++++++ Leaving setup_hamiltonian ++++++++++
 
++++++++++ Getting compute_dm ++++++++++
 
h_spin_dim/e_spin_dim/spinor_dim =    8   4   2
 compute_dm: Calling diagon
 nuotot =    30
    nuo =    30
  maxuo =    30
    nhs = 2*(2*nuotot)*(2*nuo)   =  7200
   npsi = 2*(2*nuotot)*(2*maxuo) =  7200
   naux =           (2*nuotot)*5 =   300
 compute_dm: Leaving diagon
 qsol =    20.000000
 normalize_dm: Calculating tol 
 
++++++++++ Leaving compute_dm ++++++++++
 
 
++++++++++ Getting compute_energies ++++++++++
 
 
++++++++++ Leaving compute_energies ++++++++++
   scf:   35     -2804.520837     -2804.520838     -2804.654135   0.000017   -4.226741
Warning: unstable inversion in Pulayx - fallback to linear mixing
 
++++++++++ Getting setup_hamiltonian ++++++++++
 
 
++++++++++ Leaving setup_hamiltonian ++++++++++
 
++++++++++ Getting compute_dm ++++++++++
 
h_spin_dim/e_spin_dim/spinor_dim =    8   4   2
 compute_dm: Calling diagon
 nuotot =    30
    nuo =    30
  maxuo =    30
    nhs = 2*(2*nuotot)*(2*nuo)   =  7200
   npsi = 2*(2*nuotot)*(2*maxuo) =  7200
   naux =           (2*nuotot)*5 =   300
 compute_dm: Leaving diagon
 qsol =    20.000000
 normalize_dm: Calculating tol 
 
++++++++++ Leaving compute_dm ++++++++++
 
 
++++++++++ Getting compute_energies ++++++++++
 
 
++++++++++ Leaving compute_energies ++++++++++
   scf:   36     -2804.520837     -2804.520838     -2804.654135   0.000017   -4.226741
Warning: unstable inversion in Pulayx - fallback to linear mixing
 
++++++++++ Getting setup_hamiltonian ++++++++++
 
 
++++++++++ Leaving setup_hamiltonian ++++++++++
 
++++++++++ Getting compute_dm ++++++++++
 
h_spin_dim/e_spin_dim/spinor_dim =    8   4   2
 compute_dm: Calling diagon
 nuotot =    30
    nuo =    30
  maxuo =    30
    nhs = 2*(2*nuotot)*(2*nuo)   =  7200
   npsi = 2*(2*nuotot)*(2*maxuo) =  7200
   naux =           (2*nuotot)*5 =   300
 compute_dm: Leaving diagon
 qsol =    20.000000
 normalize_dm: Calculating tol 
 
++++++++++ Leaving compute_dm ++++++++++
 
 
++++++++++ Getting compute_energies ++++++++++
 
 
++++++++++ Leaving compute_energies ++++++++++
   scf:   37     -2804.520837     -2804.520838     -2804.654135   0.000017   -4.226741
Warning: unstable inversion in Pulayx - fallback to linear mixing
 
++++++++++ Getting setup_hamiltonian ++++++++++
 
 
++++++++++ Leaving setup_hamiltonian ++++++++++
 
++++++++++ Getting compute_dm ++++++++++
 
h_spin_dim/e_spin_dim/spinor_dim =    8   4   2
 compute_dm: Calling diagon
 nuotot =    30
    nuo =    30
  maxuo =    30
    nhs = 2*(2*nuotot)*(2*nuo)   =  7200
   npsi = 2*(2*nuotot)*(2*maxuo) =  7200
   naux =           (2*nuotot)*5 =   300
 compute_dm: Leaving diagon
 qsol =    20.000000
 normalize_dm: Calculating tol 
 
++++++++++ Leaving compute_dm ++++++++++
 
 
++++++++++ Getting compute_energies ++++++++++
 
 
++++++++++ Leaving compute_energies ++++++++++
   scf:   38     -2804.520837     -2804.520838     -2804.654135   0.000017   -4.226741
Warning: unstable inversion in Pulayx - fallback to linear mixing
 
++++++++++ Getting setup_hamiltonian ++++++++++
 
 
++++++++++ Leaving setup_hamiltonian ++++++++++
 
++++++++++ Getting compute_dm ++++++++++
 
h_spin_dim/e_spin_dim/spinor_dim =    8   4   2
 compute_dm: Calling diagon
 nuotot =    30
    nuo =    30
  maxuo =    30
    nhs = 2*(2*nuotot)*(2*nuo)   =  7200
   npsi = 2*(2*nuotot)*(2*maxuo) =  7200
   naux =           (2*nuotot)*5 =   300
 compute_dm: Leaving diagon
 qsol =    20.000000
 normalize_dm: Calculating tol 
 
++++++++++ Leaving compute_dm ++++++++++
 
 
++++++++++ Getting compute_energies ++++++++++
 
 
++++++++++ Leaving compute_energies ++++++++++
   scf:   39     -2804.520837     -2804.520838     -2804.654135   0.000017   -4.226741
Warning: unstable inversion in Pulayx - fallback to linear mixing
 
++++++++++ Getting setup_hamiltonian ++++++++++
 
 
++++++++++ Leaving setup_hamiltonian ++++++++++
 
++++++++++ Getting compute_dm ++++++++++
 
h_spin_dim/e_spin_dim/spinor_dim =    8   4   2
 compute_dm: Calling diagon
 nuotot =    30
    nuo =    30
  maxuo =    30
    nhs = 2*(2*nuotot)*(2*nuo)   =  7200
   npsi = 2*(2*nuotot)*(2*maxuo) =  7200
   naux =           (2*nuotot)*5 =   300
 compute_dm: Leaving diagon
 qsol =    20.000000
 normalize_dm: Calculating tol 
 
++++++++++ Leaving compute_dm ++++++++++
 
 
++++++++++ Getting compute_energies ++++++++++
 
 
++++++++++ Leaving compute_energies ++++++++++
   scf:   40     -2804.520837     -2804.520838     -2804.654135   0.000017   -4.226741
Warning: unstable inversion in Pulayx - fallback to linear mixing
 
++++++++++ Getting setup_hamiltonian ++++++++++
 
 
++++++++++ Leaving setup_hamiltonian ++++++++++
 
++++++++++ Getting compute_dm ++++++++++
 
h_spin_dim/e_spin_dim/spinor_dim =    8   4   2
 compute_dm: Calling diagon
 nuotot =    30
    nuo =    30
  maxuo =    30
    nhs = 2*(2*nuotot)*(2*nuo)   =  7200
   npsi = 2*(2*nuotot)*(2*maxuo) =  7200
   naux =           (2*nuotot)*5 =   300
 compute_dm: Leaving diagon
 qsol =    20.000000
 normalize_dm: Calculating tol 
 
++++++++++ Leaving compute_dm ++++++++++
 
 
++++++++++ Getting compute_energies ++++++++++
 
 
++++++++++ Leaving compute_energies ++++++++++
   scf:   41     -2804.520837     -2804.520838     -2804.654135   0.000016   -4.226741
Warning: unstable inversion in Pulayx - fallback to linear mixing
 
++++++++++ Getting setup_hamiltonian ++++++++++
 
 
++++++++++ Leaving setup_hamiltonian ++++++++++
 
++++++++++ Getting compute_dm ++++++++++
 
h_spin_dim/e_spin_dim/spinor_dim =    8   4   2
 compute_dm: Calling diagon
 nuotot =    30
    nuo =    30
  maxuo =    30
    nhs = 2*(2*nuotot)*(2*nuo)   =  7200
   npsi = 2*(2*nuotot)*(2*maxuo) =  7200
   naux =           (2*nuotot)*5 =   300
 compute_dm: Leaving diagon
 qsol =    20.000000
 normalize_dm: Calculating tol 
 
++++++++++ Leaving compute_dm ++++++++++
 
 
++++++++++ Getting compute_energies ++++++++++
 
 
++++++++++ Leaving compute_energies ++++++++++
   scf:   42     -2804.520837     -2804.520838     -2804.654135   0.000016   -4.226741
Warning: unstable inversion in Pulayx - fallback to linear mixing
 
++++++++++ Getting setup_hamiltonian ++++++++++
 
 
++++++++++ Leaving setup_hamiltonian ++++++++++
 
++++++++++ Getting compute_dm ++++++++++
 
h_spin_dim/e_spin_dim/spinor_dim =    8   4   2
 compute_dm: Calling diagon
 nuotot =    30
    nuo =    30
  maxuo =    30
    nhs = 2*(2*nuotot)*(2*nuo)   =  7200
   npsi = 2*(2*nuotot)*(2*maxuo) =  7200
   naux =           (2*nuotot)*5 =   300
 compute_dm: Leaving diagon
 qsol =    20.000000
 normalize_dm: Calculating tol 
 
++++++++++ Leaving compute_dm ++++++++++
 
 
++++++++++ Getting compute_energies ++++++++++
 
 
++++++++++ Leaving compute_energies ++++++++++
   scf:   43     -2804.520837     -2804.520838     -2804.654135   0.000016   -4.226741
Warning: unstable inversion in Pulayx - fallback to linear mixing
 
++++++++++ Getting setup_hamiltonian ++++++++++
 
 
++++++++++ Leaving setup_hamiltonian ++++++++++
 
++++++++++ Getting compute_dm ++++++++++
 
h_spin_dim/e_spin_dim/spinor_dim =    8   4   2
 compute_dm: Calling diagon
 nuotot =    30
    nuo =    30
  maxuo =    30
    nhs = 2*(2*nuotot)*(2*nuo)   =  7200
   npsi = 2*(2*nuotot)*(2*maxuo) =  7200
   naux =           (2*nuotot)*5 =   300
 compute_dm: Leaving diagon
 qsol =    20.000000
 normalize_dm: Calculating tol 
 
++++++++++ Leaving compute_dm ++++++++++
 
 
++++++++++ Getting compute_energies ++++++++++
 
 
++++++++++ Leaving compute_energies ++++++++++
   scf:   44     -2804.520837     -2804.520838     -2804.654135   0.000016   -4.226741
Warning: unstable inversion in Pulayx - fallback to linear mixing
 
++++++++++ Getting setup_hamiltonian ++++++++++
 
 
++++++++++ Leaving setup_hamiltonian ++++++++++
 
++++++++++ Getting compute_dm ++++++++++
 
h_spin_dim/e_spin_dim/spinor_dim =    8   4   2
 compute_dm: Calling diagon
 nuotot =    30
    nuo =    30
  maxuo =    30
    nhs = 2*(2*nuotot)*(2*nuo)   =  7200
   npsi = 2*(2*nuotot)*(2*maxuo) =  7200
   naux =           (2*nuotot)*5 =   300
 compute_dm: Leaving diagon
 qsol =    20.000000
 normalize_dm: Calculating tol 
 
++++++++++ Leaving compute_dm ++++++++++
 
 
++++++++++ Getting compute_energies ++++++++++
 
 
++++++++++ Leaving compute_energies ++++++++++
   scf:   45     -2804.520837     -2804.520838     -2804.654135   0.000016   -4.226741
Warning: unstable inversion in Pulayx - fallback to linear mixing
 
++++++++++ Getting setup_hamiltonian ++++++++++
 
 
++++++++++ Leaving setup_hamiltonian ++++++++++
 
++++++++++ Getting compute_dm ++++++++++
 
h_spin_dim/e_spin_dim/spinor_dim =    8   4   2
 compute_dm: Calling diagon
 nuotot =    30
    nuo =    30
  maxuo =    30
    nhs = 2*(2*nuotot)*(2*nuo)   =  7200
   npsi = 2*(2*nuotot)*(2*maxuo) =  7200
   naux =           (2*nuotot)*5 =   300
 compute_dm: Leaving diagon
 qsol =    20.000000
 normalize_dm: Calculating tol 
 
++++++++++ Leaving compute_dm ++++++++++
 
 
++++++++++ Getting compute_energies ++++++++++
 
 
++++++++++ Leaving compute_energies ++++++++++
   scf:   46     -2804.520837     -2804.520838     -2804.654135   0.000016   -4.226741
Warning: unstable inversion in Pulayx - fallback to linear mixing
 
++++++++++ Getting setup_hamiltonian ++++++++++
 
 
++++++++++ Leaving setup_hamiltonian ++++++++++
 
++++++++++ Getting compute_dm ++++++++++
 
h_spin_dim/e_spin_dim/spinor_dim =    8   4   2
 compute_dm: Calling diagon
 nuotot =    30
    nuo =    30
  maxuo =    30
    nhs = 2*(2*nuotot)*(2*nuo)   =  7200
   npsi = 2*(2*nuotot)*(2*maxuo) =  7200
   naux =           (2*nuotot)*5 =   300
 compute_dm: Leaving diagon
 qsol =    20.000000
 normalize_dm: Calculating tol 
 
++++++++++ Leaving compute_dm ++++++++++
 
 
++++++++++ Getting compute_energies ++++++++++
 
 
++++++++++ Leaving compute_energies ++++++++++
   scf:   47     -2804.520837     -2804.520838     -2804.654135   0.000016   -4.226741
Warning: unstable inversion in Pulayx - fallback to linear mixing
 
++++++++++ Getting setup_hamiltonian ++++++++++
 
 
++++++++++ Leaving setup_hamiltonian ++++++++++
 
++++++++++ Getting compute_dm ++++++++++
 
h_spin_dim/e_spin_dim/spinor_dim =    8   4   2
 compute_dm: Calling diagon
 nuotot =    30
    nuo =    30
  maxuo =    30
    nhs = 2*(2*nuotot)*(2*nuo)   =  7200
   npsi = 2*(2*nuotot)*(2*maxuo) =  7200
   naux =           (2*nuotot)*5 =   300
 compute_dm: Leaving diagon
 qsol =    20.000000
 normalize_dm: Calculating tol 
 
++++++++++ Leaving compute_dm ++++++++++
 
 
++++++++++ Getting compute_energies ++++++++++
 
 
++++++++++ Leaving compute_energies ++++++++++
   scf:   48     -2804.520837     -2804.520838     -2804.654135   0.000016   -4.226741
Warning: unstable inversion in Pulayx - fallback to linear mixing
 
++++++++++ Getting setup_hamiltonian ++++++++++
 
 
++++++++++ Leaving setup_hamiltonian ++++++++++
 
++++++++++ Getting compute_dm ++++++++++
 
h_spin_dim/e_spin_dim/spinor_dim =    8   4   2
 compute_dm: Calling diagon
 nuotot =    30
    nuo =    30
  maxuo =    30
    nhs = 2*(2*nuotot)*(2*nuo)   =  7200
   npsi = 2*(2*nuotot)*(2*maxuo) =  7200
   naux =           (2*nuotot)*5 =   300
 compute_dm: Leaving diagon
 qsol =    20.000000
 normalize_dm: Calculating tol 
 
++++++++++ Leaving compute_dm ++++++++++
 
 
++++++++++ Getting compute_energies ++++++++++
 
 
++++++++++ Leaving compute_energies ++++++++++
   scf:   49     -2804.520837     -2804.520838     -2804.654135   0.000016   -4.226741
Warning: unstable inversion in Pulayx - fallback to linear mixing
 
++++++++++ Getting setup_hamiltonian ++++++++++
 
 
++++++++++ Leaving setup_hamiltonian ++++++++++
 
++++++++++ Getting compute_dm ++++++++++
 
h_spin_dim/e_spin_dim/spinor_dim =    8   4   2
 compute_dm: Calling diagon
 nuotot =    30
    nuo =    30
  maxuo =    30
    nhs = 2*(2*nuotot)*(2*nuo)   =  7200
   npsi = 2*(2*nuotot)*(2*maxuo) =  7200
   naux =           (2*nuotot)*5 =   300
 compute_dm: Leaving diagon
 qsol =    20.000000
 normalize_dm: Calculating tol 
 
++++++++++ Leaving compute_dm ++++++++++
 
 
++++++++++ Getting compute_energies ++++++++++
 
 
++++++++++ Leaving compute_energies ++++++++++
   scf:   50     -2804.520837     -2804.520838     -2804.654135   0.000016   -4.226741
Applying kick at iscf:   50
Re-setting Pulay history
 
++++++++++ Getting setup_hamiltonian ++++++++++
 
 
++++++++++ Leaving setup_hamiltonian ++++++++++
 
++++++++++ Getting compute_dm ++++++++++
 
h_spin_dim/e_spin_dim/spinor_dim =    8   4   2
 compute_dm: Calling diagon
 nuotot =    30
    nuo =    30
  maxuo =    30
    nhs = 2*(2*nuotot)*(2*nuo)   =  7200
   npsi = 2*(2*nuotot)*(2*maxuo) =  7200
   naux =           (2*nuotot)*5 =   300
 compute_dm: Leaving diagon
 qsol =    20.000000
 normalize_dm: Calculating tol 
 
++++++++++ Leaving compute_dm ++++++++++
 
 
++++++++++ Getting compute_energies ++++++++++
 
 
++++++++++ Leaving compute_energies ++++++++++
   scf:   51     -2804.520836     -2804.520838     -2804.654135   0.000018   -4.226749
 
++++++++++ Getting setup_hamiltonian ++++++++++
 
 
++++++++++ Leaving setup_hamiltonian ++++++++++
 
++++++++++ Getting compute_dm ++++++++++
 
h_spin_dim/e_spin_dim/spinor_dim =    8   4   2
 compute_dm: Calling diagon
 nuotot =    30
    nuo =    30
  maxuo =    30
    nhs = 2*(2*nuotot)*(2*nuo)   =  7200
   npsi = 2*(2*nuotot)*(2*maxuo) =  7200
   naux =           (2*nuotot)*5 =   300
 compute_dm: Leaving diagon
 qsol =    20.000000
 normalize_dm: Calculating tol 
 
++++++++++ Leaving compute_dm ++++++++++
 
 
++++++++++ Getting compute_energies ++++++++++
 
 
++++++++++ Leaving compute_energies ++++++++++
   scf:   52     -2804.520836     -2804.520838     -2804.654135   0.000018   -4.226749
 
++++++++++ Getting setup_hamiltonian ++++++++++
 
 
++++++++++ Leaving setup_hamiltonian ++++++++++
 
++++++++++ Getting compute_dm ++++++++++
 
h_spin_dim/e_spin_dim/spinor_dim =    8   4   2
 compute_dm: Calling diagon
 nuotot =    30
    nuo =    30
  maxuo =    30
    nhs = 2*(2*nuotot)*(2*nuo)   =  7200
   npsi = 2*(2*nuotot)*(2*maxuo) =  7200
   naux =           (2*nuotot)*5 =   300
 compute_dm: Leaving diagon
 qsol =    20.000000
 normalize_dm: Calculating tol 
 
++++++++++ Leaving compute_dm ++++++++++
 
 
++++++++++ Getting compute_energies ++++++++++
 
 
++++++++++ Leaving compute_energies ++++++++++
   scf:   53     -2804.520836     -2804.520838     -2804.654135   0.000016   -4.226751
Warning: unstable inversion in Pulayx - fallback to linear mixing
 
++++++++++ Getting setup_hamiltonian ++++++++++
 
 
++++++++++ Leaving setup_hamiltonian ++++++++++
 
++++++++++ Getting compute_dm ++++++++++
 
h_spin_dim/e_spin_dim/spinor_dim =    8   4   2
 compute_dm: Calling diagon
 nuotot =    30
    nuo =    30
  maxuo =    30
    nhs = 2*(2*nuotot)*(2*nuo)   =  7200
   npsi = 2*(2*nuotot)*(2*maxuo) =  7200
   naux =           (2*nuotot)*5 =   300
 compute_dm: Leaving diagon
 qsol =    20.000000
 normalize_dm: Calculating tol 
 
++++++++++ Leaving compute_dm ++++++++++
 
 
++++++++++ Getting compute_energies ++++++++++
 
 
++++++++++ Leaving compute_energies ++++++++++
   scf:   54     -2804.520836     -2804.520838     -2804.654135   0.000018   -4.226749
Warning: unstable inversion in Pulayx - fallback to linear mixing
 
++++++++++ Getting setup_hamiltonian ++++++++++
 
 
++++++++++ Leaving setup_hamiltonian ++++++++++
 
++++++++++ Getting compute_dm ++++++++++
 
h_spin_dim/e_spin_dim/spinor_dim =    8   4   2
 compute_dm: Calling diagon
 nuotot =    30
    nuo =    30
  maxuo =    30
    nhs = 2*(2*nuotot)*(2*nuo)   =  7200
   npsi = 2*(2*nuotot)*(2*maxuo) =  7200
   naux =           (2*nuotot)*5 =   300
 compute_dm: Leaving diagon
 qsol =    20.000000
 normalize_dm: Calculating tol 
 
++++++++++ Leaving compute_dm ++++++++++
 
 
++++++++++ Getting compute_energies ++++++++++
 
 
++++++++++ Leaving compute_energies ++++++++++
   scf:   55     -2804.520836     -2804.520838     -2804.654135   0.000016   -4.226751
Warning: unstable inversion in Pulayx - fallback to linear mixing
 
++++++++++ Getting setup_hamiltonian ++++++++++
 
 
++++++++++ Leaving setup_hamiltonian ++++++++++
 
++++++++++ Getting compute_dm ++++++++++
 
h_spin_dim/e_spin_dim/spinor_dim =    8   4   2
 compute_dm: Calling diagon
 nuotot =    30
    nuo =    30
  maxuo =    30
    nhs = 2*(2*nuotot)*(2*nuo)   =  7200
   npsi = 2*(2*nuotot)*(2*maxuo) =  7200
   naux =           (2*nuotot)*5 =   300
 compute_dm: Leaving diagon
 qsol =    20.000000
 normalize_dm: Calculating tol 
 
++++++++++ Leaving compute_dm ++++++++++
 
 
++++++++++ Getting compute_energies ++++++++++
 
 
++++++++++ Leaving compute_energies ++++++++++
   scf:   56     -2804.520836     -2804.520838     -2804.654135   0.000018   -4.226749
Warning: unstable inversion in Pulayx - fallback to linear mixing
 
++++++++++ Getting setup_hamiltonian ++++++++++
 
 
++++++++++ Leaving setup_hamiltonian ++++++++++
 
++++++++++ Getting compute_dm ++++++++++
 
h_spin_dim/e_spin_dim/spinor_dim =    8   4   2
 compute_dm: Calling diagon
 nuotot =    30
    nuo =    30
  maxuo =    30
    nhs = 2*(2*nuotot)*(2*nuo)   =  7200
   npsi = 2*(2*nuotot)*(2*maxuo) =  7200
   naux =           (2*nuotot)*5 =   300
 compute_dm: Leaving diagon
 qsol =    20.000000
 normalize_dm: Calculating tol 
 
++++++++++ Leaving compute_dm ++++++++++
 
 
++++++++++ Getting compute_energies ++++++++++
 
 
++++++++++ Leaving compute_energies ++++++++++
   scf:   57     -2804.520836     -2804.520838     -2804.654135   0.000016   -4.226751
Warning: unstable inversion in Pulayx - fallback to linear mixing
 
++++++++++ Getting setup_hamiltonian ++++++++++
 
 
++++++++++ Leaving setup_hamiltonian ++++++++++
 
++++++++++ Getting compute_dm ++++++++++
 
h_spin_dim/e_spin_dim/spinor_dim =    8   4   2
 compute_dm: Calling diagon
 nuotot =    30
    nuo =    30
  maxuo =    30
    nhs = 2*(2*nuotot)*(2*nuo)   =  7200
   npsi = 2*(2*nuotot)*(2*maxuo) =  7200
   naux =           (2*nuotot)*5 =   300
 compute_dm: Leaving diagon
 qsol =    20.000000
 normalize_dm: Calculating tol 
 
++++++++++ Leaving compute_dm ++++++++++
 
 
++++++++++ Getting compute_energies ++++++++++
 
 
++++++++++ Leaving compute_energies ++++++++++
   scf:   58     -2804.520836     -2804.520838     -2804.654135   0.000018   -4.226749
Warning: unstable inversion in Pulayx - fallback to linear mixing
 
++++++++++ Getting setup_hamiltonian ++++++++++
 
 
++++++++++ Leaving setup_hamiltonian ++++++++++
 
++++++++++ Getting compute_dm ++++++++++
 
h_spin_dim/e_spin_dim/spinor_dim =    8   4   2
 compute_dm: Calling diagon
 nuotot =    30
    nuo =    30
  maxuo =    30
    nhs = 2*(2*nuotot)*(2*nuo)   =  7200
   npsi = 2*(2*nuotot)*(2*maxuo) =  7200
   naux =           (2*nuotot)*5 =   300
 compute_dm: Leaving diagon
 qsol =    20.000000
 normalize_dm: Calculating tol 
 
++++++++++ Leaving compute_dm ++++++++++
 
 
++++++++++ Getting compute_energies ++++++++++
 
 
++++++++++ Leaving compute_energies ++++++++++
   scf:   59     -2804.520836     -2804.520838     -2804.654135   0.000016   -4.226751
Warning: unstable inversion in Pulayx - fallback to linear mixing
 
++++++++++ Getting setup_hamiltonian ++++++++++
 
 
++++++++++ Leaving setup_hamiltonian ++++++++++
 
++++++++++ Getting compute_dm ++++++++++
 
h_spin_dim/e_spin_dim/spinor_dim =    8   4   2
 compute_dm: Calling diagon
 nuotot =    30
    nuo =    30
  maxuo =    30
    nhs = 2*(2*nuotot)*(2*nuo)   =  7200
   npsi = 2*(2*nuotot)*(2*maxuo) =  7200
   naux =           (2*nuotot)*5 =   300
 compute_dm: Leaving diagon
 qsol =    20.000000
 normalize_dm: Calculating tol 
 
++++++++++ Leaving compute_dm ++++++++++
 
 
++++++++++ Getting compute_energies ++++++++++
 
 
++++++++++ Leaving compute_energies ++++++++++
   scf:   60     -2804.520836     -2804.520838     -2804.654135   0.000018   -4.226750
Warning: unstable inversion in Pulayx - fallback to linear mixing
 
++++++++++ Getting setup_hamiltonian ++++++++++
 
 
++++++++++ Leaving setup_hamiltonian ++++++++++
 
++++++++++ Getting compute_dm ++++++++++
 
h_spin_dim/e_spin_dim/spinor_dim =    8   4   2
 compute_dm: Calling diagon
 nuotot =    30
    nuo =    30
  maxuo =    30
    nhs = 2*(2*nuotot)*(2*nuo)   =  7200
   npsi = 2*(2*nuotot)*(2*maxuo) =  7200
   naux =           (2*nuotot)*5 =   300
 compute_dm: Leaving diagon
 qsol =    20.000000
 normalize_dm: Calculating tol 
 
++++++++++ Leaving compute_dm ++++++++++
 
 
++++++++++ Getting compute_energies ++++++++++
 
 
++++++++++ Leaving compute_energies ++++++++++
   scf:   61     -2804.520836     -2804.520838     -2804.654135   0.000016   -4.226751
Warning: unstable inversion in Pulayx - fallback to linear mixing
 
++++++++++ Getting setup_hamiltonian ++++++++++
 
 
++++++++++ Leaving setup_hamiltonian ++++++++++
 
++++++++++ Getting compute_dm ++++++++++
 
h_spin_dim/e_spin_dim/spinor_dim =    8   4   2
 compute_dm: Calling diagon
 nuotot =    30
    nuo =    30
  maxuo =    30
    nhs = 2*(2*nuotot)*(2*nuo)   =  7200
   npsi = 2*(2*nuotot)*(2*maxuo) =  7200
   naux =           (2*nuotot)*5 =   300
 compute_dm: Leaving diagon
 qsol =    20.000000
 normalize_dm: Calculating tol 
 
++++++++++ Leaving compute_dm ++++++++++
 
 
++++++++++ Getting compute_energies ++++++++++
 
 
++++++++++ Leaving compute_energies ++++++++++
   scf:   62     -2804.520836     -2804.520838     -2804.654135   0.000017   -4.226750
Warning: unstable inversion in Pulayx - fallback to linear mixing
 
++++++++++ Getting setup_hamiltonian ++++++++++
 
 
++++++++++ Leaving setup_hamiltonian ++++++++++
 
++++++++++ Getting compute_dm ++++++++++
 
h_spin_dim/e_spin_dim/spinor_dim =    8   4   2
 compute_dm: Calling diagon
 nuotot =    30
    nuo =    30
  maxuo =    30
    nhs = 2*(2*nuotot)*(2*nuo)   =  7200
   npsi = 2*(2*nuotot)*(2*maxuo) =  7200
   naux =           (2*nuotot)*5 =   300
 compute_dm: Leaving diagon
 qsol =    20.000000
 normalize_dm: Calculating tol 
 
++++++++++ Leaving compute_dm ++++++++++
 
 
++++++++++ Getting compute_energies ++++++++++
 
 
++++++++++ Leaving compute_energies ++++++++++
   scf:   63     -2804.520836     -2804.520838     -2804.654135   0.000016   -4.226751
Warning: unstable inversion in Pulayx - fallback to linear mixing
 
++++++++++ Getting setup_hamiltonian ++++++++++
 
 
++++++++++ Leaving setup_hamiltonian ++++++++++
 
++++++++++ Getting compute_dm ++++++++++
 
h_spin_dim/e_spin_dim/spinor_dim =    8   4   2
 compute_dm: Calling diagon
 nuotot =    30
    nuo =    30
  maxuo =    30
    nhs = 2*(2*nuotot)*(2*nuo)   =  7200
   npsi = 2*(2*nuotot)*(2*maxuo) =  7200
   naux =           (2*nuotot)*5 =   300
 compute_dm: Leaving diagon
 qsol =    20.000000
 normalize_dm: Calculating tol 
 
++++++++++ Leaving compute_dm ++++++++++
 
 
++++++++++ Getting compute_energies ++++++++++
 
 
++++++++++ Leaving compute_energies ++++++++++
   scf:   64     -2804.520836     -2804.520838     -2804.654135   0.000017   -4.226750
Warning: unstable inversion in Pulayx - fallback to linear mixing
 
++++++++++ Getting setup_hamiltonian ++++++++++
 
 
++++++++++ Leaving setup_hamiltonian ++++++++++
 
++++++++++ Getting compute_dm ++++++++++
 
h_spin_dim/e_spin_dim/spinor_dim =    8   4   2
 compute_dm: Calling diagon
 nuotot =    30
    nuo =    30
  maxuo =    30
    nhs = 2*(2*nuotot)*(2*nuo)   =  7200
   npsi = 2*(2*nuotot)*(2*maxuo) =  7200
   naux =           (2*nuotot)*5 =   300
 compute_dm: Leaving diagon
 qsol =    20.000000
 normalize_dm: Calculating tol 
 
++++++++++ Leaving compute_dm ++++++++++
 
 
++++++++++ Getting compute_energies ++++++++++
 
 
++++++++++ Leaving compute_energies ++++++++++
   scf:   65     -2804.520836     -2804.520838     -2804.654135   0.000016   -4.226751
Warning: unstable inversion in Pulayx - fallback to linear mixing
 
++++++++++ Getting setup_hamiltonian ++++++++++
 
 
++++++++++ Leaving setup_hamiltonian ++++++++++
 
++++++++++ Getting compute_dm ++++++++++
 
h_spin_dim/e_spin_dim/spinor_dim =    8   4   2
 compute_dm: Calling diagon
 nuotot =    30
    nuo =    30
  maxuo =    30
    nhs = 2*(2*nuotot)*(2*nuo)   =  7200
   npsi = 2*(2*nuotot)*(2*maxuo) =  7200
   naux =           (2*nuotot)*5 =   300
 compute_dm: Leaving diagon
 qsol =    20.000000
 normalize_dm: Calculating tol 
 
++++++++++ Leaving compute_dm ++++++++++
 
 
++++++++++ Getting compute_energies ++++++++++
 
 
++++++++++ Leaving compute_energies ++++++++++
   scf:   66     -2804.520836     -2804.520838     -2804.654135   0.000017   -4.226750
Warning: unstable inversion in Pulayx - fallback to linear mixing
 
++++++++++ Getting setup_hamiltonian ++++++++++
 
 
++++++++++ Leaving setup_hamiltonian ++++++++++
 
++++++++++ Getting compute_dm ++++++++++
 
h_spin_dim/e_spin_dim/spinor_dim =    8   4   2
 compute_dm: Calling diagon
 nuotot =    30
    nuo =    30
  maxuo =    30
    nhs = 2*(2*nuotot)*(2*nuo)   =  7200
   npsi = 2*(2*nuotot)*(2*maxuo) =  7200
   naux =           (2*nuotot)*5 =   300
 compute_dm: Leaving diagon
 qsol =    20.000000
 normalize_dm: Calculating tol 
 
++++++++++ Leaving compute_dm ++++++++++
 
 
++++++++++ Getting compute_energies ++++++++++
 
 
++++++++++ Leaving compute_energies ++++++++++
   scf:   67     -2804.520836     -2804.520838     -2804.654135   0.000016   -4.226751
Warning: unstable inversion in Pulayx - fallback to linear mixing
 
++++++++++ Getting setup_hamiltonian ++++++++++
 
 
++++++++++ Leaving setup_hamiltonian ++++++++++
 
++++++++++ Getting compute_dm ++++++++++
 
h_spin_dim/e_spin_dim/spinor_dim =    8   4   2
 compute_dm: Calling diagon
 nuotot =    30
    nuo =    30
  maxuo =    30
    nhs = 2*(2*nuotot)*(2*nuo)   =  7200
   npsi = 2*(2*nuotot)*(2*maxuo) =  7200
   naux =           (2*nuotot)*5 =   300
 compute_dm: Leaving diagon
 qsol =    20.000000
 normalize_dm: Calculating tol 
 
++++++++++ Leaving compute_dm ++++++++++
 
 
++++++++++ Getting compute_energies ++++++++++
 
 
++++++++++ Leaving compute_energies ++++++++++
   scf:   68     -2804.520836     -2804.520838     -2804.654135   0.000017   -4.226750
Warning: unstable inversion in Pulayx - fallback to linear mixing
 
++++++++++ Getting setup_hamiltonian ++++++++++
 
 
++++++++++ Leaving setup_hamiltonian ++++++++++
 
++++++++++ Getting compute_dm ++++++++++
 
h_spin_dim/e_spin_dim/spinor_dim =    8   4   2
 compute_dm: Calling diagon
 nuotot =    30
    nuo =    30
  maxuo =    30
    nhs = 2*(2*nuotot)*(2*nuo)   =  7200
   npsi = 2*(2*nuotot)*(2*maxuo) =  7200
   naux =           (2*nuotot)*5 =   300
 compute_dm: Leaving diagon
 qsol =    20.000000
 normalize_dm: Calculating tol 
 
++++++++++ Leaving compute_dm ++++++++++
 
 
++++++++++ Getting compute_energies ++++++++++
 
 
++++++++++ Leaving compute_energies ++++++++++
   scf:   69     -2804.520836     -2804.520838     -2804.654135   0.000016   -4.226751
Warning: unstable inversion in Pulayx - fallback to linear mixing
 
++++++++++ Getting setup_hamiltonian ++++++++++
 
 
++++++++++ Leaving setup_hamiltonian ++++++++++
 
++++++++++ Getting compute_dm ++++++++++
 
h_spin_dim/e_spin_dim/spinor_dim =    8   4   2
 compute_dm: Calling diagon
 nuotot =    30
    nuo =    30
  maxuo =    30
    nhs = 2*(2*nuotot)*(2*nuo)   =  7200
   npsi = 2*(2*nuotot)*(2*maxuo) =  7200
   naux =           (2*nuotot)*5 =   300
 compute_dm: Leaving diagon
 qsol =    20.000000
 normalize_dm: Calculating tol 
 
++++++++++ Leaving compute_dm ++++++++++
 
 
++++++++++ Getting compute_energies ++++++++++
 
 
++++++++++ Leaving compute_energies ++++++++++
   scf:   70     -2804.520836     -2804.520838     -2804.654135   0.000017   -4.226750
Warning: unstable inversion in Pulayx - fallback to linear mixing
 
++++++++++ Getting setup_hamiltonian ++++++++++
 
 
++++++++++ Leaving setup_hamiltonian ++++++++++
 
++++++++++ Getting compute_dm ++++++++++
 
h_spin_dim/e_spin_dim/spinor_dim =    8   4   2
 compute_dm: Calling diagon
 nuotot =    30
    nuo =    30
  maxuo =    30
    nhs = 2*(2*nuotot)*(2*nuo)   =  7200
   npsi = 2*(2*nuotot)*(2*maxuo) =  7200
   naux =           (2*nuotot)*5 =   300
 compute_dm: Leaving diagon
 qsol =    20.000000
 normalize_dm: Calculating tol 
 
++++++++++ Leaving compute_dm ++++++++++
 
 
++++++++++ Getting compute_energies ++++++++++
 
 
++++++++++ Leaving compute_energies ++++++++++
   scf:   71     -2804.520836     -2804.520838     -2804.654135   0.000016   -4.226751
Warning: unstable inversion in Pulayx - fallback to linear mixing
 
++++++++++ Getting setup_hamiltonian ++++++++++
 
 
++++++++++ Leaving setup_hamiltonian ++++++++++
 
++++++++++ Getting compute_dm ++++++++++
 
h_spin_dim/e_spin_dim/spinor_dim =    8   4   2
 compute_dm: Calling diagon
 nuotot =    30
    nuo =    30
  maxuo =    30
    nhs = 2*(2*nuotot)*(2*nuo)   =  7200
   npsi = 2*(2*nuotot)*(2*maxuo) =  7200
   naux =           (2*nuotot)*5 =   300
 compute_dm: Leaving diagon
 qsol =    20.000000
 normalize_dm: Calculating tol 
 
++++++++++ Leaving compute_dm ++++++++++
 
 
++++++++++ Getting compute_energies ++++++++++
 
 
++++++++++ Leaving compute_energies ++++++++++
   scf:   72     -2804.520836     -2804.520838     -2804.654135   0.000017   -4.226750
Warning: unstable inversion in Pulayx - fallback to linear mixing
 
++++++++++ Getting setup_hamiltonian ++++++++++
 
 
++++++++++ Leaving setup_hamiltonian ++++++++++
 
++++++++++ Getting compute_dm ++++++++++
 
h_spin_dim/e_spin_dim/spinor_dim =    8   4   2
 compute_dm: Calling diagon
 nuotot =    30
    nuo =    30
  maxuo =    30
    nhs = 2*(2*nuotot)*(2*nuo)   =  7200
   npsi = 2*(2*nuotot)*(2*maxuo) =  7200
   naux =           (2*nuotot)*5 =   300
 compute_dm: Leaving diagon
 qsol =    20.000000
 normalize_dm: Calculating tol 
 
++++++++++ Leaving compute_dm ++++++++++
 
 
++++++++++ Getting compute_energies ++++++++++
 
 
++++++++++ Leaving compute_energies ++++++++++
   scf:   73     -2804.520836     -2804.520838     -2804.654135   0.000016   -4.226751
Warning: unstable inversion in Pulayx - fallback to linear mixing
 
++++++++++ Getting setup_hamiltonian ++++++++++
 
 
++++++++++ Leaving setup_hamiltonian ++++++++++
 
++++++++++ Getting compute_dm ++++++++++
 
h_spin_dim/e_spin_dim/spinor_dim =    8   4   2
 compute_dm: Calling diagon
 nuotot =    30
    nuo =    30
  maxuo =    30
    nhs = 2*(2*nuotot)*(2*nuo)   =  7200
   npsi = 2*(2*nuotot)*(2*maxuo) =  7200
   naux =           (2*nuotot)*5 =   300
 compute_dm: Leaving diagon
 qsol =    20.000000
 normalize_dm: Calculating tol 
 
++++++++++ Leaving compute_dm ++++++++++
 
 
++++++++++ Getting compute_energies ++++++++++
 
 
++++++++++ Leaving compute_energies ++++++++++
   scf:   74     -2804.520836     -2804.520838     -2804.654135   0.000017   -4.226750
 
++++++++++ Getting setup_hamiltonian ++++++++++
 
 
++++++++++ Leaving setup_hamiltonian ++++++++++
 
++++++++++ Getting compute_dm ++++++++++
 
h_spin_dim/e_spin_dim/spinor_dim =    8   4   2
 compute_dm: Calling diagon
 nuotot =    30
    nuo =    30
  maxuo =    30
    nhs = 2*(2*nuotot)*(2*nuo)   =  7200
   npsi = 2*(2*nuotot)*(2*maxuo) =  7200
   naux =           (2*nuotot)*5 =   300
 compute_dm: Leaving diagon
 qsol =    20.000000
 normalize_dm: Calculating tol 
 
++++++++++ Leaving compute_dm ++++++++++
 
 
++++++++++ Getting compute_energies ++++++++++
 
 
++++++++++ Leaving compute_energies ++++++++++
   scf:   75     -2804.520836     -2804.520838     -2804.654135   0.000016   -4.226751
Warning: unstable inversion in Pulayx - fallback to linear mixing
 
++++++++++ Getting setup_hamiltonian ++++++++++
 
 
++++++++++ Leaving setup_hamiltonian ++++++++++
 
++++++++++ Getting compute_dm ++++++++++
 
h_spin_dim/e_spin_dim/spinor_dim =    8   4   2
 compute_dm: Calling diagon
 nuotot =    30
    nuo =    30
  maxuo =    30
    nhs = 2*(2*nuotot)*(2*nuo)   =  7200
   npsi = 2*(2*nuotot)*(2*maxuo) =  7200
   naux =           (2*nuotot)*5 =   300
 compute_dm: Leaving diagon
 qsol =    20.000000
 normalize_dm: Calculating tol 
 
++++++++++ Leaving compute_dm ++++++++++
 
 
++++++++++ Getting compute_energies ++++++++++
 
 
++++++++++ Leaving compute_energies ++++++++++
   scf:   76     -2804.520836     -2804.520838     -2804.654135   0.000017   -4.226750
Warning: unstable inversion in Pulayx - fallback to linear mixing
 
++++++++++ Getting setup_hamiltonian ++++++++++
 
 
++++++++++ Leaving setup_hamiltonian ++++++++++
 
++++++++++ Getting compute_dm ++++++++++
 
h_spin_dim/e_spin_dim/spinor_dim =    8   4   2
 compute_dm: Calling diagon
 nuotot =    30
    nuo =    30
  maxuo =    30
    nhs = 2*(2*nuotot)*(2*nuo)   =  7200
   npsi = 2*(2*nuotot)*(2*maxuo) =  7200
   naux =           (2*nuotot)*5 =   300
 compute_dm: Leaving diagon
 qsol =    20.000000
 normalize_dm: Calculating tol 
 
++++++++++ Leaving compute_dm ++++++++++
 
 
++++++++++ Getting compute_energies ++++++++++
 
 
++++++++++ Leaving compute_energies ++++++++++
   scf:   77     -2804.520836     -2804.520838     -2804.654135   0.000016   -4.226751
Warning: unstable inversion in Pulayx - fallback to linear mixing
 
++++++++++ Getting setup_hamiltonian ++++++++++
 
 
++++++++++ Leaving setup_hamiltonian ++++++++++
 
++++++++++ Getting compute_dm ++++++++++
 
h_spin_dim/e_spin_dim/spinor_dim =    8   4   2
 compute_dm: Calling diagon
 nuotot =    30
    nuo =    30
  maxuo =    30
    nhs = 2*(2*nuotot)*(2*nuo)   =  7200
   npsi = 2*(2*nuotot)*(2*maxuo) =  7200
   naux =           (2*nuotot)*5 =   300
 compute_dm: Leaving diagon
 qsol =    20.000000
 normalize_dm: Calculating tol 
 
++++++++++ Leaving compute_dm ++++++++++
 
 
++++++++++ Getting compute_energies ++++++++++
 
 
++++++++++ Leaving compute_energies ++++++++++
   scf:   78     -2804.520836     -2804.520838     -2804.654135   0.000017   -4.226750
Warning: unstable inversion in Pulayx - fallback to linear mixing
 
++++++++++ Getting setup_hamiltonian ++++++++++
 
 
++++++++++ Leaving setup_hamiltonian ++++++++++
 
++++++++++ Getting compute_dm ++++++++++
 
h_spin_dim/e_spin_dim/spinor_dim =    8   4   2
 compute_dm: Calling diagon
 nuotot =    30
    nuo =    30
  maxuo =    30
    nhs = 2*(2*nuotot)*(2*nuo)   =  7200
   npsi = 2*(2*nuotot)*(2*maxuo) =  7200
   naux =           (2*nuotot)*5 =   300
 compute_dm: Leaving diagon
 qsol =    20.000000
 normalize_dm: Calculating tol 
 
++++++++++ Leaving compute_dm ++++++++++
 
 
++++++++++ Getting compute_energies ++++++++++
 
 
++++++++++ Leaving compute_energies ++++++++++
   scf:   79     -2804.520836     -2804.520838     -2804.654135   0.000016   -4.226751
Warning: unstable inversion in Pulayx - fallback to linear mixing
 
++++++++++ Getting setup_hamiltonian ++++++++++
 
 
++++++++++ Leaving setup_hamiltonian ++++++++++
 
++++++++++ Getting compute_dm ++++++++++
 
h_spin_dim/e_spin_dim/spinor_dim =    8   4   2
 compute_dm: Calling diagon
 nuotot =    30
    nuo =    30
  maxuo =    30
    nhs = 2*(2*nuotot)*(2*nuo)   =  7200
   npsi = 2*(2*nuotot)*(2*maxuo) =  7200
   naux =           (2*nuotot)*5 =   300
 compute_dm: Leaving diagon
 qsol =    20.000000
 normalize_dm: Calculating tol 
 
++++++++++ Leaving compute_dm ++++++++++
 
 
++++++++++ Getting compute_energies ++++++++++
 
 
++++++++++ Leaving compute_energies ++++++++++
   scf:   80     -2804.520836     -2804.520838     -2804.654135   0.000017   -4.226750
Warning: unstable inversion in Pulayx - fallback to linear mixing
 
++++++++++ Getting setup_hamiltonian ++++++++++
 
 
++++++++++ Leaving setup_hamiltonian ++++++++++
 
++++++++++ Getting compute_dm ++++++++++
 
h_spin_dim/e_spin_dim/spinor_dim =    8   4   2
 compute_dm: Calling diagon
 nuotot =    30
    nuo =    30
  maxuo =    30
    nhs = 2*(2*nuotot)*(2*nuo)   =  7200
   npsi = 2*(2*nuotot)*(2*maxuo) =  7200
   naux =           (2*nuotot)*5 =   300
 compute_dm: Leaving diagon
 qsol =    20.000000
 normalize_dm: Calculating tol 
 
++++++++++ Leaving compute_dm ++++++++++
 
 
++++++++++ Getting compute_energies ++++++++++
 
 
++++++++++ Leaving compute_energies ++++++++++
   scf:   81     -2804.520836     -2804.520838     -2804.654135   0.000016   -4.226751
Warning: unstable inversion in Pulayx - fallback to linear mixing
 
++++++++++ Getting setup_hamiltonian ++++++++++
 
 
++++++++++ Leaving setup_hamiltonian ++++++++++
 
++++++++++ Getting compute_dm ++++++++++
 
h_spin_dim/e_spin_dim/spinor_dim =    8   4   2
 compute_dm: Calling diagon
 nuotot =    30
    nuo =    30
  maxuo =    30
    nhs = 2*(2*nuotot)*(2*nuo)   =  7200
   npsi = 2*(2*nuotot)*(2*maxuo) =  7200
   naux =           (2*nuotot)*5 =   300
 compute_dm: Leaving diagon
 qsol =    20.000000
 normalize_dm: Calculating tol 
 
++++++++++ Leaving compute_dm ++++++++++
 
 
++++++++++ Getting compute_energies ++++++++++
 
 
++++++++++ Leaving compute_energies ++++++++++
   scf:   82     -2804.520836     -2804.520838     -2804.654135   0.000017   -4.226750
Warning: unstable inversion in Pulayx - fallback to linear mixing
 
++++++++++ Getting setup_hamiltonian ++++++++++
 
 
++++++++++ Leaving setup_hamiltonian ++++++++++
 
++++++++++ Getting compute_dm ++++++++++
 
h_spin_dim/e_spin_dim/spinor_dim =    8   4   2
 compute_dm: Calling diagon
 nuotot =    30
    nuo =    30
  maxuo =    30
    nhs = 2*(2*nuotot)*(2*nuo)   =  7200
   npsi = 2*(2*nuotot)*(2*maxuo) =  7200
   naux =           (2*nuotot)*5 =   300
 compute_dm: Leaving diagon
 qsol =    20.000000
 normalize_dm: Calculating tol 
 
++++++++++ Leaving compute_dm ++++++++++
 
 
++++++++++ Getting compute_energies ++++++++++
 
 
++++++++++ Leaving compute_energies ++++++++++
   scf:   83     -2804.520836     -2804.520838     -2804.654135   0.000016   -4.226751
Warning: unstable inversion in Pulayx - fallback to linear mixing
 
++++++++++ Getting setup_hamiltonian ++++++++++
 
 
++++++++++ Leaving setup_hamiltonian ++++++++++
 
++++++++++ Getting compute_dm ++++++++++
 
h_spin_dim/e_spin_dim/spinor_dim =    8   4   2
 compute_dm: Calling diagon
 nuotot =    30
    nuo =    30
  maxuo =    30
    nhs = 2*(2*nuotot)*(2*nuo)   =  7200
   npsi = 2*(2*nuotot)*(2*maxuo) =  7200
   naux =           (2*nuotot)*5 =   300
 compute_dm: Leaving diagon
 qsol =    20.000000
 normalize_dm: Calculating tol 
 
++++++++++ Leaving compute_dm ++++++++++
 
 
++++++++++ Getting compute_energies ++++++++++
 
 
++++++++++ Leaving compute_energies ++++++++++
   scf:   84     -2804.520836     -2804.520838     -2804.654135   0.000016   -4.226750
Warning: unstable inversion in Pulayx - fallback to linear mixing
 
++++++++++ Getting setup_hamiltonian ++++++++++
 
 
++++++++++ Leaving setup_hamiltonian ++++++++++
 
++++++++++ Getting compute_dm ++++++++++
 
h_spin_dim/e_spin_dim/spinor_dim =    8   4   2
 compute_dm: Calling diagon
 nuotot =    30
    nuo =    30
  maxuo =    30
    nhs = 2*(2*nuotot)*(2*nuo)   =  7200
   npsi = 2*(2*nuotot)*(2*maxuo) =  7200
   naux =           (2*nuotot)*5 =   300
 compute_dm: Leaving diagon
 qsol =    20.000000
 normalize_dm: Calculating tol 
 
++++++++++ Leaving compute_dm ++++++++++
 
 
++++++++++ Getting compute_energies ++++++++++
 
 
++++++++++ Leaving compute_energies ++++++++++
   scf:   85     -2804.520836     -2804.520838     -2804.654135   0.000016   -4.226751
Warning: unstable inversion in Pulayx - fallback to linear mixing
 
++++++++++ Getting setup_hamiltonian ++++++++++
 
 
++++++++++ Leaving setup_hamiltonian ++++++++++
 
++++++++++ Getting compute_dm ++++++++++
 
h_spin_dim/e_spin_dim/spinor_dim =    8   4   2
 compute_dm: Calling diagon
 nuotot =    30
    nuo =    30
  maxuo =    30
    nhs = 2*(2*nuotot)*(2*nuo)   =  7200
   npsi = 2*(2*nuotot)*(2*maxuo) =  7200
   naux =           (2*nuotot)*5 =   300
 compute_dm: Leaving diagon
 qsol =    20.000000
 normalize_dm: Calculating tol 
 
[...]
   npsi = 2*(2*nuotot)*(2*maxuo) =  7200
   naux =           (2*nuotot)*5 =   300
 compute_dm: Leaving diagon
 qsol =    20.000000
 normalize_dm: Calculating tol 
 
++++++++++ Leaving compute_dm ++++++++++
 
 
++++++++++ Getting compute_energies ++++++++++
 
 
++++++++++ Leaving compute_energies ++++++++++
   scf:  948     -2804.520834     -2804.520802     -2804.654101   0.000010   -4.226813
Warning: unstable inversion in Pulayx - fallback to linear mixing
 
++++++++++ Getting setup_hamiltonian ++++++++++
 
 
++++++++++ Leaving setup_hamiltonian ++++++++++
 
++++++++++ Getting compute_dm ++++++++++
 
h_spin_dim/e_spin_dim/spinor_dim =    8   4   2
 compute_dm: Calling diagon
 nuotot =    30
    nuo =    30
  maxuo =    30
    nhs = 2*(2*nuotot)*(2*nuo)   =  7200
   npsi = 2*(2*nuotot)*(2*maxuo) =  7200
   naux =           (2*nuotot)*5 =   300
 compute_dm: Leaving diagon
 qsol =    20.000000
 normalize_dm: Calculating tol 
 
++++++++++ Leaving compute_dm ++++++++++
 
 
++++++++++ Getting compute_energies ++++++++++
 
 
++++++++++ Leaving compute_energies ++++++++++
   scf:  949     -2804.520834     -2804.520802     -2804.654101   0.000010   -4.226813
Warning: unstable inversion in Pulayx - fallback to linear mixing
 
++++++++++ Getting setup_hamiltonian ++++++++++
 
 
++++++++++ Leaving setup_hamiltonian ++++++++++
 
++++++++++ Getting compute_dm ++++++++++
 
h_spin_dim/e_spin_dim/spinor_dim =    8   4   2
 compute_dm: Calling diagon
 nuotot =    30
    nuo =    30
  maxuo =    30
    nhs = 2*(2*nuotot)*(2*nuo)   =  7200
   npsi = 2*(2*nuotot)*(2*maxuo) =  7200
   naux =           (2*nuotot)*5 =   300
 compute_dm: Leaving diagon
 qsol =    20.000000
 normalize_dm: Calculating tol 
 
++++++++++ Leaving compute_dm ++++++++++
 
 
++++++++++ Getting compute_energies ++++++++++
 
 
++++++++++ Leaving compute_energies ++++++++++
   scf:  950     -2804.520834     -2804.520802     -2804.654102   0.000010   -4.226812
Applying kick at iscf:  950
Re-setting Pulay history
 
++++++++++ Getting setup_hamiltonian ++++++++++
 
 
++++++++++ Leaving setup_hamiltonian ++++++++++
 
++++++++++ Getting compute_dm ++++++++++
 
h_spin_dim/e_spin_dim/spinor_dim =    8   4   2
 compute_dm: Calling diagon
 nuotot =    30
    nuo =    30
  maxuo =    30
    nhs = 2*(2*nuotot)*(2*nuo)   =  7200
   npsi = 2*(2*nuotot)*(2*maxuo) =  7200
   naux =           (2*nuotot)*5 =   300
 compute_dm: Leaving diagon
 qsol =    20.000000
 normalize_dm: Calculating tol 
 
++++++++++ Leaving compute_dm ++++++++++
 
 
++++++++++ Getting compute_energies ++++++++++
 
 
++++++++++ Leaving compute_energies ++++++++++
   scf:  951     -2804.520834     -2804.520818     -2804.654118   0.000018   -4.226794
 
++++++++++ Getting setup_hamiltonian ++++++++++
 
 
++++++++++ Leaving setup_hamiltonian ++++++++++
 
++++++++++ Getting compute_dm ++++++++++
 
h_spin_dim/e_spin_dim/spinor_dim =    8   4   2
 compute_dm: Calling diagon
 nuotot =    30
    nuo =    30
  maxuo =    30
    nhs = 2*(2*nuotot)*(2*nuo)   =  7200
   npsi = 2*(2*nuotot)*(2*maxuo) =  7200
   naux =           (2*nuotot)*5 =   300
 compute_dm: Leaving diagon
 qsol =    20.000000
 normalize_dm: Calculating tol 
 
++++++++++ Leaving compute_dm ++++++++++
 
 
++++++++++ Getting compute_energies ++++++++++
 
 
++++++++++ Leaving compute_energies ++++++++++
   scf:  952     -2804.520834     -2804.520818     -2804.654118   0.000017   -4.226794
 
++++++++++ Getting setup_hamiltonian ++++++++++
 
 
++++++++++ Leaving setup_hamiltonian ++++++++++
 
++++++++++ Getting compute_dm ++++++++++
 
h_spin_dim/e_spin_dim/spinor_dim =    8   4   2
 compute_dm: Calling diagon
 nuotot =    30
    nuo =    30
  maxuo =    30
    nhs = 2*(2*nuotot)*(2*nuo)   =  7200
   npsi = 2*(2*nuotot)*(2*maxuo) =  7200
   naux =           (2*nuotot)*5 =   300
 compute_dm: Leaving diagon
 qsol =    20.000000
 normalize_dm: Calculating tol 
 
++++++++++ Leaving compute_dm ++++++++++
 
 
++++++++++ Getting compute_energies ++++++++++
 
 
++++++++++ Leaving compute_energies ++++++++++
   scf:  953     -2804.520834     -2804.520819     -2804.654119   0.000012   -4.226794
Warning: unstable inversion in Pulayx - fallback to linear mixing
 
++++++++++ Getting setup_hamiltonian ++++++++++
 
 
++++++++++ Leaving setup_hamiltonian ++++++++++
 
++++++++++ Getting compute_dm ++++++++++
 
h_spin_dim/e_spin_dim/spinor_dim =    8   4   2
 compute_dm: Calling diagon
 nuotot =    30
    nuo =    30
  maxuo =    30
    nhs = 2*(2*nuotot)*(2*nuo)   =  7200
   npsi = 2*(2*nuotot)*(2*maxuo) =  7200
   naux =           (2*nuotot)*5 =   300
 compute_dm: Leaving diagon
 qsol =    20.000000
 normalize_dm: Calculating tol 
 
++++++++++ Leaving compute_dm ++++++++++
 
 
++++++++++ Getting compute_energies ++++++++++
 
 
++++++++++ Leaving compute_energies ++++++++++
   scf:  954     -2804.520834     -2804.520818     -2804.654118   0.000017   -4.226794
Warning: unstable inversion in Pulayx - fallback to linear mixing
 
++++++++++ Getting setup_hamiltonian ++++++++++
 
 
++++++++++ Leaving setup_hamiltonian ++++++++++
 
++++++++++ Getting compute_dm ++++++++++
 
h_spin_dim/e_spin_dim/spinor_dim =    8   4   2
 compute_dm: Calling diagon
 nuotot =    30
    nuo =    30
  maxuo =    30
    nhs = 2*(2*nuotot)*(2*nuo)   =  7200
   npsi = 2*(2*nuotot)*(2*maxuo) =  7200
   naux =           (2*nuotot)*5 =   300
 compute_dm: Leaving diagon
 qsol =    20.000000
 normalize_dm: Calculating tol 
 
++++++++++ Leaving compute_dm ++++++++++
 
 
++++++++++ Getting compute_energies ++++++++++
 
 
++++++++++ Leaving compute_energies ++++++++++
   scf:  955     -2804.520834     -2804.520819     -2804.654119   0.000012   -4.226794
Warning: unstable inversion in Pulayx - fallback to linear mixing
 
++++++++++ Getting setup_hamiltonian ++++++++++
 
 
++++++++++ Leaving setup_hamiltonian ++++++++++
 
++++++++++ Getting compute_dm ++++++++++
 
h_spin_dim/e_spin_dim/spinor_dim =    8   4   2
 compute_dm: Calling diagon
 nuotot =    30
    nuo =    30
  maxuo =    30
    nhs = 2*(2*nuotot)*(2*nuo)   =  7200
   npsi = 2*(2*nuotot)*(2*maxuo) =  7200
   naux =           (2*nuotot)*5 =   300
 compute_dm: Leaving diagon
 qsol =    20.000000
 normalize_dm: Calculating tol 
 
++++++++++ Leaving compute_dm ++++++++++
 
 
++++++++++ Getting compute_energies ++++++++++
 
 
++++++++++ Leaving compute_energies ++++++++++
   scf:  956     -2804.520834     -2804.520818     -2804.654118   0.000017   -4.226794
Warning: unstable inversion in Pulayx - fallback to linear mixing
 
++++++++++ Getting setup_hamiltonian ++++++++++
 
 
++++++++++ Leaving setup_hamiltonian ++++++++++
 
++++++++++ Getting compute_dm ++++++++++
 
h_spin_dim/e_spin_dim/spinor_dim =    8   4   2
 compute_dm: Calling diagon
 nuotot =    30
    nuo =    30
  maxuo =    30
    nhs = 2*(2*nuotot)*(2*nuo)   =  7200
   npsi = 2*(2*nuotot)*(2*maxuo) =  7200
   naux =           (2*nuotot)*5 =   300
 compute_dm: Leaving diagon
 qsol =    20.000000
 normalize_dm: Calculating tol 
 
++++++++++ Leaving compute_dm ++++++++++
 
 
++++++++++ Getting compute_energies ++++++++++
 
 
++++++++++ Leaving compute_energies ++++++++++
   scf:  957     -2804.520834     -2804.520819     -2804.654119   0.000012   -4.226794
Warning: unstable inversion in Pulayx - fallback to linear mixing
 
++++++++++ Getting setup_hamiltonian ++++++++++
 
 
++++++++++ Leaving setup_hamiltonian ++++++++++
 
++++++++++ Getting compute_dm ++++++++++
 
h_spin_dim/e_spin_dim/spinor_dim =    8   4   2
 compute_dm: Calling diagon
 nuotot =    30
    nuo =    30
  maxuo =    30
    nhs = 2*(2*nuotot)*(2*nuo)   =  7200
   npsi = 2*(2*nuotot)*(2*maxuo) =  7200
   naux =           (2*nuotot)*5 =   300
 compute_dm: Leaving diagon
 qsol =    20.000000
 normalize_dm: Calculating tol 
 
++++++++++ Leaving compute_dm ++++++++++
 
 
++++++++++ Getting compute_energies ++++++++++
 
 
++++++++++ Leaving compute_energies ++++++++++
   scf:  958     -2804.520834     -2804.520818     -2804.654118   0.000016   -4.226794
Warning: unstable inversion in Pulayx - fallback to linear mixing
 
++++++++++ Getting setup_hamiltonian ++++++++++
 
 
++++++++++ Leaving setup_hamiltonian ++++++++++
 
++++++++++ Getting compute_dm ++++++++++
 
h_spin_dim/e_spin_dim/spinor_dim =    8   4   2
 compute_dm: Calling diagon
 nuotot =    30
    nuo =    30
  maxuo =    30
    nhs = 2*(2*nuotot)*(2*nuo)   =  7200
   npsi = 2*(2*nuotot)*(2*maxuo) =  7200
   naux =           (2*nuotot)*5 =   300
 compute_dm: Leaving diagon
 qsol =    20.000000
 normalize_dm: Calculating tol 
 
++++++++++ Leaving compute_dm ++++++++++
 
 
++++++++++ Getting compute_energies ++++++++++
 
 
++++++++++ Leaving compute_energies ++++++++++
   scf:  959     -2804.520834     -2804.520819     -2804.654119   0.000012   -4.226794
 
++++++++++ Getting setup_hamiltonian ++++++++++
 
 
++++++++++ Leaving setup_hamiltonian ++++++++++
 
++++++++++ Getting compute_dm ++++++++++
 
h_spin_dim/e_spin_dim/spinor_dim =    8   4   2
 compute_dm: Calling diagon
 nuotot =    30
    nuo =    30
  maxuo =    30
    nhs = 2*(2*nuotot)*(2*nuo)   =  7200
   npsi = 2*(2*nuotot)*(2*maxuo) =  7200
   naux =           (2*nuotot)*5 =   300
 compute_dm: Leaving diagon
 qsol =    20.000000
 normalize_dm: Calculating tol 
 
++++++++++ Leaving compute_dm ++++++++++
 
 
++++++++++ Getting compute_energies ++++++++++
 
 
++++++++++ Leaving compute_energies ++++++++++
   scf:  960     -2804.520833     -2804.520821     -2804.654120   0.000009   -4.226795

SCF Convergence by dMax criterion
max |DM_out - DM_in|:     0.00000922
SCF cycle converged after  960 iterations

Using DM_out to compute the final energy and forces

siesta: E_KS(eV) =            -2804.5208

siesta: E_KS - E_eggbox =     -2804.5208

siesta: Atomic forces (eV/Ang):
     1   -0.523512    0.000000   -0.000003
     2    0.523512    0.000000    0.000003
----------------------------------------
   Tot   -0.000000    0.000000   -0.000000
----------------------------------------
   Max    0.523512
   Res    0.302250    sqrt( Sum f_i^2 / 3N )
----------------------------------------
   Max    0.523512    constrained

Stress-tensor-Voigt (kbar):       -0.25       -0.00       -0.00        0.00       -0.00       -0.00
(Free)E + p*V (eV/cell)    -2804.2457
Target enthalpy (eV/cell)    -2804.6541
 
moments: Atomic and Orbital Populations and Magnetic Moments:

Species: Pt                  

Atom    Orb           Charge    sqrt(<S>^2)        <(Sx,Sy,Sz)>     sqrt(<L>^2)      <(Lx,Ly,Lz)>
----------------------------------------------------------------------------------------------------
   1    1  6s         1.0427                  -0.000  0.000 -0.008               0.000  0.000  0.000
   1    2  6s         0.1380                   0.000 -0.000  0.004               0.000  0.000  0.000
   1    3  5dxy       1.6738                   0.000  0.000  0.063               0.000  0.000  0.049
   1    4  5dyz       1.8143                  -0.000  0.000  0.016              -0.000  0.000  0.019
   1    5  5dz2       1.8126                  -0.000  0.000  0.006              -0.000  0.000  0.000
   1    6  5dxz       1.6721                   0.000  0.000  0.064               0.000  0.000  0.019
   1    7  5dx2-y2    1.8022                  -0.000 -0.000  0.015              -0.000 -0.000  0.049
   1    8  5dxy       0.0037                  -0.000 -0.000  0.002              -0.000  0.000 -0.000
   1    9  5dyz      -0.0193                   0.000 -0.000  0.002               0.000  0.000 -0.000
   1   10  5dz2      -0.0098                   0.000 -0.000  0.002              -0.000  0.000  0.000
   1   11  5dxz       0.0036                  -0.000 -0.000  0.002              -0.000  0.000 -0.000
   1   12  5dx2-y2    0.0098                   0.000 -0.000  0.001               0.000  0.000 -0.000
   1   13  6Ppy       0.0319                   0.000  0.000  0.002               0.000  0.000 -0.000
   1   14  6Ppz       0.0318                   0.000  0.000  0.002               0.000 -0.000  0.000
   1   15  6Ppx      -0.0073                  -0.000 -0.000 -0.001               0.000 -0.000 -0.000
----------------------------------------------------------------------------------------------------
   1      Total      10.0000         0.172     0.000  0.000  0.172       0.272   0.000  0.000  0.272

   2   16  6s         1.0427                  -0.000 -0.000 -0.008               0.000  0.000  0.000
   2   17  6s         0.1380                   0.000  0.000  0.004               0.000  0.000  0.000
   2   18  5dxy       1.6738                   0.000 -0.000  0.063               0.000 -0.000  0.049
   2   19  5dyz       1.8143                  -0.000 -0.000  0.016              -0.000 -0.000  0.019
   2   20  5dz2       1.8126                  -0.000 -0.000  0.006              -0.000 -0.000  0.000
   2   21  5dxz       1.6721                   0.000 -0.000  0.064               0.000 -0.000  0.019
   2   22  5dx2-y2    1.8022                  -0.000  0.000  0.015              -0.000  0.000  0.049
   2   23  5dxy       0.0037                  -0.000  0.000  0.002              -0.000 -0.000 -0.000
   2   24  5dyz      -0.0193                   0.000  0.000  0.002               0.000 -0.000 -0.000
   2   25  5dz2      -0.0098                   0.000  0.000  0.002              -0.000 -0.000  0.000
   2   26  5dxz       0.0036                  -0.000  0.000  0.002              -0.000 -0.000 -0.000
   2   27  5dx2-y2    0.0098                   0.000  0.000  0.001               0.000 -0.000 -0.000
   2   28  6Ppy       0.0319                   0.000 -0.000  0.002               0.000  0.000 -0.000
   2   29  6Ppz       0.0318                   0.000 -0.000  0.002               0.000  0.000  0.000
   2   30  6Ppx      -0.0073                  -0.000  0.000 -0.001               0.000  0.000 -0.000
----------------------------------------------------------------------------------------------------
   2      Total      10.0000         0.172     0.000 -0.000  0.172       0.272   0.000 -0.000  0.272

----------------------------------------------------------------------------------------------------
Total      Total      20.0000         0.344     0.000  0.000  0.344       0.543   0.000  0.000  0.543


siesta: Eigenvalues (eV):
ik =     1
  -8.57  -8.43  -7.29  -7.28  -6.78  -6.78  -6.02  -6.02  -5.71  -5.63
  -5.19  -5.19  -4.80  -4.79  -4.78  -4.77  -4.56  -4.45  -4.26  -4.26
  -4.20  -4.20  -3.61  -3.44  -0.09  -0.08   0.55   0.66   1.03   1.04
   3.31   3.34   4.67   4.68   8.74   8.80   9.72   9.77  13.10  13.21
  20.85  20.85  21.14  21.14  21.49  21.49  21.59  21.59  23.55  23.55
  24.16  24.16  26.60  26.65  27.50  27.52  27.80  27.80  35.65  35.76
siesta: Fermi energy =      -4.226795 eV

siesta: Program's energy decomposition (eV):
siesta: Ebs     =      -115.495376
siesta: Eions   =      1671.574203
siesta: Ena     =        29.270177
siesta: Ekin    =      1097.725031
siesta: Enl     =      -554.920952
siesta: Eso     =        -1.532097
siesta: DEna    =         5.526687
siesta: DUscf   =         0.920796
siesta: DUext   =         0.000000
siesta: Exc     =     -1709.936272
siesta: eta*DQ  =         0.000000
siesta: Emadel  =         0.000000
siesta: Emeta   =         0.000000
siesta: Emolmec =         0.000000
siesta: Ekinion =         0.000000
siesta: Eharris =     -2804.520833
siesta: Etot    =     -2804.520833
siesta: FreeEng =     -2804.654133

siesta: Final energy (eV):
siesta:  Band Struct. =    -115.495376
siesta:       Kinetic =    1097.725031
siesta:       Hartree =    1576.330631
siesta:    Ext. field =       0.000000
siesta:   Exch.-corr. =   -1709.936272
siesta:  Ion-electron =   -3962.649279
siesta:       Ion-ion =     195.541153
siesta:       Ekinion =       0.000000
siesta:         Total =   -2804.520833

siesta: Atomic forces (eV/Ang):
siesta:      1   -0.523512    0.000000   -0.000003
siesta:      2    0.523512    0.000000    0.000003
siesta: ----------------------------------------
siesta:    Tot   -0.000000    0.000000   -0.000000

siesta: Stress tensor (static) (eV/Ang**3):
siesta:    -0.000153    0.000000    0.000000
siesta:     0.000000   -0.000000   -0.000000
siesta:    -0.000000   -0.000000   -0.000000

siesta: Cell volume =       8000.000000 Ang**3

siesta: Pressure (static):
siesta:                Solid            Molecule  Units
siesta:           0.00000056         -0.00000001  Ry/Bohr**3
siesta:           0.00005106         -0.00000127  eV/Ang**3
siesta:           0.08180029         -0.00203452  kBar
(Free)E+ p_basis*V_orbitals  =       -2802.939323
(Free)Eharris+ p_basis*V_orbitals  =       -2802.939323
 Calling spnvec: nspin, qspin =     4    10.34418     9.65582     0.00004     0.00000
 Leaving spnvec: qaux,stot,svec=      20.0000      0.6884      0.0001     -0.0000      0.6884

siesta: Total spin polarization (Qup-Qdown) =    0.688360
siesta: Spin vector =    0.000072   -0.000008    0.688360

siesta: Electric dipole (a.u.)  =   -0.000002    0.000000    0.000000
siesta: Electric dipole (Debye) =   -0.000006    0.000000    0.000000

timer: Elapsed wall time (sec) =    9292.477
timer: CPU execution times (sec):

Routine            Calls   Time/call    Tot.time        %
siesta                 1    9290.594    9290.594   100.00
Setup                  1       0.190       0.190     0.00
bands                  1       0.000       0.000     0.00
writewave              1       0.000       0.000     0.00
KSV_init               1       0.000       0.000     0.00
IterGeom               1    9290.402    9290.402   100.00
state_init             1       0.586       0.586     0.01
hsparse                1       0.000       0.000     0.00
overlap                1       0.584       0.584     0.01
Setup_H0               1       7.193       7.193     0.08
naefs                  2       0.000       0.001     0.00
MolMec                 2       0.000       0.000     0.00
kinefsm                2       0.281       0.563     0.01
nlefsm                 2       0.542       1.084     0.01
spinorb                2       0.078       0.155     0.00
DHSCF_Init             1       5.474       5.474     0.06
DHSCF1                 1       0.415       0.415     0.00
INITMESH               1       0.000       0.000     0.00
DHSCF2                 1       5.059       5.059     0.05
REMESH                 1       0.078       0.078     0.00
REORD               7708       0.074     572.635     6.16
PHION                  1       1.164       1.164     0.01
COMM_BSC            7694       0.074     571.964     6.16
POISON               962       3.140    3020.694    32.51
fft                 1924       1.165    2242.112    24.13
IterSCF              960       9.656    9269.347    99.77
setup_H              960       9.650    9263.738    99.71
DHSCF                961       9.648    9271.837    99.80
DHSCF3               961       9.644    9268.306    99.76
rhoofd               961       0.482     462.858     4.98
cellXC               961       2.994    2877.232    30.97
vmat                 961       0.479     460.212     4.95
compute_dm           960       0.004       3.543     0.04
diagon               960       0.003       3.350     0.04
cdiag                960       0.003       2.452     0.03
cdiag1               960       0.000       0.108     0.00
cdiag2               960       0.000       0.382     0.00
cdiag3               960       0.002       1.732     0.02
cdiag4               960       0.000       0.212     0.00
MIXER                959       0.000       0.460     0.00
WriteDM              960       0.001       1.377     0.01
PostSCF                1      13.271      13.271     0.14
DHSCF4                 1       3.525       3.525     0.04
dfscf                  1       2.060       2.060     0.02
overfsm                1       0.002       0.002     0.00
state_analysis         1       0.001       0.001     0.00
siesta_move            1       0.000       0.000     0.00
optical                1       0.000       0.000     0.00
  
>> End of run:  12-DEC-2015   0:25:26
