Siesta Version: siesta-trunk-479--so-ramon
Architecture  : ifort_O-1018-2_serial
Compiler flags: ifort    -w -O2 -mp
PP flags      : -DGFORTRAN -DFC_HAVE_FLUSH -DFC_HAVE_ABORT           
SERIAL version

* Running in serial mode
>> Start of run:   9-MAR-2016  17:12:47

                           ***********************       
                           *  WELCOME TO SIESTA  *       
                           ***********************       

reinit: Reading from standard input
************************** Dump of input data file ****************************
SystemName              pt2
SystemLabel             pt2
NumberOfAtoms           2
NumberOfSpecies         1
%block Chemical_Species_label
        1       78      Pt
%endblock Chemical_Species_label
PAO.EnergyShift  100 meV
PAO.SplitNorm      0.15
%Block PAO.Basis
Pt  2
n=6   0   2   P
     0.0  0.0
n=5   2   2
     0.0  0.0
%EndBlock PAO.Basis
AtomicCoordinatesFormat NotScaledCartesianAng
%block LatticeVectors
     1.00      .00      .00
      .00     1.00      .00
      .00      .00     1.00
%endblock LatticeVectors
LatticeConstant  20.0 Ang
%block AtomicCoordinatesAndAtomicSpecies
   0.00000   0.00000    -1.19940   1
   0.00000   0.00000     1.19940   1
%endblock AtomicCoordinatesAndAtomicSpecies
SpinPolarized           T
NonCollinearSpin        T
SpinOrbit               T
#WriteOrbMom             F
%block DM.InitSpin
 1  +1.  90.  90.
 2  +1.  90.  90.
%endblock DM.InitSpin
xc.functional           GGA
xc.authors              PBE
MeshCutoff              300. Ry
SolutionMethod          diagon
ElectronicTemperature   50 meV
DM.Tolerance            1.0E-5
MaxSCFIterations        1000
DM.MixingWeight         0.003
DM.NumberPulay          3
DM.UseSaveDM            T
DM.NumberKick           50
#Diag.DivideAndConquer   F
WriteMullikenPop       1
WriteEigenvalues       T
WriteForces            T
WriteCoorStep          T
#WriteCoorXmol          F
#WriteMDXmol            F
#%block ProjectedDensityOfStates
#-20.00 10.00 0.200 500 eV
#%endblock ProjectedDensityOfStates
#MD.TypeOfRun    CG
#MD.NumCGsteps   100
#MD.MaxCGDispl   0.10 Ang
#MD.MaxForceTol  0.01 eV/Ang
#MD.UseSaveCG   .true.
#MD.UseSaveXV   .true.
************************** End of input data file *****************************

reinit: -----------------------------------------------------------------------
reinit: System Name: pt2
reinit: -----------------------------------------------------------------------
reinit: System Label: pt2                                                         
reinit: -----------------------------------------------------------------------

initatom: Reading input for the pseudopotentials and atomic orbitals ----------
 Species number:            1  Label: Pt Atomic number:          78
Ground state valence configuration:   6s01  5d09
Reading pseudopotential information in formatted form from Pt.psf

Pseudopotential generated from a relativistic atomic calculation
There are spin-orbit pseudopotentials available
Spin-orbit interaction is not included in this calculation

Valence configuration for pseudopotential generation:
6s( 1.00) rc: 2.24
6p( 0.00) rc: 2.73
5d( 9.00) rc: 1.24
5f( 0.00) rc: 2.98
For Pt, standard SIESTA heuristics set lmxkb to 3
 (one more than the basis l, including polarization orbitals).
Use PS.lmax or PS.KBprojectors blocks to override.
 Warning: Empty PAO shell. l =           1
 Will have a KB projector anyway...

<basis_specs>
===============================================================================
Pt                   Z=  78    Mass=  195.08        Charge= 0.17977+309
Lmxo=2 Lmxkb= 3    BasisType=split      Semic=F
L=0  Nsemic=0  Cnfigmx=6
          n=1  nzeta=2  polorb=1
            splnorm:   0.15000    
               vcte:    0.0000    
               rinn:    0.0000    
               qcoe:    0.0000    
               qyuk:    0.0000    
               qwid:   0.10000E-01
                rcs:    0.0000      0.0000    
            lambdas:   1.00000     1.00000    
L=1  Nsemic=0  Cnfigmx=6
L=2  Nsemic=0  Cnfigmx=5
          n=1  nzeta=2  polorb=0
            splnorm:   0.15000    
               vcte:    0.0000    
               rinn:    0.0000    
               qcoe:    0.0000    
               qyuk:    0.0000    
               qwid:   0.10000E-01
                rcs:    0.0000      0.0000    
            lambdas:   1.00000     1.00000    
-------------------------------------------------------------------------------
L=0  Nkbl=1  erefs: 0.17977+309
L=1  Nkbl=1  erefs: 0.17977+309
L=2  Nkbl=1  erefs: 0.17977+309
L=3  Nkbl=1  erefs: 0.17977+309
===============================================================================
</basis_specs>

atom: Called for Pt                    (Z =  78)

read_vps: Pseudopotential generation method:
read_vps: ATM 3.2.2 Troullier-Martins                       
Total valence charge:   10.00000

read_vps: Pseudopotential includes a core correction:
read_vps: Pseudo-core for xc-correction

xc_check: Exchange-correlation functional:
xc_check: GGA Perdew, Burke & Ernzerhof 1996
V l=0 = -2*Zval/r beyond r=  3.0596
V l=1 = -2*Zval/r beyond r=  3.0596
V l=2 = -2*Zval/r beyond r=  3.0596
V l=3 = -2*Zval/r beyond r=  3.0981
All V_l potentials equal beyond r=  2.9104
This should be close to max(r_c) in ps generation
All pots = -2*Zval/r beyond r=  3.0981

VLOCAL1: 99.0% of the norm of Vloc inside      5.125 Ry
VLOCAL1: 99.9% of the norm of Vloc inside     11.679 Ry
atom: Maximum radius for 4*pi*r*r*local-pseudopot. charge    3.51058
atom: Maximum radius for r*vlocal+2*Zval:    3.09807
GHOST: No ghost state for L =  0
GHOST: No ghost state for L =  1
GHOST: No ghost state for L =  2
GHOST: No ghost state for L =  3

KBgen: Kleinman-Bylander projectors: 
   l= 0   rc=  3.297886   el= -0.413885   Ekb=  4.454381   kbcos=  0.246717
   l= 1   rc=  3.381373   el= -0.063071   Ekb=  1.998299   kbcos=  0.230762
   l= 2   rc=  3.137044   el= -0.454162   Ekb= -5.116612   kbcos= -0.676172
   l= 3   rc=  3.599455   el=  0.003169   Ekb= -0.935521   kbcos= -0.024370

KBgen: Total number of  Kleinman-Bylander projectors:   16
atom: -------------------------------------------------------------------------

atom: SANKEY-TYPE ORBITALS:
atom: Selected multiple-zeta basis: split     

SPLIT: Orbitals with angular momentum L= 0

SPLIT: Basis orbitals for state 6s

SPLIT: PAO cut-off radius determined from an
SPLIT: energy shift=  0.007350 Ry

   izeta = 1
                 lambda =    1.000000
                     rc =    7.158402
                 energy =   -0.407576
                kinetic =    0.352573
    potential(screened) =   -0.760148
       potential(ionic) =   -7.385835

   izeta = 2
                 rmatch =    6.009165
              splitnorm =    0.150000
                 energy =   -0.341372
                kinetic =    0.579404
    potential(screened) =   -0.920777
       potential(ionic) =   -8.017759

SPLIT: Orbitals with angular momentum L= 2

SPLIT: Basis orbitals for state 5d

SPLIT: PAO cut-off radius determined from an
SPLIT: energy shift=  0.007350 Ry

   izeta = 1
                 lambda =    1.000000
                     rc =    5.044431
                 energy =   -0.446663
                kinetic =    4.610144
    potential(screened) =   -5.056807
       potential(ionic) =  -13.997492

   izeta = 2
                 rmatch =    3.021582
              splitnorm =    0.150000
                 energy =   -0.194009
                kinetic =    6.450170
    potential(screened) =   -6.644179
       potential(ionic) =  -16.245470

POLgen: Perturbative polarization orbital with L=  1

POLgen: Polarization orbital for state 6s

   izeta = 1
                     rc =    7.158402
                 energy =   -0.090110
                kinetic =    0.622430
    potential(screened) =   -0.712540
       potential(ionic) =   -6.949247
atom: Total number of Sankey-type orbitals: 15

atm_pop: Valence configuration (for local Pseudopot. screening):
 6s( 1.00)                                                            
 6p( 0.00)                                                            
 5d( 9.00)                                                            
Vna: chval, zval:   10.00000  10.00000

Vna:  Cut-off radius for the neutral-atom potential:   7.158402
comcore: Pseudo-core radius Rcore=  4.130025

atom: _________________________________________________________________________

prinput: Basis input ----------------------------------------------------------

PAO.BasisType split     

%block ChemicalSpeciesLabel
    1   78 Pt                      # Species index, atomic number, species label
%endblock ChemicalSpeciesLabel

%block PAO.Basis                 # Define Basis set
Pt                    2                    # Species label, number of l-shells
 n=6   0   2 P   1                   # n, l, Nzeta, Polarization, NzetaPol
   7.158      6.009   
   1.000      1.000   
 n=5   2   2                         # n, l, Nzeta 
   5.044      3.022   
   1.000      1.000   
%endblock PAO.Basis

prinput: ----------------------------------------------------------------------

coor:   Atomic-coordinates input format  =     Cartesian coordinates
coor:                                          (in Angstroms)

siesta: Atomic coordinates (Bohr) and species
siesta:      0.00000   0.00000  -2.26654  1        1
siesta:      0.00000   0.00000   2.26654  1        2

siesta: System type = molecule  

initatomlists: Number of atoms, orbitals, and projectors:      2    30    32

siesta: ******************** Simulation parameters ****************************
siesta:
siesta: The following are some of the parameters of the simulation.
siesta: A complete list of the parameters used, including default values,
siesta: can be found in file out.fdf
siesta:
m_spin: SpOrb =  T
redata: Non-magnetic run                =     F
redata: SpinPolarized run                =     F
redata: Non-Collinear-spin run           =     F
redata: Spin-Orbit run                   =     T
redata: Time-Reversal Symmetry           =     F
redata: Number of spin components        =     4
redata: Long output                      =     F
redata: Number of Atomic Species         =        1
redata: Charge density info will appear in .RHO file
redata: Write Mulliken Pop.              =     Atomic and Orbital charges
redata: Mesh Cutoff                      =   300.0000  Ry
redata: Net charge of the system         =     0.0000 |e|
redata: Min. number of SCF Iter          =        0
redata: Max. number of SCF Iter          =     1000
redata: Mix DM or H after convergence    =     F
redata: Recompute H after scf cycle      =     F
redata: Performing Pulay mixing using    =     3 iterations
redata: Mix DM in first SCF step ?       =     F
redata: Write Pulay info on disk?        =     F
redata: Discard 1st Pulay DM after  kick =     F
redata: New DM Mixing Weight             =     0.0030
redata: New DM Occupancy tolerance       = 0.000000000001
redata: Kick with linear mixing every    =    50 iterations
redata: DM Mixing Weight for Kicks       =     0.5000
redata: DM Tolerance for SCF             =     0.000010
redata: Require (free) Energy convergence in SCF =     F
redata: DM (free)Energy tolerance for SCF =     0.000010 eV
redata: Require Harris convergence for SCF =     F
redata: DM Harris energy tolerance for SCF =     0.000010 eV
redata: Using Saved Data (generic)   =     F
redata: Use continuation files for DM    =     T
redata: Neglect nonoverlap interactions  =     F
redata: Method of Calculation            =     Diagonalization
redata: Divide and Conquer               =     T
redata: Electronic Temperature           =     0.0037  Ry
redata: Fix the spin of the system       =     F
redata: Dynamics option                  =     Single-point calculation
redata: ***********************************************************************
Total number of electrons:    20.000000
Total ionic charge:    20.000000
 Kpoints in:            1 . Kpoints trimmed:            1

siesta: k-grid: Number of k-points =     1
siesta: k-grid: Cutoff (effective) =    10.000 Ang
siesta: k-grid: Supercell and displacements
siesta: k-grid:    1   0   0      0.000
siesta: k-grid:    0   1   0      0.000
siesta: k-grid:    0   0   1      0.000

                     ====================================
                        Single-point calculation
                     ====================================

outcoor: Atomic coordinates (Ang):                          
    0.00000000    0.00000000   -1.19940000   1       1  Pt
    0.00000000    0.00000000    1.19940000   1       2  Pt

outcell: Unit cell vectors (Ang):
       20.000000    0.000000    0.000000
        0.000000   20.000000    0.000000
        0.000000    0.000000   20.000000

outcell: Cell vector modules (Ang)   :   20.000000   20.000000   20.000000
outcell: Cell angles (23,13,12) (deg):     90.0000     90.0000     90.0000
outcell: Cell volume (Ang**3)        :   8000.0000
New_DM. Step:     1
Initializing Density Matrix...

iodm: Reading Density Matrix from files
New grid distribution:   1
           1       1:  108    1:  108    1:  108

InitMesh: MESH =   216 x   216 x   216 =    10077696
InitMesh: (bp) =   108 x   108 x   108 =     1259712
InitMesh: Mesh cutoff (required, used) =   300.000   322.366 Ry
ExtMesh (bp) on 0 =   192 x   192 x   192 =     7077888
PhiOnMesh: Number of (b)points on node 0 =              1259712
PhiOnMesh: nlist on node 0 =               514193

stepf: Fermi-Dirac step function
           (SO)Ebs =  -8.48705054
 Calculating DEharr... 
 SpOrb/NonColl/nh =  T F         900
      Size Dscf/H =       7200      7200
        (SO)DEharr =   0.00000302

siesta: Program's energy decomposition (eV):
siesta: Ebs     =      -115.473112
siesta: Eions   =      1671.574203
siesta: Ena     =        29.270177
siesta: Ekin    =      1097.751896
siesta: Enl     =      -554.939312
siesta: Eso     =        -1.528683
siesta: DEna    =         5.522920
siesta: DUscf   =         0.922221
siesta: DUext   =         0.000000
siesta: Exc     =     -1709.946126
siesta: eta*DQ  =         0.000000
siesta: Emadel  =         0.000000
siesta: Emeta   =         0.000000
siesta: Emolmec =         0.000000
siesta: Ekinion =         0.000000
siesta: Eharris =     -2804.521068
siesta: Etot    =     -2804.521109
siesta: FreeEng =     -2804.654165

siesta: iscf      Eharris(eV)         E_KS(eV)      FreeEng(eV)      dDmax      Ef(eV)
   scf:    1     -2804.521068     -2804.521109     -2804.654165   0.000443   -4.223637
timer: Routine,Calls,Time,% =    IterSCF     1       9.641  54.75
           (SO)Ebs =  -8.48731019
 Calculating DEharr... 
 SpOrb/NonColl/nh =  T F         900
      Size Dscf/H =       7200      7200
        (SO)DEharr =   0.00000112
   scf:    2     -2804.521050     -2804.521065     -2804.654162   0.001140   -4.224135
           (SO)Ebs =  -8.48706089
 Calculating DEharr... 
 SpOrb/NonColl/nh =  T F         900
      Size Dscf/H =       7200      7200
        (SO)DEharr =   0.00000303
   scf:    3     -2804.521066     -2804.521108     -2804.654165   0.000445   -4.223656
           (SO)Ebs =  -8.48704749
 Calculating DEharr... 
 SpOrb/NonColl/nh =  T F         900
      Size Dscf/H =       7200      7200
        (SO)DEharr =   0.00000299
   scf:    4     -2804.521069     -2804.521110     -2804.654165   0.000442   -4.223632
           (SO)Ebs =  -8.48704625
 Calculating DEharr... 
 SpOrb/NonColl/nh =  T F         900
      Size Dscf/H =       7200      7200
        (SO)DEharr =   0.00000299
   scf:    5     -2804.521069     -2804.521110     -2804.654165   0.000442   -4.223630
           (SO)Ebs =  -8.48702772
 Calculating DEharr... 
 SpOrb/NonColl/nh =  T F         900
      Size Dscf/H =       7200      7200
        (SO)DEharr =   0.00000306
   scf:    6     -2804.521071     -2804.521113     -2804.654165   0.000447   -4.223591
           (SO)Ebs =  -8.48703379
 Calculating DEharr... 
 SpOrb/NonColl/nh =  T F         900
      Size Dscf/H =       7200      7200
        (SO)DEharr =   0.00000305
   scf:    7     -2804.521071     -2804.521112     -2804.654164   0.000447   -4.223603
           (SO)Ebs =  -8.48705160
 Calculating DEharr... 
 SpOrb/NonColl/nh =  T F         900
      Size Dscf/H =       7200      7200
        (SO)DEharr =   0.00000303
   scf:    8     -2804.521068     -2804.521109     -2804.654164   0.000447   -4.223637
           (SO)Ebs =  -8.48706509
 Calculating DEharr... 
 SpOrb/NonColl/nh =  T F         900
      Size Dscf/H =       7200      7200
        (SO)DEharr =   0.00000302
   scf:    9     -2804.521066     -2804.521107     -2804.654164   0.000447   -4.223664
           (SO)Ebs =  -8.48706442
 Calculating DEharr... 
 SpOrb/NonColl/nh =  T F         900
      Size Dscf/H =       7200      7200
        (SO)DEharr =   0.00000302
   scf:   10     -2804.521066     -2804.521107     -2804.654164   0.000447   -4.223663
           (SO)Ebs =  -8.48706433
 Calculating DEharr... 
 SpOrb/NonColl/nh =  T F         900
      Size Dscf/H =       7200      7200
        (SO)DEharr =   0.00000302
   scf:   11     -2804.521066     -2804.521107     -2804.654164   0.000447   -4.223662
           (SO)Ebs =  -8.48707766
 Calculating DEharr... 
 SpOrb/NonColl/nh =  T F         900
      Size Dscf/H =       7200      7200
        (SO)DEharr =   0.00000301
   scf:   12     -2804.521064     -2804.521105     -2804.654165   0.000452   -4.223689
Warning: unstable inversion in Pulayx - fallback to linear mixing
           (SO)Ebs =  -8.48707842
 Calculating DEharr... 
 SpOrb/NonColl/nh =  T F         900
      Size Dscf/H =       7200      7200
        (SO)DEharr =   0.00000301
   scf:   13     -2804.521064     -2804.521105     -2804.654165   0.000451   -4.223691
           (SO)Ebs =  -8.48702716
 Calculating DEharr... 
 SpOrb/NonColl/nh =  T F         900
      Size Dscf/H =       7200      7200
        (SO)DEharr =   0.00000305
   scf:   14     -2804.521072     -2804.521113     -2804.654164   0.000458   -4.223590
           (SO)Ebs =  -8.48702124
 Calculating DEharr... 
 SpOrb/NonColl/nh =  T F         900
      Size Dscf/H =       7200      7200
        (SO)DEharr =   0.00000306
   scf:   15     -2804.521072     -2804.521114     -2804.654164   0.000458   -4.223578
           (SO)Ebs =  -8.48700138
 Calculating DEharr... 
 SpOrb/NonColl/nh =  T F         900
      Size Dscf/H =       7200      7200
        (SO)DEharr =   0.00000309
   scf:   16     -2804.521075     -2804.521117     -2804.654165   0.000459   -4.223539
           (SO)Ebs =  -8.48700168
 Calculating DEharr... 
 SpOrb/NonColl/nh =  T F         900
      Size Dscf/H =       7200      7200
        (SO)DEharr =   0.00000309
   scf:   17     -2804.521075     -2804.521117     -2804.654165   0.000459   -4.223540
           (SO)Ebs =  -8.48702136
 Calculating DEharr... 
 SpOrb/NonColl/nh =  T F         900
      Size Dscf/H =       7200      7200
        (SO)DEharr =   0.00000310
   scf:   18     -2804.521072     -2804.521114     -2804.654165   0.000458   -4.223579
           (SO)Ebs =  -8.48701951
 Calculating DEharr... 
 SpOrb/NonColl/nh =  T F         900
      Size Dscf/H =       7200      7200
        (SO)DEharr =   0.00000310
   scf:   19     -2804.521072     -2804.521114     -2804.654165   0.000458   -4.223575
           (SO)Ebs =  -8.48702449
 Calculating DEharr... 
 SpOrb/NonColl/nh =  T F         900
      Size Dscf/H =       7200      7200
        (SO)DEharr =   0.00000309
   scf:   20     -2804.521072     -2804.521114     -2804.654165   0.000458   -4.223585
           (SO)Ebs =  -8.48702651
 Calculating DEharr... 
 SpOrb/NonColl/nh =  T F         900
      Size Dscf/H =       7200      7200
        (SO)DEharr =   0.00000310
   scf:   21     -2804.521071     -2804.521113     -2804.654165   0.000457   -4.223589
           (SO)Ebs =  -8.48702141
 Calculating DEharr... 
 SpOrb/NonColl/nh =  T F         900
      Size Dscf/H =       7200      7200
        (SO)DEharr =   0.00000310
   scf:   22     -2804.521072     -2804.521114     -2804.654165   0.000458   -4.223579
           (SO)Ebs =  -8.48702606
 Calculating DEharr... 
 SpOrb/NonColl/nh =  T F         900
      Size Dscf/H =       7200      7200
        (SO)DEharr =   0.00000309
   scf:   23     -2804.521071     -2804.521113     -2804.654165   0.000458   -4.223588
           (SO)Ebs =  -8.48702464
 Calculating DEharr... 
 SpOrb/NonColl/nh =  T F         900
      Size Dscf/H =       7200      7200
        (SO)DEharr =   0.00000309
   scf:   24     -2804.521072     -2804.521114     -2804.654165   0.000458   -4.223585
           (SO)Ebs =  -8.48701680
 Calculating DEharr... 
 SpOrb/NonColl/nh =  T F         900
      Size Dscf/H =       7200      7200
        (SO)DEharr =   0.00000309
   scf:   25     -2804.521073     -2804.521115     -2804.654165   0.000459   -4.223570
           (SO)Ebs =  -8.48701672
 Calculating DEharr... 
 SpOrb/NonColl/nh =  T F         900
      Size Dscf/H =       7200      7200
        (SO)DEharr =   0.00000309
   scf:   26     -2804.521073     -2804.521115     -2804.654165   0.000459   -4.223569
Warning: unstable inversion in Pulayx - fallback to linear mixing
           (SO)Ebs =  -8.48701750
 Calculating DEharr... 
 SpOrb/NonColl/nh =  T F         900
      Size Dscf/H =       7200      7200
        (SO)DEharr =   0.00000309
   scf:   27     -2804.521073     -2804.521115     -2804.654165   0.000459   -4.223571
Warning: unstable inversion in Pulayx - fallback to linear mixing
           (SO)Ebs =  -8.48701828
 Calculating DEharr... 
 SpOrb/NonColl/nh =  T F         900
      Size Dscf/H =       7200      7200
        (SO)DEharr =   0.00000310
   scf:   28     -2804.521073     -2804.521115     -2804.654165   0.000459   -4.223573
Warning: unstable inversion in Pulayx - fallback to linear mixing
           (SO)Ebs =  -8.48701906
 Calculating DEharr... 
 SpOrb/NonColl/nh =  T F         900
      Size Dscf/H =       7200      7200
        (SO)DEharr =   0.00000310
   scf:   29     -2804.521072     -2804.521115     -2804.654165   0.000459   -4.223574
Warning: unstable inversion in Pulayx - fallback to linear mixing
           (SO)Ebs =  -8.48701984
 Calculating DEharr... 
 SpOrb/NonColl/nh =  T F         900
      Size Dscf/H =       7200      7200
        (SO)DEharr =   0.00000310
   scf:   30     -2804.521072     -2804.521114     -2804.654165   0.000458   -4.223576
Warning: unstable inversion in Pulayx - fallback to linear mixing
           (SO)Ebs =  -8.48702062
 Calculating DEharr... 
 SpOrb/NonColl/nh =  T F         900
      Size Dscf/H =       7200      7200
        (SO)DEharr =   0.00000310
   scf:   31     -2804.521072     -2804.521114     -2804.654165   0.000458   -4.223577
Warning: unstable inversion in Pulayx - fallback to linear mixing
           (SO)Ebs =  -8.48702140
 Calculating DEharr... 
 SpOrb/NonColl/nh =  T F         900
      Size Dscf/H =       7200      7200
        (SO)DEharr =   0.00000310
   scf:   32     -2804.521072     -2804.521114     -2804.654165   0.000458   -4.223579
Warning: unstable inversion in Pulayx - fallback to linear mixing
           (SO)Ebs =  -8.48702218
 Calculating DEharr... 
 SpOrb/NonColl/nh =  T F         900
      Size Dscf/H =       7200      7200
        (SO)DEharr =   0.00000310
   scf:   33     -2804.521072     -2804.521114     -2804.654165   0.000458   -4.223580
Warning: unstable inversion in Pulayx - fallback to linear mixing
           (SO)Ebs =  -8.48702296
 Calculating DEharr... 
 SpOrb/NonColl/nh =  T F         900
      Size Dscf/H =       7200      7200
        (SO)DEharr =   0.00000310
   scf:   34     -2804.521072     -2804.521114     -2804.654165   0.000457   -4.223582
Warning: unstable inversion in Pulayx - fallback to linear mixing
           (SO)Ebs =  -8.48702374
 Calculating DEharr... 
 SpOrb/NonColl/nh =  T F         900
      Size Dscf/H =       7200      7200
        (SO)DEharr =   0.00000310
   scf:   35     -2804.521072     -2804.521114     -2804.654165   0.000457   -4.223583
Warning: unstable inversion in Pulayx - fallback to linear mixing
           (SO)Ebs =  -8.48702451
 Calculating DEharr... 
 SpOrb/NonColl/nh =  T F         900
      Size Dscf/H =       7200      7200
        (SO)DEharr =   0.00000310
   scf:   36     -2804.521072     -2804.521114     -2804.654165   0.000457   -4.223585
Warning: unstable inversion in Pulayx - fallback to linear mixing
           (SO)Ebs =  -8.48702529
 Calculating DEharr... 
 SpOrb/NonColl/nh =  T F         900
      Size Dscf/H =       7200      7200
        (SO)DEharr =   0.00000310
   scf:   37     -2804.521071     -2804.521114     -2804.654165   0.000457   -4.223586
Warning: unstable inversion in Pulayx - fallback to linear mixing
           (SO)Ebs =  -8.48702607
 Calculating DEharr... 
 SpOrb/NonColl/nh =  T F         900
      Size Dscf/H =       7200      7200
        (SO)DEharr =   0.00000309
   scf:   38     -2804.521071     -2804.521113     -2804.654165   0.000457   -4.223588
Warning: unstable inversion in Pulayx - fallback to linear mixing
           (SO)Ebs =  -8.48702684
 Calculating DEharr... 
 SpOrb/NonColl/nh =  T F         900
      Size Dscf/H =       7200      7200
        (SO)DEharr =   0.00000309
   scf:   39     -2804.521071     -2804.521113     -2804.654165   0.000456   -4.223589
Warning: unstable inversion in Pulayx - fallback to linear mixing
           (SO)Ebs =  -8.48702762
 Calculating DEharr... 
 SpOrb/NonColl/nh =  T F         900
      Size Dscf/H =       7200      7200
        (SO)DEharr =   0.00000309
   scf:   40     -2804.521071     -2804.521113     -2804.654165   0.000456   -4.223591
Warning: unstable inversion in Pulayx - fallback to linear mixing
           (SO)Ebs =  -8.48702839
 Calculating DEharr... 
 SpOrb/NonColl/nh =  T F         900
      Size Dscf/H =       7200      7200
        (SO)DEharr =   0.00000309
   scf:   41     -2804.521071     -2804.521113     -2804.654165   0.000456   -4.223592
Warning: unstable inversion in Pulayx - fallback to linear mixing
           (SO)Ebs =  -8.48702917
 Calculating DEharr... 
 SpOrb/NonColl/nh =  T F         900
      Size Dscf/H =       7200      7200
        (SO)DEharr =   0.00000309
   scf:   42     -2804.521071     -2804.521113     -2804.654165   0.000456   -4.223594
Warning: unstable inversion in Pulayx - fallback to linear mixing
           (SO)Ebs =  -8.48702994
 Calculating DEharr... 
 SpOrb/NonColl/nh =  T F         900
      Size Dscf/H =       7200      7200
        (SO)DEharr =   0.00000309
   scf:   43     -2804.521071     -2804.521113     -2804.654165   0.000456   -4.223596
           (SO)Ebs =  -8.48701682
 Calculating DEharr... 
 SpOrb/NonColl/nh =  T F         900
      Size Dscf/H =       7200      7200
        (SO)DEharr =   0.00000261
   scf:   44     -2804.521075     -2804.521110     -2804.654158   0.000462   -4.223553
Warning: unstable inversion in Pulayx - fallback to linear mixing
           (SO)Ebs =  -8.48701753
 Calculating DEharr... 
 SpOrb/NonColl/nh =  T F         900
      Size Dscf/H =       7200      7200
        (SO)DEharr =   0.00000261
   scf:   45     -2804.521075     -2804.521110     -2804.654158   0.000462   -4.223554
           (SO)Ebs =  -8.48701492
 Calculating DEharr... 
 SpOrb/NonColl/nh =  T F         900
      Size Dscf/H =       7200      7200
        (SO)DEharr =   0.00000242
   scf:   46     -2804.521076     -2804.521109     -2804.654155   0.000463   -4.223542
           (SO)Ebs =  -8.48701443
 Calculating DEharr... 
 SpOrb/NonColl/nh =  T F         900
      Size Dscf/H =       7200      7200
        (SO)DEharr =   0.00000238
   scf:   47     -2804.521076     -2804.521108     -2804.654155   0.000464   -4.223540
           (SO)Ebs =  -8.48701498
 Calculating DEharr... 
 SpOrb/NonColl/nh =  T F         900
      Size Dscf/H =       7200      7200
        (SO)DEharr =   0.00000230
   scf:   48     -2804.521076     -2804.521107     -2804.654154   0.000464   -4.223539
           (SO)Ebs =  -8.48701476
 Calculating DEharr... 
 SpOrb/NonColl/nh =  T F         900
      Size Dscf/H =       7200      7200
        (SO)DEharr =   0.00000230
   scf:   49     -2804.521076     -2804.521108     -2804.654154   0.000464   -4.223538
           (SO)Ebs =  -8.48701738
 Calculating DEharr... 
 SpOrb/NonColl/nh =  T F         900
      Size Dscf/H =       7200      7200
        (SO)DEharr =   0.00000269
   scf:   50     -2804.521074     -2804.521111     -2804.654159   0.000460   -4.223558
Applying kick at iscf:   50
Re-setting Pulay history
           (SO)Ebs =  -8.48713904
 Calculating DEharr... 
 SpOrb/NonColl/nh =  T F         900
      Size Dscf/H =       7200      7200
        (SO)DEharr =   0.00000270
   scf:   51     -2804.521056     -2804.521093     -2804.654163   0.000471   -4.223812
           (SO)Ebs =  -8.48713978
 Calculating DEharr... 
 SpOrb/NonColl/nh =  T F         900
      Size Dscf/H =       7200      7200
        (SO)DEharr =   0.00000271
   scf:   52     -2804.521056     -2804.521093     -2804.654163   0.000464   -4.223813
           (SO)Ebs =  -8.48715311
 Calculating DEharr... 
 SpOrb/NonColl/nh =  T F         900
      Size Dscf/H =       7200      7200
        (SO)DEharr =   0.00000276
   scf:   53     -2804.521053     -2804.521091     -2804.654162   0.000431   -4.223835
           (SO)Ebs =  -8.48715322
 Calculating DEharr... 
 SpOrb/NonColl/nh =  T F         900
      Size Dscf/H =       7200      7200
        (SO)DEharr =   0.00000276
   scf:   54     -2804.521053     -2804.521091     -2804.654162   0.000431   -4.223835
           (SO)Ebs =  -8.48715765
 Calculating DEharr... 
 SpOrb/NonColl/nh =  T F         900
      Size Dscf/H =       7200      7200
        (SO)DEharr =   0.00000274
   scf:   55     -2804.521053     -2804.521090     -2804.654162   0.000431   -4.223843
Warning: unstable inversion in Pulayx - fallback to linear mixing
           (SO)Ebs =  -8.48715393
 Calculating DEharr... 
 SpOrb/NonColl/nh =  T F         900
      Size Dscf/H =       7200      7200
        (SO)DEharr =   0.00000275
   scf:   56     -2804.521053     -2804.521090     -2804.654162   0.000431   -4.223836
           (SO)Ebs =  -8.48715384
 Calculating DEharr... 
 SpOrb/NonColl/nh =  T F         900
      Size Dscf/H =       7200      7200
        (SO)DEharr =   0.00000276
   scf:   57     -2804.521053     -2804.521090     -2804.654162   0.000431   -4.223836
           (SO)Ebs =  -8.48715401
 Calculating DEharr... 
 SpOrb/NonColl/nh =  T F         900
      Size Dscf/H =       7200      7200
        (SO)DEharr =   0.00000276
   scf:   58     -2804.521053     -2804.521090     -2804.654162   0.000431   -4.223836
           (SO)Ebs =  -8.48715137
 Calculating DEharr... 
 SpOrb/NonColl/nh =  T F         900
      Size Dscf/H =       7200      7200
        (SO)DEharr =   0.00000276
   scf:   59     -2804.521053     -2804.521091     -2804.654162   0.000431   -4.223831
           (SO)Ebs =  -8.48714941
 Calculating DEharr... 
 SpOrb/NonColl/nh =  T F         900
      Size Dscf/H =       7200      7200
        (SO)DEharr =   0.00000277
   scf:   60     -2804.521053     -2804.521091     -2804.654162   0.000431   -4.223827
           (SO)Ebs =  -8.48714639
 Calculating DEharr... 
 SpOrb/NonColl/nh =  T F         900
      Size Dscf/H =       7200      7200
        (SO)DEharr =   0.00000275
   scf:   61     -2804.521054     -2804.521091     -2804.654162   0.000432   -4.223821
           (SO)Ebs =  -8.48714632
 Calculating DEharr... 
 SpOrb/NonColl/nh =  T F         900
      Size Dscf/H =       7200      7200
        (SO)DEharr =   0.00000273
   scf:   62     -2804.521054     -2804.521091     -2804.654162   0.000433   -4.223820
           (SO)Ebs =  -8.48715598
 Calculating DEharr... 
 SpOrb/NonColl/nh =  T F         900
      Size Dscf/H =       7200      7200
        (SO)DEharr =   0.00000263
   scf:   63     -2804.521054     -2804.521089     -2804.654160   0.000434   -4.223836
           (SO)Ebs =  -8.48715592
 Calculating DEharr... 
 SpOrb/NonColl/nh =  T F         900
      Size Dscf/H =       7200      7200
        (SO)DEharr =   0.00000263
   scf:   64     -2804.521054     -2804.521089     -2804.654160   0.000434   -4.223836
           (SO)Ebs =  -8.48710291
 Calculating DEharr... 
 SpOrb/NonColl/nh =  T F         900
      Size Dscf/H =       7200      7200
        (SO)DEharr =   0.00000121
   scf:   65     -2804.521070     -2804.521086     -2804.654140   0.000450   -4.223679
           (SO)Ebs =  -8.48709734
 Calculating DEharr... 
 SpOrb/NonColl/nh =  T F         900
      Size Dscf/H =       7200      7200
        (SO)DEharr =   0.00000108
   scf:   66     -2804.521071     -2804.521086     -2804.654138   0.000451   -4.223663
           (SO)Ebs =  -8.48709705
 Calculating DEharr... 
 SpOrb/NonColl/nh =  T F         900
      Size Dscf/H =       7200      7200
        (SO)DEharr =   0.00000108
   scf:   67     -2804.521071     -2804.521086     -2804.654138   0.000451   -4.223663
           (SO)Ebs =  -8.48709769
 Calculating DEharr... 
 SpOrb/NonColl/nh =  T F         900
      Size Dscf/H =       7200      7200
        (SO)DEharr =   0.00000113
   scf:   68     -2804.521070     -2804.521086     -2804.654139   0.000448   -4.223666
           (SO)Ebs =  -8.48710072
 Calculating DEharr... 
 SpOrb/NonColl/nh =  T F         900
      Size Dscf/H =       7200      7200
        (SO)DEharr =   0.00000119
   scf:   69     -2804.521069     -2804.521086     -2804.654139   0.000447   -4.223675
           (SO)Ebs =  -8.48710094
 Calculating DEharr... 
 SpOrb/NonColl/nh =  T F         900
      Size Dscf/H =       7200      7200
        (SO)DEharr =   0.00000119
   scf:   70     -2804.521069     -2804.521086     -2804.654140   0.000447   -4.223675
           (SO)Ebs =  -8.48710557
 Calculating DEharr... 
 SpOrb/NonColl/nh =  T F         900
      Size Dscf/H =       7200      7200
        (SO)DEharr =   0.00000119
   scf:   71     -2804.521068     -2804.521085     -2804.654139   0.000444   -4.223685
Warning: unstable inversion in Pulayx - fallback to linear mixing
           (SO)Ebs =  -8.48710142
 Calculating DEharr... 
 SpOrb/NonColl/nh =  T F         900
      Size Dscf/H =       7200      7200
        (SO)DEharr =   0.00000120
   scf:   72     -2804.521069     -2804.521086     -2804.654140   0.000446   -4.223676
           (SO)Ebs =  -8.48710625
 Calculating DEharr... 
 SpOrb/NonColl/nh =  T F         900
      Size Dscf/H =       7200      7200
        (SO)DEharr =   0.00000118
   scf:   73     -2804.521068     -2804.521084     -2804.654139   0.000444   -4.223687
           (SO)Ebs =  -8.48712213
 Calculating DEharr... 
 SpOrb/NonColl/nh =  T F         900
      Size Dscf/H =       7200      7200
        (SO)DEharr =   0.00000066
   scf:   74     -2804.521070     -2804.521079     -2804.654133   0.000442   -4.223706
           (SO)Ebs =  -8.48712266
 Calculating DEharr... 
 SpOrb/NonColl/nh =  T F         900
      Size Dscf/H =       7200      7200
        (SO)DEharr =   0.00000066
   scf:   75     -2804.521069     -2804.521078     -2804.654133   0.000442   -4.223707
           (SO)Ebs =  -8.48712462
 Calculating DEharr... 
 SpOrb/NonColl/nh =  T F         900
      Size Dscf/H =       7200      7200
        (SO)DEharr =   0.00000069
   scf:   76     -2804.521069     -2804.521078     -2804.654133   0.000440   -4.223712
           (SO)Ebs =  -8.48712491
 Calculating DEharr... 
 SpOrb/NonColl/nh =  T F         900
      Size Dscf/H =       7200      7200
        (SO)DEharr =   0.00000068
   scf:   77     -2804.521069     -2804.521078     -2804.654133   0.000440   -4.223712
           (SO)Ebs =  -8.48712487
 Calculating DEharr... 
 SpOrb/NonColl/nh =  T F         900
      Size Dscf/H =       7200      7200
        (SO)DEharr =   0.00000069
   scf:   78     -2804.521069     -2804.521078     -2804.654133   0.000440   -4.223712
           (SO)Ebs =  -8.48712532
 Calculating DEharr... 
 SpOrb/NonColl/nh =  T F         900
      Size Dscf/H =       7200      7200
        (SO)DEharr =   0.00000069
   scf:   79     -2804.521069     -2804.521078     -2804.654133   0.000440   -4.223713
           (SO)Ebs =  -8.48712487
 Calculating DEharr... 
 SpOrb/NonColl/nh =  T F         900
      Size Dscf/H =       7200      7200
        (SO)DEharr =   0.00000069
   scf:   80     -2804.521069     -2804.521078     -2804.654133   0.000440   -4.223712
           (SO)Ebs =  -8.48712504
 Calculating DEharr... 
 SpOrb/NonColl/nh =  T F         900
      Size Dscf/H =       7200      7200
        (SO)DEharr =   0.00000069
   scf:   81     -2804.521069     -2804.521078     -2804.654133   0.000440   -4.223713
           (SO)Ebs =  -8.48712431
 Calculating DEharr... 
 SpOrb/NonColl/nh =  T F         900
      Size Dscf/H =       7200      7200
        (SO)DEharr =   0.00000070
   scf:   82     -2804.521069     -2804.521078     -2804.654133   0.000440   -4.223712
           (SO)Ebs =  -8.48712442
 Calculating DEharr... 
 SpOrb/NonColl/nh =  T F         900
      Size Dscf/H =       7200      7200
        (SO)DEharr =   0.00000070
   scf:   83     -2804.521069     -2804.521078     -2804.654133   0.000440   -4.223712
           (SO)Ebs =  -8.48712446
 Calculating DEharr... 
 SpOrb/NonColl/nh =  T F         900
      Size Dscf/H =       7200      7200
        (SO)DEharr =   0.00000071
   scf:   84     -2804.521069     -2804.521078     -2804.654133   0.000440   -4.223712
           (SO)Ebs =  -8.48712453
 Calculating DEharr... 
 SpOrb/NonColl/nh =  T F         900
      Size Dscf/H =       7200      7200
        (SO)DEharr =   0.00000069
   scf:   85     -2804.521069     -2804.521078     -2804.654133   0.000440   -4.223711
           (SO)Ebs =  -8.48712482
 Calculating DEharr... 
 SpOrb/NonColl/nh =  T F         900
      Size Dscf/H =       7200      7200
        (SO)DEharr =   0.00000068
   scf:   86     -2804.521069     -2804.521078     -2804.654133   0.000440   -4.223712
           (SO)Ebs =  -8.48712506
 Calculating DEharr... 
 SpOrb/NonColl/nh =  T F         900
      Size Dscf/H =       7200      7200
        (SO)DEharr =   0.00000069
   scf:   87     -2804.521069     -2804.521078     -2804.654133   0.000440   -4.223713
           (SO)Ebs =  -8.48712492
 Calculating DEharr... 
 SpOrb/NonColl/nh =  T F         900
      Size Dscf/H =       7200      7200
        (SO)DEharr =   0.00000069
   scf:   88     -2804.521069     -2804.521078     -2804.654133   0.000440   -4.223712
           (SO)Ebs =  -8.48712512
 Calculating DEharr... 
 SpOrb/NonColl/nh =  T F         900
      Size Dscf/H =       7200      7200
        (SO)DEharr =   0.00000066
   scf:   89     -2804.521069     -2804.521078     -2804.654133   0.000440   -4.223712
           (SO)Ebs =  -8.48712547
 Calculating DEharr... 
 SpOrb/NonColl/nh =  T F         900
      Size Dscf/H =       7200      7200
        (SO)DEharr =   0.00000065
   scf:   90     -2804.521069     -2804.521078     -2804.654132   0.000440   -4.223712
           (SO)Ebs =  -8.48712624
 Calculating DEharr... 
 SpOrb/NonColl/nh =  T F         900
      Size Dscf/H =       7200      7200
        (SO)DEharr =   0.00000065
   scf:   91     -2804.521069     -2804.521077     -2804.654132   0.000440   -4.223714
           (SO)Ebs =  -8.48712613
 Calculating DEharr... 
 SpOrb/NonColl/nh =  T F         900
      Size Dscf/H =       7200      7200
        (SO)DEharr =   0.00000065
   scf:   92     -2804.521069     -2804.521077     -2804.654132   0.000440   -4.223714
           (SO)Ebs =  -8.48712545
 Calculating DEharr... 
 SpOrb/NonColl/nh =  T F         900
      Size Dscf/H =       7200      7200
        (SO)DEharr =   0.00000067
   scf:   93     -2804.521069     -2804.521078     -2804.654133   0.000440   -4.223713
           (SO)Ebs =  -8.48712587
 Calculating DEharr... 
 SpOrb/NonColl/nh =  T F         900
      Size Dscf/H =       7200      7200
        (SO)DEharr =   0.00000068
   scf:   94     -2804.521068     -2804.521078     -2804.654133   0.000440   -4.223714
           (SO)Ebs =  -8.48712603
 Calculating DEharr... 
 SpOrb/NonColl/nh =  T F         900
      Size Dscf/H =       7200      7200
        (SO)DEharr =   0.00000064
   scf:   95     -2804.521069     -2804.521077     -2804.654132   0.000440   -4.223713
           (SO)Ebs =  -8.48712612
 Calculating DEharr... 
 SpOrb/NonColl/nh =  T F         900
      Size Dscf/H =       7200      7200
        (SO)DEharr =   0.00000065
   scf:   96     -2804.521069     -2804.521077     -2804.654132   0.000440   -4.223713
           (SO)Ebs =  -8.48712652
 Calculating DEharr... 
 SpOrb/NonColl/nh =  T F         900
      Size Dscf/H =       7200      7200
        (SO)DEharr =   0.00000064
   scf:   97     -2804.521069     -2804.521077     -2804.654132   0.000440   -4.223714
           (SO)Ebs =  -8.48712583
 Calculating DEharr... 
 SpOrb/NonColl/nh =  T F         900
      Size Dscf/H =       7200      7200
        (SO)DEharr =   0.00000067
   scf:   98     -2804.521069     -2804.521078     -2804.654133   0.000440   -4.223713
           (SO)Ebs =  -8.48712700
 Calculating DEharr... 
 SpOrb/NonColl/nh =  T F         900
      Size Dscf/H =       7200      7200
        (SO)DEharr =   0.00000064
   scf:   99     -2804.521068     -2804.521077     -2804.654132   0.000440   -4.223715
           (SO)Ebs =  -8.48712689
 Calculating DEharr... 
 SpOrb/NonColl/nh =  T F         900
      Size Dscf/H =       7200      7200
        (SO)DEharr =   0.00000064
   scf:  100     -2804.521068     -2804.521077     -2804.654132   0.000440   -4.223715
Applying kick at iscf:  100
Re-setting Pulay history
           (SO)Ebs =  -8.48719926
 Calculating DEharr... 
 SpOrb/NonColl/nh =  T F         900
      Size Dscf/H =       7200      7200
        (SO)DEharr =   0.00000275
   scf:  101     -2804.521035     -2804.521073     -2804.654167   0.000647   -4.223958
           (SO)Ebs =  -8.48720008
 Calculating DEharr... 
 SpOrb/NonColl/nh =  T F         900
      Size Dscf/H =       7200      7200
        (SO)DEharr =   0.00000277
   scf:  102     -2804.521035     -2804.521073     -2804.654167   0.000649   -4.223959
           (SO)Ebs =  -8.48720681
 Calculating DEharr... 
 SpOrb/NonColl/nh =  T F         900
      Size Dscf/H =       7200      7200
        (SO)DEharr =   0.00000270
   scf:  103     -2804.521035     -2804.521072     -2804.654163   0.000590   -4.223961
           (SO)Ebs =  -8.48721379
 Calculating DEharr... 
 SpOrb/NonColl/nh =  T F         900
      Size Dscf/H =       7200      7200
        (SO)DEharr =   0.00000246
   scf:  104     -2804.521037     -2804.521071     -2804.654159   0.000529   -4.223966
           (SO)Ebs =  -8.48722082
 Calculating DEharr... 
 SpOrb/NonColl/nh =  T F         900
      Size Dscf/H =       7200      7200
        (SO)DEharr =   0.00000224
   scf:  105     -2804.521039     -2804.521070     -2804.654156   0.000489   -4.223974
           (SO)Ebs =  -8.48722741
 Calculating DEharr... 
 SpOrb/NonColl/nh =  T F         900
      Size Dscf/H =       7200      7200
        (SO)DEharr =   0.00000207
   scf:  106     -2804.521040     -2804.521069     -2804.654154   0.000456   -4.223983
           (SO)Ebs =  -8.48724763
 Calculating DEharr... 
 SpOrb/NonColl/nh =  T F         900
      Size Dscf/H =       7200      7200
        (SO)DEharr =   0.00000170
   scf:  107     -2804.521043     -2804.521066     -2804.654149   0.000388   -4.224014
           (SO)Ebs =  -8.48727332
 Calculating DEharr... 
 SpOrb/NonColl/nh =  T F         900
      Size Dscf/H =       7200      7200
        (SO)DEharr =   0.00000136
   scf:  108     -2804.521044     -2804.521063     -2804.654145   0.000399   -4.224054
           (SO)Ebs =  -8.48727320
 Calculating DEharr... 
 SpOrb/NonColl/nh =  T F         900
      Size Dscf/H =       7200      7200
        (SO)DEharr =   0.00000137
   scf:  109     -2804.521044     -2804.521063     -2804.654145   0.000398   -4.224054
           (SO)Ebs =  -8.48726569
 Calculating DEharr... 
 SpOrb/NonColl/nh =  T F         900
      Size Dscf/H =       7200      7200
        (SO)DEharr =   0.00000147
   scf:  110     -2804.521043     -2804.521064     -2804.654146   0.000396   -4.224042
           (SO)Ebs =  -8.48726800
 Calculating DEharr... 
 SpOrb/NonColl/nh =  T F         900
      Size Dscf/H =       7200      7200
        (SO)DEharr =   0.00000146
   scf:  111     -2804.521043     -2804.521063     -2804.654146   0.000396   -4.224046
           (SO)Ebs =  -8.48724014
 Calculating DEharr... 
 SpOrb/NonColl/nh =  T F         900
      Size Dscf/H =       7200      7200
        (SO)DEharr =   0.00000147
   scf:  112     -2804.521046     -2804.521066     -2804.654146   0.000399   -4.223995
           (SO)Ebs =  -8.48723914
 Calculating DEharr... 
 SpOrb/NonColl/nh =  T F         900
      Size Dscf/H =       7200      7200
        (SO)DEharr =   0.00000147
   scf:  113     -2804.521046     -2804.521066     -2804.654146   0.000399   -4.223993
           (SO)Ebs =  -8.48722963
 Calculating DEharr... 
 SpOrb/NonColl/nh =  T F         900
      Size Dscf/H =       7200      7200
        (SO)DEharr =   0.00000137
   scf:  114     -2804.521049     -2804.521068     -2804.654144   0.000403   -4.223973
           (SO)Ebs =  -8.48722930
 Calculating DEharr... 
 SpOrb/NonColl/nh =  T F         900
      Size Dscf/H =       7200      7200
        (SO)DEharr =   0.00000136
   scf:  115     -2804.521049     -2804.521068     -2804.654144   0.000404   -4.223972
           (SO)Ebs =  -8.48723170
 Calculating DEharr... 
 SpOrb/NonColl/nh =  T F         900
      Size Dscf/H =       7200      7200
        (SO)DEharr =   0.00000136
   scf:  116     -2804.521049     -2804.521067     -2804.654144   0.000403   -4.223976
           (SO)Ebs =  -8.48723256
 Calculating DEharr... 
 SpOrb/NonColl/nh =  T F         900
      Size Dscf/H =       7200      7200
        (SO)DEharr =   0.00000137
   scf:  117     -2804.521049     -2804.521067     -2804.654144   0.000403   -4.223977
           (SO)Ebs =  -8.48723356
 Calculating DEharr... 
 SpOrb/NonColl/nh =  T F         900
      Size Dscf/H =       7200      7200
        (SO)DEharr =   0.00000140
   scf:  118     -2804.521048     -2804.521067     -2804.654145   0.000402   -4.223980
           (SO)Ebs =  -8.48723348
 Calculating DEharr... 
 SpOrb/NonColl/nh =  T F         900
      Size Dscf/H =       7200      7200
        (SO)DEharr =   0.00000140
   scf:  119     -2804.521048     -2804.521067     -2804.654145   0.000402   -4.223980
           (SO)Ebs =  -8.48723340
 Calculating DEharr... 
 SpOrb/NonColl/nh =  T F         900
      Size Dscf/H =       7200      7200
        (SO)DEharr =   0.00000140
   scf:  120     -2804.521048     -2804.521067     -2804.654145   0.000402   -4.223979
           (SO)Ebs =  -8.48723448
 Calculating DEharr... 
 SpOrb/NonColl/nh =  T F         900
      Size Dscf/H =       7200      7200
        (SO)DEharr =   0.00000141
   scf:  121     -2804.521048     -2804.521067     -2804.654145   0.000402   -4.223982
           (SO)Ebs =  -8.48723286
 Calculating DEharr... 
 SpOrb/NonColl/nh =  T F         900
      Size Dscf/H =       7200      7200
        (SO)DEharr =   0.00000140
   scf:  122     -2804.521048     -2804.521067     -2804.654145   0.000402   -4.223978
           (SO)Ebs =  -8.48723220
 Calculating DEharr... 
 SpOrb/NonColl/nh =  T F         900
      Size Dscf/H =       7200      7200
        (SO)DEharr =   0.00000141
   scf:  123     -2804.521048     -2804.521067     -2804.654145   0.000402   -4.223977
           (SO)Ebs =  -8.48723199
 Calculating DEharr... 
 SpOrb/NonColl/nh =  T F         900
      Size Dscf/H =       7200      7200
        (SO)DEharr =   0.00000141
   scf:  124     -2804.521048     -2804.521067     -2804.654145   0.000401   -4.223977
           (SO)Ebs =  -8.48723294
 Calculating DEharr... 
 SpOrb/NonColl/nh =  T F         900
      Size Dscf/H =       7200      7200
        (SO)DEharr =   0.00000141
   scf:  125     -2804.521048     -2804.521067     -2804.654145   0.000401   -4.223979
           (SO)Ebs =  -8.48723161
 Calculating DEharr... 
 SpOrb/NonColl/nh =  T F         900
      Size Dscf/H =       7200      7200
        (SO)DEharr =   0.00000141
   scf:  126     -2804.521048     -2804.521067     -2804.654145   0.000402   -4.223976
           (SO)Ebs =  -8.48723164
 Calculating DEharr... 
 SpOrb/NonColl/nh =  T F         900
      Size Dscf/H =       7200      7200
        (SO)DEharr =   0.00000140
   scf:  127     -2804.521048     -2804.521067     -2804.654145   0.000402   -4.223976
           (SO)Ebs =  -8.48723252
 Calculating DEharr... 
 SpOrb/NonColl/nh =  T F         900
      Size Dscf/H =       7200      7200
        (SO)DEharr =   0.00000138
   scf:  128     -2804.521049     -2804.521067     -2804.654144   0.000403   -4.223977
           (SO)Ebs =  -8.48723395
 Calculating DEharr... 
 SpOrb/NonColl/nh =  T F         900
      Size Dscf/H =       7200      7200
        (SO)DEharr =   0.00000139
   scf:  129     -2804.521048     -2804.521067     -2804.654145   0.000403   -4.223980
           (SO)Ebs =  -8.48723383
 Calculating DEharr... 
 SpOrb/NonColl/nh =  T F         900
      Size Dscf/H =       7200      7200
        (SO)DEharr =   0.00000139
   scf:  130     -2804.521048     -2804.521067     -2804.654144   0.000403   -4.223980
Warning: unstable inversion in Pulayx - fallback to linear mixing
           (SO)Ebs =  -8.48723324
 Calculating DEharr... 
 SpOrb/NonColl/nh =  T F         900
      Size Dscf/H =       7200      7200
        (SO)DEharr =   0.00000140
   scf:  131     -2804.521048     -2804.521067     -2804.654145   0.000402   -4.223979
           (SO)Ebs =  -8.48723369
 Calculating DEharr... 
 SpOrb/NonColl/nh =  T F         900
      Size Dscf/H =       7200      7200
        (SO)DEharr =   0.00000139
   scf:  132     -2804.521048     -2804.521067     -2804.654144   0.000403   -4.223980
Warning: unstable inversion in Pulayx - fallback to linear mixing
           (SO)Ebs =  -8.48723454
 Calculating DEharr... 
 SpOrb/NonColl/nh =  T F         900
      Size Dscf/H =       7200      7200
        (SO)DEharr =   0.00000140
   scf:  133     -2804.521048     -2804.521067     -2804.654145   0.000402   -4.223981
           (SO)Ebs =  -8.48723361
 Calculating DEharr... 
 SpOrb/NonColl/nh =  T F         900
      Size Dscf/H =       7200      7200
        (SO)DEharr =   0.00000139
   scf:  134     -2804.521049     -2804.521067     -2804.654144   0.000403   -4.223979
           (SO)Ebs =  -8.48723244
 Calculating DEharr... 
 SpOrb/NonColl/nh =  T F         900
      Size Dscf/H =       7200      7200
        (SO)DEharr =   0.00000137
   scf:  135     -2804.521049     -2804.521067     -2804.654144   0.000403   -4.223977
           (SO)Ebs =  -8.48723177
 Calculating DEharr... 
 SpOrb/NonColl/nh =  T F         900
      Size Dscf/H =       7200      7200
        (SO)DEharr =   0.00000137
   scf:  136     -2804.521049     -2804.521068     -2804.654144   0.000403   -4.223975
Warning: unstable inversion in Pulayx - fallback to linear mixing
           (SO)Ebs =  -8.48723432
 Calculating DEharr... 
 SpOrb/NonColl/nh =  T F         900
      Size Dscf/H =       7200      7200
        (SO)DEharr =   0.00000140
   scf:  137     -2804.521048     -2804.521067     -2804.654145   0.000402   -4.223981
           (SO)Ebs =  -8.48723085
 Calculating DEharr... 
 SpOrb/NonColl/nh =  T F         900
      Size Dscf/H =       7200      7200
        (SO)DEharr =   0.00000137
   scf:  138     -2804.521049     -2804.521068     -2804.654144   0.000403   -4.223973
           (SO)Ebs =  -8.48723096
 Calculating DEharr... 
 SpOrb/NonColl/nh =  T F         900
      Size Dscf/H =       7200      7200
        (SO)DEharr =   0.00000137
   scf:  139     -2804.521049     -2804.521068     -2804.654144   0.000403   -4.223973
           (SO)Ebs =  -8.48723489
 Calculating DEharr... 
 SpOrb/NonColl/nh =  T F         900
      Size Dscf/H =       7200      7200
        (SO)DEharr =   0.00000140
   scf:  140     -2804.521048     -2804.521067     -2804.654145   0.000402   -4.223981
           (SO)Ebs =  -8.48723238
 Calculating DEharr... 
 SpOrb/NonColl/nh =  T F         900
      Size Dscf/H =       7200      7200
        (SO)DEharr =   0.00000139
   scf:  141     -2804.521049     -2804.521068     -2804.654144   0.000403   -4.223976
           (SO)Ebs =  -8.48723268
 Calculating DEharr... 
 SpOrb/NonColl/nh =  T F         900
      Size Dscf/H =       7200      7200
        (SO)DEharr =   0.00000139
   scf:  142     -2804.521049     -2804.521068     -2804.654145   0.000403   -4.223977
           (SO)Ebs =  -8.48723438
 Calculating DEharr... 
 SpOrb/NonColl/nh =  T F         900
      Size Dscf/H =       7200      7200
        (SO)DEharr =   0.00000139
   scf:  143     -2804.521049     -2804.521068     -2804.654145   0.000403   -4.223980
           (SO)Ebs =  -8.48723288
 Calculating DEharr... 
 SpOrb/NonColl/nh =  T F         900
      Size Dscf/H =       7200      7200
        (SO)DEharr =   0.00000139
   scf:  144     -2804.521049     -2804.521068     -2804.654144   0.000403   -4.223977
           (SO)Ebs =  -8.48723412
 Calculating DEharr... 
 SpOrb/NonColl/nh =  T F         900
      Size Dscf/H =       7200      7200
        (SO)DEharr =   0.00000140
   scf:  145     -2804.521049     -2804.521068     -2804.654145   0.000403   -4.223979
           (SO)Ebs =  -8.48723303
 Calculating DEharr... 
 SpOrb/NonColl/nh =  T F         900
      Size Dscf/H =       7200      7200
        (SO)DEharr =   0.00000138
   scf:  146     -2804.521049     -2804.521068     -2804.654144   0.000404   -4.223977
           (SO)Ebs =  -8.48723310
 Calculating DEharr... 
 SpOrb/NonColl/nh =  T F         900
      Size Dscf/H =       7200      7200
        (SO)DEharr =   0.00000138
   scf:  147     -2804.521049     -2804.521068     -2804.654144   0.000404   -4.223977
           (SO)Ebs =  -8.48723340
 Calculating DEharr... 
 SpOrb/NonColl/nh =  T F         900
      Size Dscf/H =       7200      7200
        (SO)DEharr =   0.00000138
   scf:  148     -2804.521049     -2804.521068     -2804.654144   0.000404   -4.223978
Warning: unstable inversion in Pulayx - fallback to linear mixing
           (SO)Ebs =  -8.48723373
 Calculating DEharr... 
 SpOrb/NonColl/nh =  T F         900
      Size Dscf/H =       7200      7200
        (SO)DEharr =   0.00000139
   scf:  149     -2804.521049     -2804.521068     -2804.654145   0.000403   -4.223978
           (SO)Ebs =  -8.48723337
 Calculating DEharr... 
 SpOrb/NonColl/nh =  T F         900
      Size Dscf/H =       7200      7200
        (SO)DEharr =   0.00000138
   scf:  150     -2804.521049     -2804.521068     -2804.654144   0.000404   -4.223977
Applying kick at iscf:  150
Re-setting Pulay history
           (SO)Ebs =  -8.48734989
 Calculating DEharr... 
 SpOrb/NonColl/nh =  T F         900
      Size Dscf/H =       7200      7200
        (SO)DEharr =   0.00000290
   scf:  151     -2804.521019     -2804.521058     -2804.654171   0.000587   -4.224231
           (SO)Ebs =  -8.48735053
 Calculating DEharr... 
 SpOrb/NonColl/nh =  T F         900
      Size Dscf/H =       7200      7200
        (SO)DEharr =   0.00000290
   scf:  152     -2804.521019     -2804.521058     -2804.654171   0.000584   -4.224232
           (SO)Ebs =  -8.48736183
 Calculating DEharr... 
 SpOrb/NonColl/nh =  T F         900
      Size Dscf/H =       7200      7200
        (SO)DEharr =   0.00000276
   scf:  153     -2804.521018     -2804.521056     -2804.654165   0.000476   -4.224238
           (SO)Ebs =  -8.48736631
 Calculating DEharr... 
 SpOrb/NonColl/nh =  T F         900
      Size Dscf/H =       7200      7200
        (SO)DEharr =   0.00000254
   scf:  154     -2804.521020     -2804.521055     -2804.654162   0.000435   -4.224244
           (SO)Ebs =  -8.48736697
 Calculating DEharr... 
 SpOrb/NonColl/nh =  T F         900
      Size Dscf/H =       7200      7200
        (SO)DEharr =   0.00000251
   scf:  155     -2804.521021     -2804.521055     -2804.654162   0.000430   -4.224245
           (SO)Ebs =  -8.48737467
 Calculating DEharr... 
 SpOrb/NonColl/nh =  T F         900
      Size Dscf/H =       7200      7200
        (SO)DEharr =   0.00000227
   scf:  156     -2804.521022     -2804.521053     -2804.654158   0.000375   -4.224257
           (SO)Ebs =  -8.48738359
 Calculating DEharr... 
 SpOrb/NonColl/nh =  T F         900
      Size Dscf/H =       7200      7200
        (SO)DEharr =   0.00000209
   scf:  157     -2804.521023     -2804.521051     -2804.654156   0.000362   -4.224273
           (SO)Ebs =  -8.48738390
 Calculating DEharr... 
 SpOrb/NonColl/nh =  T F         900
      Size Dscf/H =       7200      7200
        (SO)DEharr =   0.00000210
   scf:  158     -2804.521023     -2804.521051     -2804.654156   0.000362   -4.224273
           (SO)Ebs =  -8.48738375
 Calculating DEharr... 
 SpOrb/NonColl/nh =  T F         900
      Size Dscf/H =       7200      7200
        (SO)DEharr =   0.00000209
   scf:  159     -2804.521023     -2804.521051     -2804.654156   0.000362   -4.224273
           (SO)Ebs =  -8.48738330
 Calculating DEharr... 
 SpOrb/NonColl/nh =  T F         900
      Size Dscf/H =       7200      7200
        (SO)DEharr =   0.00000210
   scf:  160     -2804.521023     -2804.521051     -2804.654156   0.000362   -4.224272
           (SO)Ebs =  -8.48738312
 Calculating DEharr... 
 SpOrb/NonColl/nh =  T F         900
      Size Dscf/H =       7200      7200
        (SO)DEharr =   0.00000210
   scf:  161     -2804.521023     -2804.521051     -2804.654156   0.000362   -4.224272
           (SO)Ebs =  -8.48737930
 Calculating DEharr... 
 SpOrb/NonColl/nh =  T F         900
      Size Dscf/H =       7200      7200
        (SO)DEharr =   0.00000212
   scf:  162     -2804.521023     -2804.521052     -2804.654156   0.000362   -4.224264
           (SO)Ebs =  -8.48737826
 Calculating DEharr... 
 SpOrb/NonColl/nh =  T F         900
      Size Dscf/H =       7200      7200
        (SO)DEharr =   0.00000212
   scf:  163     -2804.521023     -2804.521052     -2804.654156   0.000363   -4.224262
           (SO)Ebs =  -8.48738034
 Calculating DEharr... 
 SpOrb/NonColl/nh =  T F         900
      Size Dscf/H =       7200      7200
        (SO)DEharr =   0.00000209
   scf:  164     -2804.521023     -2804.521052     -2804.654156   0.000363   -4.224266
           (SO)Ebs =  -8.48738069
 Calculating DEharr... 
 SpOrb/NonColl/nh =  T F         900
      Size Dscf/H =       7200      7200
        (SO)DEharr =   0.00000209
   scf:  165     -2804.521023     -2804.521052     -2804.654156   0.000363   -4.224267
           (SO)Ebs =  -8.48738183
 Calculating DEharr... 
 SpOrb/NonColl/nh =  T F         900
      Size Dscf/H =       7200      7200
        (SO)DEharr =   0.00000211
   scf:  166     -2804.521023     -2804.521052     -2804.654156   0.000362   -4.224270
           (SO)Ebs =  -8.48738207
 Calculating DEharr... 
 SpOrb/NonColl/nh =  T F         900
      Size Dscf/H =       7200      7200
        (SO)DEharr =   0.00000209
   scf:  167     -2804.521023     -2804.521052     -2804.654156   0.000363   -4.224270
           (SO)Ebs =  -8.48738111
 Calculating DEharr... 
 SpOrb/NonColl/nh =  T F         900
      Size Dscf/H =       7200      7200
        (SO)DEharr =   0.00000211
   scf:  168     -2804.521023     -2804.521052     -2804.654156   0.000363   -4.224268
           (SO)Ebs =  -8.48738179
 Calculating DEharr... 
 SpOrb/NonColl/nh =  T F         900
      Size Dscf/H =       7200      7200
        (SO)DEharr =   0.00000211
   scf:  169     -2804.521023     -2804.521052     -2804.654156   0.000363   -4.224269
           (SO)Ebs =  -8.48737966
 Calculating DEharr... 
 SpOrb/NonColl/nh =  T F         900
      Size Dscf/H =       7200      7200
        (SO)DEharr =   0.00000207
   scf:  170     -2804.521024     -2804.521052     -2804.654156   0.000364   -4.224264
           (SO)Ebs =  -8.48737961
 Calculating DEharr... 
 SpOrb/NonColl/nh =  T F         900
      Size Dscf/H =       7200      7200
        (SO)DEharr =   0.00000205
   scf:  171     -2804.521024     -2804.521052     -2804.654155   0.000365   -4.224264
           (SO)Ebs =  -8.48738147
 Calculating DEharr... 
 SpOrb/NonColl/nh =  T F         900
      Size Dscf/H =       7200      7200
        (SO)DEharr =   0.00000200
   scf:  172     -2804.521024     -2804.521051     -2804.654155   0.000365   -4.224267
           (SO)Ebs =  -8.48738217
 Calculating DEharr... 
 SpOrb/NonColl/nh =  T F         900
      Size Dscf/H =       7200      7200
        (SO)DEharr =   0.00000200
   scf:  173     -2804.521024     -2804.521051     -2804.654155   0.000365   -4.224268
           (SO)Ebs =  -8.48738283
 Calculating DEharr... 
 SpOrb/NonColl/nh =  T F         900
      Size Dscf/H =       7200      7200
        (SO)DEharr =   0.00000201
   scf:  174     -2804.521024     -2804.521051     -2804.654155   0.000365   -4.224270
           (SO)Ebs =  -8.48738250
 Calculating DEharr... 
 SpOrb/NonColl/nh =  T F         900
      Size Dscf/H =       7200      7200
        (SO)DEharr =   0.00000198
   scf:  175     -2804.521024     -2804.521051     -2804.654154   0.000366   -4.224269
           (SO)Ebs =  -8.48738274
 Calculating DEharr... 
 SpOrb/NonColl/nh =  T F         900
      Size Dscf/H =       7200      7200
        (SO)DEharr =   0.00000197
   scf:  176     -2804.521024     -2804.521051     -2804.654154   0.000366   -4.224269
           (SO)Ebs =  -8.48738457
 Calculating DEharr... 
 SpOrb/NonColl/nh =  T F         900
      Size Dscf/H =       7200      7200
        (SO)DEharr =   0.00000196
   scf:  177     -2804.521024     -2804.521051     -2804.654154   0.000366   -4.224273
           (SO)Ebs =  -8.48738288
 Calculating DEharr... 
 SpOrb/NonColl/nh =  T F         900
      Size Dscf/H =       7200      7200
        (SO)DEharr =   0.00000195
   scf:  178     -2804.521024     -2804.521051     -2804.654154   0.000367   -4.224269
           (SO)Ebs =  -8.48738256
 Calculating DEharr... 
 SpOrb/NonColl/nh =  T F         900
      Size Dscf/H =       7200      7200
        (SO)DEharr =   0.00000194
   scf:  179     -2804.521025     -2804.521051     -2804.654154   0.000367   -4.224268
           (SO)Ebs =  -8.48738366
 Calculating DEharr... 
 SpOrb/NonColl/nh =  T F         900
      Size Dscf/H =       7200      7200
        (SO)DEharr =   0.00000188
   scf:  180     -2804.521025     -2804.521051     -2804.654153   0.000368   -4.224270
           (SO)Ebs =  -8.48738482
 Calculating DEharr... 
 SpOrb/NonColl/nh =  T F         900
      Size Dscf/H =       7200      7200
        (SO)DEharr =   0.00000187
   scf:  181     -2804.521025     -2804.521050     -2804.654153   0.000368   -4.224272
           (SO)Ebs =  -8.48738491
 Calculating DEharr... 
 SpOrb/NonColl/nh =  T F         900
      Size Dscf/H =       7200      7200
        (SO)DEharr =   0.00000187
   scf:  182     -2804.521025     -2804.521050     -2804.654153   0.000368   -4.224272
Warning: unstable inversion in Pulayx - fallback to linear mixing
           (SO)Ebs =  -8.48738545
 Calculating DEharr... 
 SpOrb/NonColl/nh =  T F         900
      Size Dscf/H =       7200      7200
        (SO)DEharr =   0.00000188
   scf:  183     -2804.521025     -2804.521050     -2804.654153   0.000368   -4.224273
Warning: unstable inversion in Pulayx - fallback to linear mixing
           (SO)Ebs =  -8.48738599
 Calculating DEharr... 
 SpOrb/NonColl/nh =  T F         900
      Size Dscf/H =       7200      7200
        (SO)DEharr =   0.00000188
   scf:  184     -2804.521025     -2804.521050     -2804.654153   0.000368   -4.224275
           (SO)Ebs =  -8.48728181
 Calculating DEharr... 
 SpOrb/NonColl/nh =  T F         900
      Size Dscf/H =       7200      7200
        (SO)DEharr =   0.00000160
   scf:  185     -2804.521044     -2804.521066     -2804.654148   0.000396   -4.224053
           (SO)Ebs =  -8.48727319
 Calculating DEharr... 
 SpOrb/NonColl/nh =  T F         900
      Size Dscf/H =       7200      7200
        (SO)DEharr =   0.00000158
   scf:  186     -2804.521046     -2804.521067     -2804.654148   0.000399   -4.224035
           (SO)Ebs =  -8.48726102
 Calculating DEharr... 
 SpOrb/NonColl/nh =  T F         900
      Size Dscf/H =       7200      7200
        (SO)DEharr =   0.00000159
   scf:  187     -2804.521047     -2804.521069     -2804.654148   0.000401   -4.224011
           (SO)Ebs =  -8.48726201
 Calculating DEharr... 
 SpOrb/NonColl/nh =  T F         900
      Size Dscf/H =       7200      7200
        (SO)DEharr =   0.00000161
   scf:  188     -2804.521047     -2804.521069     -2804.654148   0.000400   -4.224013
           (SO)Ebs =  -8.48726958
 Calculating DEharr... 
 SpOrb/NonColl/nh =  T F         900
      Size Dscf/H =       7200      7200
        (SO)DEharr =   0.00000166
   scf:  189     -2804.521045     -2804.521068     -2804.654148   0.000397   -4.224030
           (SO)Ebs =  -8.48727398
 Calculating DEharr... 
 SpOrb/NonColl/nh =  T F         900
      Size Dscf/H =       7200      7200
        (SO)DEharr =   0.00000167
   scf:  190     -2804.521044     -2804.521067     -2804.654149   0.000395   -4.224040
           (SO)Ebs =  -8.48727674
 Calculating DEharr... 
 SpOrb/NonColl/nh =  T F         900
      Size Dscf/H =       7200      7200
        (SO)DEharr =   0.00000168
   scf:  191     -2804.521044     -2804.521067     -2804.654149   0.000394   -4.224045
           (SO)Ebs =  -8.48727496
 Calculating DEharr... 
 SpOrb/NonColl/nh =  T F         900
      Size Dscf/H =       7200      7200
        (SO)DEharr =   0.00000168
   scf:  192     -2804.521044     -2804.521067     -2804.654149   0.000395   -4.224042
           (SO)Ebs =  -8.48726688
 Calculating DEharr... 
 SpOrb/NonColl/nh =  T F         900
      Size Dscf/H =       7200      7200
        (SO)DEharr =   0.00000167
   scf:  193     -2804.521046     -2804.521068     -2804.654149   0.000397   -4.224025
           (SO)Ebs =  -8.48725848
 Calculating DEharr... 
 SpOrb/NonColl/nh =  T F         900
      Size Dscf/H =       7200      7200
        (SO)DEharr =   0.00000167
   scf:  194     -2804.521047     -2804.521070     -2804.654148   0.000398   -4.224007
           (SO)Ebs =  -8.48725519
 Calculating DEharr... 
 SpOrb/NonColl/nh =  T F         900
      Size Dscf/H =       7200      7200
        (SO)DEharr =   0.00000168
   scf:  195     -2804.521047     -2804.521070     -2804.654149   0.000398   -4.224001
           (SO)Ebs =  -8.48725762
 Calculating DEharr... 
 SpOrb/NonColl/nh =  T F         900
      Size Dscf/H =       7200      7200
        (SO)DEharr =   0.00000171
   scf:  196     -2804.521046     -2804.521070     -2804.654149   0.000397   -4.224007
           (SO)Ebs =  -8.48726150
 Calculating DEharr... 
 SpOrb/NonColl/nh =  T F         900
      Size Dscf/H =       7200      7200
        (SO)DEharr =   0.00000172
   scf:  197     -2804.521046     -2804.521069     -2804.654149   0.000395   -4.224015
           (SO)Ebs =  -8.48726590
 Calculating DEharr... 
 SpOrb/NonColl/nh =  T F         900
      Size Dscf/H =       7200      7200
        (SO)DEharr =   0.00000173
   scf:  198     -2804.521045     -2804.521068     -2804.654149   0.000394   -4.224025
           (SO)Ebs =  -8.48726690
 Calculating DEharr... 
 SpOrb/NonColl/nh =  T F         900
      Size Dscf/H =       7200      7200
        (SO)DEharr =   0.00000173
   scf:  199     -2804.521045     -2804.521068     -2804.654149   0.000394   -4.224027
           (SO)Ebs =  -8.48726408
 Calculating DEharr... 
 SpOrb/NonColl/nh =  T F         900
      Size Dscf/H =       7200      7200
        (SO)DEharr =   0.00000173
   scf:  200     -2804.521045     -2804.521069     -2804.654149   0.000395   -4.224021
Applying kick at iscf:  200
Re-setting Pulay history
           (SO)Ebs =  -8.48734854
 Calculating DEharr... 
 SpOrb/NonColl/nh =  T F         900
      Size Dscf/H =       7200      7200
        (SO)DEharr =   0.00000294
   scf:  201     -2804.521016     -2804.521057     -2804.654175   0.000659   -4.224255
           (SO)Ebs =  -8.48734934
 Calculating DEharr... 
 SpOrb/NonColl/nh =  T F         900
      Size Dscf/H =       7200      7200
        (SO)DEharr =   0.00000295
   scf:  202     -2804.521016     -2804.521056     -2804.654174   0.000640   -4.224256
           (SO)Ebs =  -8.48736116
 Calculating DEharr... 
 SpOrb/NonColl/nh =  T F         900
      Size Dscf/H =       7200      7200
        (SO)DEharr =   0.00000274
   scf:  203     -2804.521017     -2804.521054     -2804.654165   0.000467   -4.224258
           (SO)Ebs =  -8.48736503
 Calculating DEharr... 
 SpOrb/NonColl/nh =  T F         900
      Size Dscf/H =       7200      7200
        (SO)DEharr =   0.00000261
   scf:  204     -2804.521018     -2804.521054     -2804.654163   0.000457   -4.224261
           (SO)Ebs =  -8.48736510
 Calculating DEharr... 
 SpOrb/NonColl/nh =  T F         900
      Size Dscf/H =       7200      7200
        (SO)DEharr =   0.00000261
   scf:  205     -2804.521018     -2804.521054     -2804.654163   0.000457   -4.224261
           (SO)Ebs =  -8.48737838
 Calculating DEharr... 
 SpOrb/NonColl/nh =  T F         900
      Size Dscf/H =       7200      7200
        (SO)DEharr =   0.00000240
   scf:  206     -2804.521019     -2804.521052     -2804.654160   0.000393   -4.224282
           (SO)Ebs =  -8.48738117
 Calculating DEharr... 
 SpOrb/NonColl/nh =  T F         900
      Size Dscf/H =       7200      7200
        (SO)DEharr =   0.00000235
   scf:  207     -2804.521019     -2804.521051     -2804.654159   0.000386   -4.224286
           (SO)Ebs =  -8.48738350
 Calculating DEharr... 
 SpOrb/NonColl/nh =  T F         900
      Size Dscf/H =       7200      7200
        (SO)DEharr =   0.00000231
   scf:  208     -2804.521019     -2804.521051     -2804.654159   0.000379   -4.224290
           (SO)Ebs =  -8.48741249
 Calculating DEharr... 
 SpOrb/NonColl/nh =  T F         900
      Size Dscf/H =       7200      7200
        (SO)DEharr =   0.00000199
   scf:  209     -2804.521019     -2804.521046     -2804.654155   0.000352   -4.224338
           (SO)Ebs =  -8.48741733
 Calculating DEharr... 
 SpOrb/NonColl/nh =  T F         900
      Size Dscf/H =       7200      7200
        (SO)DEharr =   0.00000195
   scf:  210     -2804.521019     -2804.521045     -2804.654154   0.000352   -4.224347
           (SO)Ebs =  -8.48742070
 Calculating DEharr... 
 SpOrb/NonColl/nh =  T F         900
      Size Dscf/H =       7200      7200
        (SO)DEharr =   0.00000194
   scf:  211     -2804.521019     -2804.521045     -2804.654154   0.000352   -4.224353
           (SO)Ebs =  -8.48742059
 Calculating DEharr... 
 SpOrb/NonColl/nh =  T F         900
      Size Dscf/H =       7200      7200
        (SO)DEharr =   0.00000195
   scf:  212     -2804.521018     -2804.521045     -2804.654154   0.000352   -4.224353
           (SO)Ebs =  -8.48741928
 Calculating DEharr... 
 SpOrb/NonColl/nh =  T F         900
      Size Dscf/H =       7200      7200
        (SO)DEharr =   0.00000197
   scf:  213     -2804.521018     -2804.521045     -2804.654155   0.000351   -4.224351
           (SO)Ebs =  -8.48741896
 Calculating DEharr... 
 SpOrb/NonColl/nh =  T F         900
      Size Dscf/H =       7200      7200
        (SO)DEharr =   0.00000197
   scf:  214     -2804.521018     -2804.521045     -2804.654155   0.000351   -4.224350
           (SO)Ebs =  -8.48741976
 Calculating DEharr... 
 SpOrb/NonColl/nh =  T F         900
      Size Dscf/H =       7200      7200
        (SO)DEharr =   0.00000196
   scf:  215     -2804.521018     -2804.521045     -2804.654155   0.000351   -4.224352
           (SO)Ebs =  -8.48742483
 Calculating DEharr... 
 SpOrb/NonColl/nh =  T F         900
      Size Dscf/H =       7200      7200
        (SO)DEharr =   0.00000191
   scf:  216     -2804.521018     -2804.521044     -2804.654154   0.000351   -4.224361
           (SO)Ebs =  -8.48742950
 Calculating DEharr... 
 SpOrb/NonColl/nh =  T F         900
      Size Dscf/H =       7200      7200
        (SO)DEharr =   0.00000188
   scf:  217     -2804.521018     -2804.521044     -2804.654153   0.000352   -4.224369
           (SO)Ebs =  -8.48743045
 Calculating DEharr... 
 SpOrb/NonColl/nh =  T F         900
      Size Dscf/H =       7200      7200
        (SO)DEharr =   0.00000187
   scf:  218     -2804.521018     -2804.521043     -2804.654153   0.000351   -4.224371
           (SO)Ebs =  -8.48743055
 Calculating DEharr... 
 SpOrb/NonColl/nh =  T F         900
      Size Dscf/H =       7200      7200
        (SO)DEharr =   0.00000187
   scf:  219     -2804.521018     -2804.521043     -2804.654153   0.000352   -4.224371
           (SO)Ebs =  -8.48743028
 Calculating DEharr... 
 SpOrb/NonColl/nh =  T F         900
      Size Dscf/H =       7200      7200
        (SO)DEharr =   0.00000187
   scf:  220     -2804.521018     -2804.521043     -2804.654153   0.000352   -4.224370
           (SO)Ebs =  -8.48743141
 Calculating DEharr... 
 SpOrb/NonColl/nh =  T F         900
      Size Dscf/H =       7200      7200
        (SO)DEharr =   0.00000186
   scf:  221     -2804.521018     -2804.521043     -2804.654153   0.000352   -4.224372
           (SO)Ebs =  -8.48742943
 Calculating DEharr... 
 SpOrb/NonColl/nh =  T F         900
      Size Dscf/H =       7200      7200
        (SO)DEharr =   0.00000188
   scf:  222     -2804.521018     -2804.521044     -2804.654154   0.000351   -4.224369
           (SO)Ebs =  -8.48742972
 Calculating DEharr... 
 SpOrb/NonColl/nh =  T F         900
      Size Dscf/H =       7200      7200
        (SO)DEharr =   0.00000187
   scf:  223     -2804.521018     -2804.521044     -2804.654153   0.000352   -4.224369
           (SO)Ebs =  -8.48742902
 Calculating DEharr... 
 SpOrb/NonColl/nh =  T F         900
      Size Dscf/H =       7200      7200
        (SO)DEharr =   0.00000187
   scf:  224     -2804.521018     -2804.521044     -2804.654153   0.000352   -4.224368
           (SO)Ebs =  -8.48742921
 Calculating DEharr... 
 SpOrb/NonColl/nh =  T F         900
      Size Dscf/H =       7200      7200
        (SO)DEharr =   0.00000187
   scf:  225     -2804.521018     -2804.521044     -2804.654153   0.000352   -4.224368
           (SO)Ebs =  -8.48742814
 Calculating DEharr... 
 SpOrb/NonColl/nh =  T F         900
      Size Dscf/H =       7200      7200
        (SO)DEharr =   0.00000188
   scf:  226     -2804.521018     -2804.521044     -2804.654154   0.000352   -4.224366
           (SO)Ebs =  -8.48743080
 Calculating DEharr... 
 SpOrb/NonColl/nh =  T F         900
      Size Dscf/H =       7200      7200
        (SO)DEharr =   0.00000186
   scf:  227     -2804.521018     -2804.521043     -2804.654153   0.000352   -4.224371
           (SO)Ebs =  -8.48742889
 Calculating DEharr... 
 SpOrb/NonColl/nh =  T F         900
      Size Dscf/H =       7200      7200
        (SO)DEharr =   0.00000187
   scf:  228     -2804.521018     -2804.521044     -2804.654153   0.000352   -4.224367
           (SO)Ebs =  -8.48742919
 Calculating DEharr... 
 SpOrb/NonColl/nh =  T F         900
      Size Dscf/H =       7200      7200
        (SO)DEharr =   0.00000187
   scf:  229     -2804.521018     -2804.521044     -2804.654153   0.000352   -4.224368
           (SO)Ebs =  -8.48742804
 Calculating DEharr... 
 SpOrb/NonColl/nh =  T F         900
      Size Dscf/H =       7200      7200
        (SO)DEharr =   0.00000188
   scf:  230     -2804.521018     -2804.521044     -2804.654153   0.000352   -4.224366
           (SO)Ebs =  -8.48743019
 Calculating DEharr... 
 SpOrb/NonColl/nh =  T F         900
      Size Dscf/H =       7200      7200
        (SO)DEharr =   0.00000187
   scf:  231     -2804.521018     -2804.521043     -2804.654153   0.000352   -4.224370
           (SO)Ebs =  -8.48742767
 Calculating DEharr... 
 SpOrb/NonColl/nh =  T F         900
      Size Dscf/H =       7200      7200
        (SO)DEharr =   0.00000189
   scf:  232     -2804.521018     -2804.521044     -2804.654154   0.000352   -4.224365
           (SO)Ebs =  -8.48742815
 Calculating DEharr... 
 SpOrb/NonColl/nh =  T F         900
      Size Dscf/H =       7200      7200
        (SO)DEharr =   0.00000187
   scf:  233     -2804.521018     -2804.521044     -2804.654153   0.000352   -4.224366
           (SO)Ebs =  -8.48742799
 Calculating DEharr... 
 SpOrb/NonColl/nh =  T F         900
      Size Dscf/H =       7200      7200
        (SO)DEharr =   0.00000187
   scf:  234     -2804.521018     -2804.521044     -2804.654153   0.000352   -4.224366
           (SO)Ebs =  -8.48742828
 Calculating DEharr... 
 SpOrb/NonColl/nh =  T F         900
      Size Dscf/H =       7200      7200
        (SO)DEharr =   0.00000186
   scf:  235     -2804.521018     -2804.521044     -2804.654153   0.000353   -4.224366
           (SO)Ebs =  -8.48742839
 Calculating DEharr... 
 SpOrb/NonColl/nh =  T F         900
      Size Dscf/H =       7200      7200
        (SO)DEharr =   0.00000186
   scf:  236     -2804.521018     -2804.521044     -2804.654153   0.000353   -4.224366
           (SO)Ebs =  -8.48742883
 Calculating DEharr... 
 SpOrb/NonColl/nh =  T F         900
      Size Dscf/H =       7200      7200
        (SO)DEharr =   0.00000185
   scf:  237     -2804.521018     -2804.521044     -2804.654153   0.000353   -4.224367
           (SO)Ebs =  -8.48743078
 Calculating DEharr... 
 SpOrb/NonColl/nh =  T F         900
      Size Dscf/H =       7200      7200
        (SO)DEharr =   0.00000183
   scf:  238     -2804.521018     -2804.521043     -2804.654153   0.000353   -4.224370
           (SO)Ebs =  -8.48743237
 Calculating DEharr... 
 SpOrb/NonColl/nh =  T F         900
      Size Dscf/H =       7200      7200
        (SO)DEharr =   0.00000182
   scf:  239     -2804.521018     -2804.521043     -2804.654153   0.000353   -4.224373
           (SO)Ebs =  -8.48743187
 Calculating DEharr... 
 SpOrb/NonColl/nh =  T F         900
      Size Dscf/H =       7200      7200
        (SO)DEharr =   0.00000182
   scf:  240     -2804.521018     -2804.521043     -2804.654153   0.000353   -4.224372
           (SO)Ebs =  -8.48743083
 Calculating DEharr... 
 SpOrb/NonColl/nh =  T F         900
      Size Dscf/H =       7200      7200
        (SO)DEharr =   0.00000183
   scf:  241     -2804.521018     -2804.521043     -2804.654153   0.000353   -4.224370
           (SO)Ebs =  -8.48743209
 Calculating DEharr... 
 SpOrb/NonColl/nh =  T F         900
      Size Dscf/H =       7200      7200
        (SO)DEharr =   0.00000182
   scf:  242     -2804.521018     -2804.521043     -2804.654153   0.000354   -4.224372
           (SO)Ebs =  -8.48743350
 Calculating DEharr... 
 SpOrb/NonColl/nh =  T F         900
      Size Dscf/H =       7200      7200
        (SO)DEharr =   0.00000181
   scf:  243     -2804.521018     -2804.521043     -2804.654153   0.000353   -4.224375
           (SO)Ebs =  -8.48743091
 Calculating DEharr... 
 SpOrb/NonColl/nh =  T F         900
      Size Dscf/H =       7200      7200
        (SO)DEharr =   0.00000182
   scf:  244     -2804.521019     -2804.521043     -2804.654153   0.000354   -4.224370
           (SO)Ebs =  -8.48743011
 Calculating DEharr... 
 SpOrb/NonColl/nh =  T F         900
      Size Dscf/H =       7200      7200
        (SO)DEharr =   0.00000182
   scf:  245     -2804.521019     -2804.521043     -2804.654153   0.000354   -4.224369
           (SO)Ebs =  -8.48743040
 Calculating DEharr... 
 SpOrb/NonColl/nh =  T F         900
      Size Dscf/H =       7200      7200
        (SO)DEharr =   0.00000182
   scf:  246     -2804.521019     -2804.521043     -2804.654153   0.000354   -4.224369
           (SO)Ebs =  -8.48743161
 Calculating DEharr... 
 SpOrb/NonColl/nh =  T F         900
      Size Dscf/H =       7200      7200
        (SO)DEharr =   0.00000181
   scf:  247     -2804.521018     -2804.521043     -2804.654153   0.000354   -4.224371
           (SO)Ebs =  -8.48743079
 Calculating DEharr... 
 SpOrb/NonColl/nh =  T F         900
      Size Dscf/H =       7200      7200
        (SO)DEharr =   0.00000182
[...]
 SpOrb/NonColl/nh =  T F         900
      Size Dscf/H =       7200      7200
        (SO)DEharr =   0.00000129
   scf:  964     -2804.520935     -2804.520952     -2804.654150   0.000217   -4.225462
           (SO)Ebs =  -8.48798513
 Calculating DEharr... 
 SpOrb/NonColl/nh =  T F         900
      Size Dscf/H =       7200      7200
        (SO)DEharr =   0.00000131
   scf:  965     -2804.520935     -2804.520953     -2804.654150   0.000221   -4.225456
           (SO)Ebs =  -8.48798374
 Calculating DEharr... 
 SpOrb/NonColl/nh =  T F         900
      Size Dscf/H =       7200      7200
        (SO)DEharr =   0.00000131
   scf:  966     -2804.520935     -2804.520953     -2804.654150   0.000221   -4.225453
           (SO)Ebs =  -8.48798231
 Calculating DEharr... 
 SpOrb/NonColl/nh =  T F         900
      Size Dscf/H =       7200      7200
        (SO)DEharr =   0.00000127
   scf:  967     -2804.520936     -2804.520953     -2804.654150   0.000210   -4.225449
           (SO)Ebs =  -8.48798251
 Calculating DEharr... 
 SpOrb/NonColl/nh =  T F         900
      Size Dscf/H =       7200      7200
        (SO)DEharr =   0.00000127
   scf:  968     -2804.520936     -2804.520953     -2804.654150   0.000210   -4.225450
           (SO)Ebs =  -8.48798893
 Calculating DEharr... 
 SpOrb/NonColl/nh =  T F         900
      Size Dscf/H =       7200      7200
        (SO)DEharr =   0.00000125
   scf:  969     -2804.520935     -2804.520952     -2804.654149   0.000200   -4.225463
           (SO)Ebs =  -8.48798861
 Calculating DEharr... 
 SpOrb/NonColl/nh =  T F         900
      Size Dscf/H =       7200      7200
        (SO)DEharr =   0.00000125
   scf:  970     -2804.520935     -2804.520952     -2804.654149   0.000199   -4.225462
           (SO)Ebs =  -8.48798384
 Calculating DEharr... 
 SpOrb/NonColl/nh =  T F         900
      Size Dscf/H =       7200      7200
        (SO)DEharr =   0.00000132
   scf:  971     -2804.520935     -2804.520953     -2804.654150   0.000222   -4.225453
           (SO)Ebs =  -8.48798445
 Calculating DEharr... 
 SpOrb/NonColl/nh =  T F         900
      Size Dscf/H =       7200      7200
        (SO)DEharr =   0.00000132
   scf:  972     -2804.520935     -2804.520953     -2804.654150   0.000221   -4.225455
           (SO)Ebs =  -8.48798527
 Calculating DEharr... 
 SpOrb/NonColl/nh =  T F         900
      Size Dscf/H =       7200      7200
        (SO)DEharr =   0.00000132
   scf:  973     -2804.520935     -2804.520953     -2804.654150   0.000220   -4.225456
           (SO)Ebs =  -8.48798411
 Calculating DEharr... 
 SpOrb/NonColl/nh =  T F         900
      Size Dscf/H =       7200      7200
        (SO)DEharr =   0.00000133
   scf:  974     -2804.520935     -2804.520953     -2804.654150   0.000223   -4.225454
           (SO)Ebs =  -8.48798197
 Calculating DEharr... 
 SpOrb/NonColl/nh =  T F         900
      Size Dscf/H =       7200      7200
        (SO)DEharr =   0.00000134
   scf:  975     -2804.520935     -2804.520953     -2804.654151   0.000226   -4.225450
           (SO)Ebs =  -8.48797324
 Calculating DEharr... 
 SpOrb/NonColl/nh =  T F         900
      Size Dscf/H =       7200      7200
        (SO)DEharr =   0.00000133
   scf:  976     -2804.520936     -2804.520954     -2804.654150   0.000226   -4.225431
           (SO)Ebs =  -8.48797087
 Calculating DEharr... 
 SpOrb/NonColl/nh =  T F         900
      Size Dscf/H =       7200      7200
        (SO)DEharr =   0.00000132
   scf:  977     -2804.520937     -2804.520955     -2804.654150   0.000224   -4.225426
           (SO)Ebs =  -8.48797347
 Calculating DEharr... 
 SpOrb/NonColl/nh =  T F         900
      Size Dscf/H =       7200      7200
        (SO)DEharr =   0.00000123
   scf:  978     -2804.520938     -2804.520954     -2804.654149   0.000207   -4.225430
           (SO)Ebs =  -8.48797329
 Calculating DEharr... 
 SpOrb/NonColl/nh =  T F         900
      Size Dscf/H =       7200      7200
        (SO)DEharr =   0.00000123
   scf:  979     -2804.520937     -2804.520954     -2804.654149   0.000207   -4.225429
           (SO)Ebs =  -8.48797370
 Calculating DEharr... 
 SpOrb/NonColl/nh =  T F         900
      Size Dscf/H =       7200      7200
        (SO)DEharr =   0.00000112
   scf:  980     -2804.520938     -2804.520953     -2804.654147   0.000194   -4.225429
           (SO)Ebs =  -8.48797351
 Calculating DEharr... 
 SpOrb/NonColl/nh =  T F         900
      Size Dscf/H =       7200      7200
        (SO)DEharr =   0.00000114
   scf:  981     -2804.520938     -2804.520953     -2804.654148   0.000198   -4.225429
           (SO)Ebs =  -8.48797359
 Calculating DEharr... 
 SpOrb/NonColl/nh =  T F         900
      Size Dscf/H =       7200      7200
        (SO)DEharr =   0.00000116
   scf:  982     -2804.520937     -2804.520953     -2804.654148   0.000201   -4.225429
           (SO)Ebs =  -8.48797381
 Calculating DEharr... 
 SpOrb/NonColl/nh =  T F         900
      Size Dscf/H =       7200      7200
        (SO)DEharr =   0.00000114
   scf:  983     -2804.520938     -2804.520953     -2804.654148   0.000197   -4.225429
           (SO)Ebs =  -8.48797347
 Calculating DEharr... 
 SpOrb/NonColl/nh =  T F         900
      Size Dscf/H =       7200      7200
        (SO)DEharr =   0.00000114
   scf:  984     -2804.520938     -2804.520953     -2804.654148   0.000197   -4.225429
           (SO)Ebs =  -8.48797346
 Calculating DEharr... 
 SpOrb/NonColl/nh =  T F         900
      Size Dscf/H =       7200      7200
        (SO)DEharr =   0.00000114
   scf:  985     -2804.520938     -2804.520953     -2804.654148   0.000197   -4.225429
           (SO)Ebs =  -8.48797363
 Calculating DEharr... 
 SpOrb/NonColl/nh =  T F         900
      Size Dscf/H =       7200      7200
        (SO)DEharr =   0.00000113
   scf:  986     -2804.520938     -2804.520953     -2804.654148   0.000195   -4.225429
           (SO)Ebs =  -8.48797357
 Calculating DEharr... 
 SpOrb/NonColl/nh =  T F         900
      Size Dscf/H =       7200      7200
        (SO)DEharr =   0.00000113
   scf:  987     -2804.520938     -2804.520953     -2804.654148   0.000195   -4.225429
           (SO)Ebs =  -8.48797339
 Calculating DEharr... 
 SpOrb/NonColl/nh =  T F         900
      Size Dscf/H =       7200      7200
        (SO)DEharr =   0.00000115
   scf:  988     -2804.520938     -2804.520953     -2804.654148   0.000195   -4.225429
           (SO)Ebs =  -8.48797355
 Calculating DEharr... 
 SpOrb/NonColl/nh =  T F         900
      Size Dscf/H =       7200      7200
        (SO)DEharr =   0.00000113
   scf:  989     -2804.520938     -2804.520953     -2804.654148   0.000195   -4.225429
           (SO)Ebs =  -8.48797403
 Calculating DEharr... 
 SpOrb/NonColl/nh =  T F         900
      Size Dscf/H =       7200      7200
        (SO)DEharr =   0.00000112
   scf:  990     -2804.520938     -2804.520953     -2804.654147   0.000194   -4.225429
           (SO)Ebs =  -8.48797338
 Calculating DEharr... 
 SpOrb/NonColl/nh =  T F         900
      Size Dscf/H =       7200      7200
        (SO)DEharr =   0.00000114
   scf:  991     -2804.520938     -2804.520953     -2804.654148   0.000196   -4.225429
           (SO)Ebs =  -8.48797307
 Calculating DEharr... 
 SpOrb/NonColl/nh =  T F         900
      Size Dscf/H =       7200      7200
        (SO)DEharr =   0.00000116
   scf:  992     -2804.520938     -2804.520953     -2804.654148   0.000197   -4.225429
           (SO)Ebs =  -8.48797314
 Calculating DEharr... 
 SpOrb/NonColl/nh =  T F         900
      Size Dscf/H =       7200      7200
        (SO)DEharr =   0.00000116
   scf:  993     -2804.520938     -2804.520953     -2804.654148   0.000196   -4.225429
           (SO)Ebs =  -8.48797383
 Calculating DEharr... 
 SpOrb/NonColl/nh =  T F         900
      Size Dscf/H =       7200      7200
        (SO)DEharr =   0.00000113
   scf:  994     -2804.520938     -2804.520953     -2804.654148   0.000195   -4.225429
           (SO)Ebs =  -8.48797310
 Calculating DEharr... 
 SpOrb/NonColl/nh =  T F         900
      Size Dscf/H =       7200      7200
        (SO)DEharr =   0.00000117
   scf:  995     -2804.520938     -2804.520954     -2804.654148   0.000196   -4.225429
           (SO)Ebs =  -8.48797326
 Calculating DEharr... 
 SpOrb/NonColl/nh =  T F         900
      Size Dscf/H =       7200      7200
        (SO)DEharr =   0.00000115
   scf:  996     -2804.520938     -2804.520953     -2804.654148   0.000196   -4.225429
           (SO)Ebs =  -8.48797331
 Calculating DEharr... 
 SpOrb/NonColl/nh =  T F         900
      Size Dscf/H =       7200      7200
        (SO)DEharr =   0.00000114
   scf:  997     -2804.520938     -2804.520953     -2804.654148   0.000196   -4.225429
           (SO)Ebs =  -8.48797378
 Calculating DEharr... 
 SpOrb/NonColl/nh =  T F         900
      Size Dscf/H =       7200      7200
        (SO)DEharr =   0.00000112
   scf:  998     -2804.520938     -2804.520953     -2804.654147   0.000194   -4.225429
           (SO)Ebs =  -8.48797322
 Calculating DEharr... 
 SpOrb/NonColl/nh =  T F         900
      Size Dscf/H =       7200      7200
        (SO)DEharr =   0.00000115
   scf:  999     -2804.520938     -2804.520953     -2804.654148   0.000195   -4.225429
           (SO)Ebs =  -8.48797345
 Calculating DEharr... 
 SpOrb/NonColl/nh =  T F         900
      Size Dscf/H =       7200      7200
        (SO)DEharr =   0.00000115
   scf: 1000     -2804.520938     -2804.520953     -2804.654148   0.000195   -4.225429
Applying kick at iscf: 1000
Re-setting Pulay history
:!: SCF did not converge in maximum number of steps.

Using DM_out to compute the final energy and forces

siesta: E_KS(eV) =            -2804.5209

siesta: E_KS - E_eggbox =     -2804.5209

siesta: Atomic forces (eV/Ang):
     1    0.000051   -0.000018   -0.523024
     2   -0.000050   -0.000006    0.523117
----------------------------------------
   Tot    0.000001   -0.000024    0.000093
----------------------------------------
   Max    0.523117
   Res    0.301995    sqrt( Sum f_i^2 / 3N )
----------------------------------------
   Max    0.523117    constrained

Stress-tensor-Voigt (kbar):        0.00       -0.00       -0.25        0.00       -0.00        0.00
(Free)E + p*V (eV/cell)    -2804.2458
Target enthalpy (eV/cell)    -2804.6541
 
moments: Atomic and Orbital Populations and Magnetic Moments:

Species: Pt                  

Atom    Orb           Charge    sqrt(<S>^2)        <(Sx,Sy,Sz)>     sqrt(<L>^2)      <(Lx,Ly,Lz)>
----------------------------------------------------------------------------------------------------
   1    1  6s         1.0426                  -0.000  0.008  0.000               0.000  0.000  0.000
   1    2  6s         0.1380                   0.000 -0.004  0.000               0.000  0.000  0.000
   1    3  5dxy       1.8148                  -0.000 -0.016  0.000              -0.000 -0.020  0.000
   1    4  5dyz       1.6718                   0.000 -0.065 -0.000              -0.000 -0.020 -0.000
   1    5  5dz2       1.8013                   0.000 -0.006 -0.000               0.000 -0.030  0.000
   1    6  5dxz       1.6735                   0.000 -0.064 -0.000              -0.000 -0.050 -0.000
   1    7  5dx2-y2    1.8141                  -0.000 -0.016  0.000              -0.000 -0.021  0.000
   1    8  5dxy      -0.0193                   0.000 -0.002 -0.000               0.000  0.000  0.000
   1    9  5dyz       0.0036                  -0.000 -0.002  0.000               0.000  0.000  0.000
   1   10  5dz2       0.0191                  -0.000 -0.001 -0.000               0.000  0.000  0.000
   1   11  5dxz       0.0036                  -0.000 -0.002  0.000               0.000  0.000  0.000
   1   12  5dx2-y2   -0.0193                   0.000 -0.002 -0.000               0.000  0.000  0.000
   1   13  6Ppy       0.0318                  -0.000 -0.002 -0.000               0.000  0.000 -0.000
   1   14  6Ppz      -0.0073                   0.000  0.001  0.000               0.000  0.000  0.000
   1   15  6Ppx       0.0319                  -0.000 -0.002 -0.000               0.000  0.000 -0.000
----------------------------------------------------------------------------------------------------
   1      Total      10.0001         0.175    -0.000 -0.175 -0.000       0.279  -0.001 -0.279  0.000

   2   16  6s         1.0425                   0.000  0.008  0.000               0.000  0.000  0.000
   2   17  6s         0.1380                  -0.000 -0.004  0.000               0.000  0.000  0.000
   2   18  5dxy       1.8147                   0.000 -0.016  0.000               0.000 -0.019  0.000
   2   19  5dyz       1.6717                  -0.000 -0.065 -0.000               0.000 -0.019 -0.000
   2   20  5dz2       1.8013                  -0.000 -0.006 -0.000              -0.000 -0.030  0.000
   2   21  5dxz       1.6735                  -0.000 -0.064 -0.000               0.000 -0.050 -0.000
   2   22  5dx2-y2    1.8141                   0.000 -0.016  0.000               0.000 -0.020  0.000
   2   23  5dxy      -0.0194                  -0.000 -0.002 -0.000               0.000  0.000 -0.000
   2   24  5dyz       0.0036                   0.000 -0.002  0.000              -0.000  0.000 -0.000
   2   25  5dz2       0.0191                   0.000 -0.001 -0.000              -0.000  0.000  0.000
   2   26  5dxz       0.0036                   0.000 -0.002  0.000               0.000  0.000 -0.000
   2   27  5dx2-y2   -0.0193                  -0.000 -0.002 -0.000              -0.000  0.000 -0.000
   2   28  6Ppy       0.0318                   0.000 -0.002 -0.000              -0.000  0.000 -0.000
   2   29  6Ppz      -0.0073                  -0.000  0.001  0.000              -0.000  0.000  0.000
   2   30  6Ppx       0.0319                   0.000 -0.002 -0.000               0.000  0.000 -0.000
----------------------------------------------------------------------------------------------------
   2      Total       9.9999         0.174     0.000 -0.174  0.000       0.273   0.001 -0.273  0.000

----------------------------------------------------------------------------------------------------
Total      Total      20.0000         0.349    -0.000 -0.349  0.000       0.551  -0.000 -0.551  0.000


siesta: Eigenvalues (eV):
ik =     1
  -8.57  -8.43  -7.30  -7.28  -6.78  -6.78  -6.02  -6.02  -5.71  -5.63
  -5.19  -5.19  -4.80  -4.79  -4.77  -4.77  -4.56  -4.45  -4.26  -4.26
  -4.20  -4.19  -3.62  -3.44  -0.09  -0.08   0.55   0.66   1.03   1.04
   3.31   3.34   4.67   4.68   8.73   8.80   9.72   9.77  13.09  13.21
  20.85  20.85  21.14  21.14  21.49  21.49  21.59  21.59  23.55  23.55
  24.16  24.17  26.60  26.65  27.50  27.52  27.80  27.80  35.65  35.76
siesta: Fermi energy =      -4.225429 eV

siesta: Program's energy decomposition (eV):
siesta: Ebs     =      -115.485669
siesta: Eions   =      1671.574203
siesta: Ena     =        29.270177
siesta: Ekin    =      1097.735941
siesta: Enl     =      -554.928400
siesta: Eso     =        -1.530737
siesta: DEna    =         5.525154
siesta: DUscf   =         0.921354
siesta: DUext   =         0.000000
siesta: Exc     =     -1709.940230
siesta: eta*DQ  =         0.000000
siesta: Emadel  =         0.000000
siesta: Emeta   =         0.000000
siesta: Emolmec =         0.000000
siesta: Ekinion =         0.000000
siesta: Eharris =     -2804.520938
siesta: Etot    =     -2804.520945
siesta: FreeEng =     -2804.654140

siesta: Final energy (eV):
siesta:  Band Struct. =    -115.485669
siesta:       Kinetic =    1097.735941
siesta:       Hartree =    1576.340967
siesta:    Ext. field =       0.000000
siesta:   Exch.-corr. =   -1709.940230
siesta:  Ion-electron =   -3962.668040
siesta:       Ion-ion =     195.541154
siesta:       Ekinion =       0.000000
siesta:         Total =   -2804.520945

siesta: Atomic forces (eV/Ang):
siesta:      1    0.000051   -0.000018   -0.523024
siesta:      2   -0.000050   -0.000006    0.523117
siesta: ----------------------------------------
siesta:    Tot    0.000001   -0.000024    0.000093

siesta: Stress tensor (static) (eV/Ang**3):
siesta:     0.000000    0.000000    0.000000
siesta:     0.000000   -0.000000   -0.000000
siesta:     0.000000   -0.000000   -0.000153

siesta: Cell volume =       8000.000000 Ang**3

siesta: Pressure (static):
siesta:                Solid            Molecule  Units
siesta:           0.00000056         -0.00000001  Ry/Bohr**3
siesta:           0.00005104         -0.00000124  eV/Ang**3
siesta:           0.08177873         -0.00198546  kBar
(Free)E+ p_basis*V_orbitals  =       -2802.939329
(Free)Eharris+ p_basis*V_orbitals  =       -2802.939322
 Calling spnvec: nspin, qspin =     4    10.00000    10.00000    -0.00000    -0.34925
 Leaving spnvec: qaux,stot,svec=      20.0000      0.6985     -0.0000      0.6985      0.0000

siesta: Total spin polarization (Qup-Qdown) =    0.698494
siesta: Spin vector =   -0.000009    0.698494    0.000009

siesta: Electric dipole (a.u.)  =   -0.000003    0.000003    0.000583
siesta: Electric dipole (Debye) =   -0.000007    0.000008    0.001482

timer: Elapsed wall time (sec) =    9784.263
timer: CPU execution times (sec):

Routine            Calls   Time/call    Tot.time        %
siesta                 1    9719.141    9719.141   100.00
Setup                  1       0.167       0.167     0.00
bands                  1       0.000       0.000     0.00
writewave              1       0.000       0.000     0.00
KSV_init               1       0.000       0.000     0.00
IterGeom               1    9718.972    9718.972   100.00
state_init             1       0.595       0.595     0.01
hsparse                1       0.000       0.000     0.00
overlap                1       0.592       0.592     0.01
Setup_H0               1       7.205       7.205     0.07
naefs                  2       0.000       0.001     0.00
MolMec                 2       0.000       0.000     0.00
kinefsm                2       0.283       0.566     0.01
nlefsm                 2       0.539       1.079     0.01
spinorb                2       0.078       0.155     0.00
DHSCF_Init             1       5.486       5.486     0.06
DHSCF1                 1       0.414       0.414     0.00
INITMESH               1       0.000       0.000     0.00
DHSCF2                 1       5.072       5.072     0.05
REMESH                 1       0.078       0.078     0.00
REORD               8028       0.075     604.527     6.22
PHION                  1       1.181       1.181     0.01
COMM_BSC            8014       0.075     603.870     6.21
POISON              1002       3.157    3163.071    32.54
fft                 2004       1.171    2346.271    24.14
IterSCF             1000       9.698    9697.884    99.78
setup_H             1000       9.692    9691.755    99.72
DHSCF               1001       9.690    9699.677    99.80
DHSCF3              1001       9.686    9696.134    99.76
rhoofd              1001       0.481     481.223     4.95
cellXC              1001       2.986    2989.137    30.76
vmat                1001       0.488     488.538     5.03
compute_dm          1000       0.004       3.749     0.04
diagon              1000       0.004       3.600     0.04
cdiag               1000       0.003       2.630     0.03
cdiag1              1000       0.000       0.116     0.00
cdiag2              1000       0.000       0.437     0.00
cdiag3              1000       0.002       1.851     0.02
cdiag4              1000       0.000       0.214     0.00
MIXER               1000       0.000       0.462     0.00
WriteDM             1000       0.002       1.752     0.02
PostSCF                1      13.287      13.287     0.14
DHSCF4                 1       3.539       3.539     0.04
dfscf                  1       2.075       2.075     0.02
overfsm                1       0.001       0.001     0.00
state_analysis         1       0.002       0.002     0.00
siesta_move            1       0.000       0.000     0.00
optical                1       0.000       0.000     0.00
  
>> End of run:   9-MAR-2016  19:55:51
