Siesta Version  : master-post-4.1-245-g432ae317
Architecture    : x86_64-mkl_mpi
Compiler version: GNU Fortran (Ubuntu 6.5.0-2ubuntu1~16.04) 6.5.0 20181026
Compiler flags  : mpif90 -I. -DMPI   -g -O2
PP flags        : -DFC_HAVE_FLUSH -DFC_HAVE_ABORT -DHAVE_MPI -DHAVE_SCALAPACK
Libraries       :  -lscalapack-openmpi -lpthread -lm -ldl -lblacs-openmpi -lblacsF77init-openmppi -llapack -lblas
Directory       : /home/kovalp/programs/siesta/gitlab/simune-siesta/Tests/carbon_nanoscroll/work
PARALLEL version

* Running on 2 nodes in parallel
>> Start of run:  14-MAR-2020   1:33:44

                           ***********************       
                           *  WELCOME TO SIESTA  *       
                           ***********************       

reinit: Reading from ../carbon_nanoscroll.fdf

reinit: -----------------------------------------------------------------------
reinit: System Name: scroll_80-5-20
reinit: -----------------------------------------------------------------------
reinit: System Label: carbon_nanoscroll
reinit: -----------------------------------------------------------------------

initatom: Reading input for the pseudopotentials and atomic orbitals ----------
Species number:   1 Atomic number:    6 Label: C_2
Species number:   2 Atomic number:    1 Label: H

Ground state valence configuration:   2s02  2p02
Reading pseudopotential information in formatted form from C_2.psf

Valence configuration for pseudopotential generation:
2s( 2.00) rc: 1.25
2p( 2.00) rc: 1.25
3d( 0.00) rc: 1.25
4f( 0.00) rc: 1.25
Ground state valence configuration:   1s01
Reading pseudopotential information in formatted form from H.psf

Valence configuration for pseudopotential generation:
1s( 1.00) rc: 1.25
2p( 0.00) rc: 1.25
3d( 0.00) rc: 1.25
4f( 0.00) rc: 1.25
For C_2, standard SIESTA heuristics set lmxkb to 2
 (one more than the basis l, including polarization orbitals).
Use PS.lmax or PS.KBprojectors blocks to override.
For H, standard SIESTA heuristics set lmxkb to 1
 (one more than the basis l, including polarization orbitals).
Use PS.lmax or PS.KBprojectors blocks to override.

<basis_specs>
===============================================================================
C_2                  Z=   6    Mass=  12.010        Charge= 0.17977+309
Lmxo=1 Lmxkb= 2    BasisType=split      Semic=F
L=0  Nsemic=0  Cnfigmx=2
          i=1  nzeta=1  polorb=0  (2s)
            splnorm:   0.15000    
               vcte:    0.0000    
               rinn:    0.0000    
               qcoe:    0.0000    
               qyuk:    0.0000    
               qwid:   0.10000E-01
                rcs:    0.0000    
            lambdas:    1.0000    
L=1  Nsemic=0  Cnfigmx=2
          i=1  nzeta=1  polorb=0  (2p)
            splnorm:   0.15000    
               vcte:    0.0000    
               rinn:    0.0000    
               qcoe:    0.0000    
               qyuk:    0.0000    
               qwid:   0.10000E-01
                rcs:    0.0000    
            lambdas:    1.0000    
-------------------------------------------------------------------------------
L=0  Nkbl=1  erefs: 0.17977+309
L=1  Nkbl=1  erefs: 0.17977+309
L=2  Nkbl=1  erefs: 0.17977+309
===============================================================================
</basis_specs>

atom: Called for C_2                   (Z =   6)

read_vps: Pseudopotential generation method:
read_vps: ATM3      Troullier-Martins                       
Total valence charge:    4.00000

xc_check: Exchange-correlation functional:
xc_check: Ceperley-Alder
V l=0 = -2*Zval/r beyond r=  1.3951
V l=1 = -2*Zval/r beyond r=  1.3777
V l=2 = -2*Zval/r beyond r=  1.3777
All V_l potentials equal beyond r=  1.2311
This should be close to max(r_c) in ps generation
All pots = -2*Zval/r beyond r=  1.3951

VLOCAL1: 99.0% of the norm of Vloc inside     28.641 Ry
VLOCAL1: 99.9% of the norm of Vloc inside     65.273 Ry
atom: Maximum radius for 4*pi*r*r*local-pseudopot. charge    1.48507
atom: Maximum radius for r*vlocal+2*Zval:    1.27815

KBgen: Kleinman-Bylander projectors: 
GHOST: No ghost state for L =  0
   l= 0   rc=  1.600766   el= -1.001946   Ekb=  7.816946   kbcos=  0.279978
GHOST: No ghost state for L =  1
   l= 1   rc=  1.620907   el= -0.398597   Ekb= -4.829535   kbcos= -0.287433
GHOST: No ghost state for L =  2
   l= 2   rc=  1.836783   el=  0.002326   Ekb= -1.327964   kbcos= -0.005365

KBgen: Total number of  Kleinman-Bylander projectors:    9
atom: -------------------------------------------------------------------------

atom: SANKEY-TYPE ORBITALS:

SPLIT: Orbitals with angular momentum L= 0

SPLIT: Basis orbitals for state 2s

SPLIT: PAO cut-off radius determined from an
SPLIT: energy shift=  0.020000 Ry

   izeta = 1
                 lambda =    1.000000
                     rc =    4.191849
                 energy =   -0.983900
                kinetic =    0.918801
    potential(screened) =   -1.902702
       potential(ionic) =   -5.506899

SPLIT: Orbitals with angular momentum L= 1

SPLIT: Basis orbitals for state 2p

SPLIT: PAO cut-off radius determined from an
SPLIT: energy shift=  0.020000 Ry

   izeta = 1
                 lambda =    1.000000
                     rc =    4.870301
                 energy =   -0.379088
                kinetic =    2.614064
    potential(screened) =   -2.993152
       potential(ionic) =   -6.506293
atom: Total number of Sankey-type orbitals:  4

atm_pop: Valence configuration (for local Pseudopot. screening):
 2s( 2.00)                                                            
 2p( 2.00)                                                            
Vna: chval, zval:    4.00000   4.00000

Vna:  Cut-off radius for the neutral-atom potential:   4.870301

atom: _________________________________________________________________________

<basis_specs>
===============================================================================
H                    Z=   1    Mass=  1.0100        Charge= 0.17977+309
Lmxo=0 Lmxkb= 1    BasisType=split      Semic=F
L=0  Nsemic=0  Cnfigmx=1
          i=1  nzeta=1  polorb=0  (1s)
            splnorm:   0.15000    
               vcte:    0.0000    
               rinn:    0.0000    
               qcoe:    0.0000    
               qyuk:    0.0000    
               qwid:   0.10000E-01
                rcs:    0.0000    
            lambdas:    1.0000    
-------------------------------------------------------------------------------
L=0  Nkbl=1  erefs: 0.17977+309
L=1  Nkbl=1  erefs: 0.17977+309
===============================================================================
</basis_specs>

atom: Called for H                     (Z =   1)

read_vps: Pseudopotential generation method:
read_vps: ATM3      Troullier-Martins                       
Total valence charge:    1.00000

xc_check: Exchange-correlation functional:
xc_check: Ceperley-Alder
V l=0 = -2*Zval/r beyond r=  1.2343
V l=1 = -2*Zval/r beyond r=  1.2189
All V_l potentials equal beyond r=  1.2343
This should be close to max(r_c) in ps generation
All pots = -2*Zval/r beyond r=  1.2343

VLOCAL1: 99.0% of the norm of Vloc inside     28.493 Ry
VLOCAL1: 99.9% of the norm of Vloc inside     64.935 Ry
atom: Maximum radius for 4*pi*r*r*local-pseudopot. charge    1.45251
atom: Maximum radius for r*vlocal+2*Zval:    1.21892

KBgen: Kleinman-Bylander projectors: 
GHOST: No ghost state for L =  0
   l= 0   rc=  1.364359   el= -0.467325   Ekb= -2.005361   kbcos= -0.336422
GHOST: No ghost state for L =  1
   l= 1   rc=  1.434438   el=  0.001430   Ekb= -0.501708   kbcos= -0.021697

KBgen: Total number of  Kleinman-Bylander projectors:    4
atom: -------------------------------------------------------------------------

atom: SANKEY-TYPE ORBITALS:

SPLIT: Orbitals with angular momentum L= 0

SPLIT: Basis orbitals for state 1s

SPLIT: PAO cut-off radius determined from an
SPLIT: energy shift=  0.020000 Ry

   izeta = 1
                 lambda =    1.000000
                     rc =    4.828263
                 energy =   -0.449375
                kinetic =    0.929372
    potential(screened) =   -1.378747
       potential(ionic) =   -1.915047
atom: Total number of Sankey-type orbitals:  1

atm_pop: Valence configuration (for local Pseudopot. screening):
 1s( 1.00)                                                            
Vna: chval, zval:    1.00000   1.00000

Vna:  Cut-off radius for the neutral-atom potential:   4.828263

atom: _________________________________________________________________________

prinput: Basis input ----------------------------------------------------------

PAO.BasisType split     

%block ChemicalSpeciesLabel
    1    6 C_2                     # Species index, atomic number, species label
    2    1 H                       # Species index, atomic number, species label
%endblock ChemicalSpeciesLabel

%block PAO.Basis                 # Define Basis set
C_2                   2                    # Species label, number of l-shells
 n=2   0   1                         # n, l, Nzeta 
   4.192   
   1.000   
 n=2   1   1                         # n, l, Nzeta 
   4.870   
   1.000   
H                     1                    # Species label, number of l-shells
 n=1   0   1                         # n, l, Nzeta 
   4.828   
   1.000   
%endblock PAO.Basis

prinput: ----------------------------------------------------------------------

coor:   Atomic-coordinates input format  =     Cartesian coordinates
coor:                                          (in Angstroms)

siesta: Atomic coordinates (Bohr) and species
siesta:    -16.03127  -0.46729   0.00000  2        1
siesta:    -15.97252  -2.70953   0.00000  1        2
siesta:    -15.77799  -4.02941  -2.32058  1        3
siesta:    -15.06163  -6.61867  -2.32058  1        4
siesta:    -14.54946  -7.85491   0.00000  1        5
siesta:    -13.23230 -10.18589   0.00000  1        6
siesta:    -12.43648 -11.26557  -2.32058  1        7
siesta:    -10.60997 -13.20775  -2.32058  1        8
siesta:     -9.57995 -14.07049   0.00000  1        9
siesta:     -7.33044 -15.54023   0.00000  1       10
siesta:     -6.14127 -16.13150  -2.32058  1       11
siesta:     -3.62688 -17.03632  -2.32058  1       12
siesta:     -2.31603 -17.34272   0.00000  1       13
siesta:      0.33962 -17.64852   0.00000  1       14
siesta:      1.68601 -17.64899  -2.32058  1       15
siesta:      4.34167 -17.34735  -2.32058  1       16
siesta:      5.65340 -17.04590   0.00000  1       17
siesta:      8.17333 -16.16068   0.00000  1       18
siesta:      9.38474 -15.57685  -2.32058  1       19
siesta:     11.64569 -14.16090  -2.32058  1       20
siesta:     12.69889 -13.32773   0.00000  1       21
siesta:     14.60785 -11.44422   0.00000  1       22
siesta:     15.45422 -10.40476  -2.32058  1       23
siesta:     16.91073  -8.15952  -2.32058  1       24
siesta:     17.51427  -6.96610   0.00000  1       25
siesta:     18.45929  -4.46947   0.00000  1       26
siesta:     18.80129  -3.16074  -2.32058  1       27
siesta:     19.20121  -0.51002  -2.32058  1       28
siesta:     19.26102   0.81801   0.00000  1       29
siesta:     19.10393   3.48511   0.00000  1       30
siesta:     18.88642   4.81132  -2.32058  1       31
siesta:     18.18186   7.39828  -2.32058  1       32
siesta:     17.69948   8.64707   0.00000  1       33
siesta:     16.48913  11.02716   0.00000  1       34
siesta:     15.75671  12.16446  -2.32058  1       35
siesta:     14.08638  14.25776  -2.32058  1       36
siesta:     13.15945  15.20669   0.00000  1       37
siesta:     11.10112  16.93093   0.00000  1       38
siesta:      9.99346  17.68484  -2.32058  1       39
siesta:      7.64774  18.96271  -2.32058  1       40
siesta:      6.40147  19.48979   0.00000  1       41
siesta:      3.84565  20.28552   0.00000  1       42
siesta:      2.54839  20.55475  -2.32058  1       43
siesta:     -0.11773  20.84344  -2.32058  1       44
siesta:     -1.45509  20.85839   0.00000  1       45
siesta:     -4.13143  20.63007   0.00000  1       46
siesta:     -5.43863  20.39115  -2.32058  1       47
siesta:     -8.02656  19.65805  -2.32058  1       48
siesta:     -9.27627  19.17160   0.00000  1       49
siesta:    -11.66355  17.97249   0.00000  1       50
siesta:    -12.81023  17.25415  -2.32058  1       51
siesta:    -14.93334  15.62874  -2.32058  1       52
siesta:    -15.91947  14.71638   0.00000  1       53
siesta:    -17.70667  12.72531   0.00000  1       54
siesta:    -18.50218  11.65536  -2.32058  1       55
siesta:    -19.89571   9.37012  -2.32058  1       56
siesta:    -20.48776   8.16283   0.00000  1       57
siesta:    -21.44262   5.66172   0.00000  1       58
siesta:    -21.80357   4.37776  -2.32058  1       59
siesta:    -22.29294   1.74571  -2.32058  1       60
siesta:    -22.41872   0.40688   0.00000  1       61
siesta:    -22.42928  -2.26975   0.00000  1       62
siesta:    -22.31586  -3.59795  -2.32058  1       63
siesta:    -21.85290  -6.23311  -2.32058  1       64
siesta:    -21.50417  -7.53075   0.00000  1       65
siesta:    -20.58536 -10.04186   0.00000  1       66
siesta:    -20.00986 -11.26776  -2.32058  1       67
siesta:    -18.66701 -13.57759  -2.32058  1       68
siesta:    -17.89432 -14.67439   0.00000  1       69
siesta:    -16.55183 -16.33716   0.00000  2       70
siesta:    -16.03127  -0.46729  -4.64117  2       71
siesta:    -15.97252  -2.70953  -4.64117  1       72
siesta:    -15.77799  -4.02941  -6.96175  1       73
siesta:    -15.06163  -6.61867  -6.96175  1       74
siesta:    -14.54946  -7.85491  -4.64117  1       75
siesta:    -13.23230 -10.18589  -4.64117  1       76
siesta:    -12.43648 -11.26557  -6.96175  1       77
siesta:    -10.60997 -13.20775  -6.96175  1       78
siesta:     -9.57995 -14.07049  -4.64117  1       79
siesta:     -7.33044 -15.54023  -4.64117  1       80
siesta:     -6.14127 -16.13150  -6.96175  1       81
siesta:     -3.62688 -17.03632  -6.96175  1       82
siesta:     -2.31603 -17.34272  -4.64117  1       83
siesta:      0.33962 -17.64852  -4.64117  1       84
siesta:      1.68601 -17.64899  -6.96175  1       85
siesta:      4.34167 -17.34735  -6.96175  1       86
siesta:      5.65340 -17.04590  -4.64117  1       87
siesta:      8.17333 -16.16068  -4.64117  1       88
siesta:      9.38474 -15.57685  -6.96175  1       89
siesta:     11.64569 -14.16090  -6.96175  1       90
siesta:     12.69889 -13.32773  -4.64117  1       91
siesta:     14.60785 -11.44422  -4.64117  1       92
siesta:     15.45422 -10.40476  -6.96175  1       93
siesta:     16.91073  -8.15952  -6.96175  1       94
siesta:     17.51427  -6.96610  -4.64117  1       95
siesta:     18.45929  -4.46947  -4.64117  1       96
siesta:     18.80129  -3.16074  -6.96175  1       97
siesta:     19.20121  -0.51002  -6.96175  1       98
siesta:     19.26102   0.81801  -4.64117  1       99
siesta:     19.10393   3.48511  -4.64117  1      100
siesta:     18.88642   4.81132  -6.96175  1      101
siesta:     18.18186   7.39828  -6.96175  1      102
siesta:     17.69948   8.64707  -4.64117  1      103
siesta:     16.48913  11.02716  -4.64117  1      104
siesta:     15.75671  12.16446  -6.96175  1      105
siesta:     14.08638  14.25776  -6.96175  1      106
siesta:     13.15945  15.20669  -4.64117  1      107
siesta:     11.10112  16.93093  -4.64117  1      108
siesta:      9.99346  17.68484  -6.96175  1      109
siesta:      7.64774  18.96271  -6.96175  1      110
siesta:      6.40147  19.48979  -4.64117  1      111
siesta:      3.84565  20.28552  -4.64117  1      112
siesta:      2.54839  20.55475  -6.96175  1      113
siesta:     -0.11773  20.84344  -6.96175  1      114
siesta:     -1.45509  20.85839  -4.64117  1      115
siesta:     -4.13143  20.63007  -4.64117  1      116
siesta:     -5.43863  20.39115  -6.96175  1      117
siesta:     -8.02656  19.65805  -6.96175  1      118
siesta:     -9.27627  19.17160  -4.64117  1      119
siesta:    -11.66355  17.97249  -4.64117  1      120
siesta:    -12.81023  17.25415  -6.96175  1      121
siesta:    -14.93334  15.62874  -6.96175  1      122
siesta:    -15.91947  14.71638  -4.64117  1      123
siesta:    -17.70667  12.72531  -4.64117  1      124
siesta:    -18.50218  11.65536  -6.96175  1      125
siesta:    -19.89571   9.37012  -6.96175  1      126
siesta:    -20.48776   8.16283  -4.64117  1      127
siesta:    -21.44262   5.66172  -4.64117  1      128
siesta:    -21.80357   4.37776  -6.96175  1      129
siesta:    -22.29294   1.74571  -6.96175  1      130
siesta:    -22.41872   0.40688  -4.64117  1      131
siesta:    -22.42928  -2.26975  -4.64117  1      132
siesta:    -22.31586  -3.59795  -6.96175  1      133
siesta:    -21.85290  -6.23311  -6.96175  1      134
siesta:    -21.50417  -7.53075  -4.64117  1      135
siesta:    -20.58536 -10.04186  -4.64117  1      136
siesta:    -20.00986 -11.26776  -6.96175  1      137
siesta:    -18.66701 -13.57759  -6.96175  1      138
siesta:    -17.89432 -14.67439  -4.64117  1      139
siesta:    -16.55183 -16.33716  -4.64117  2      140

siesta: System type = chain     

initatomlists: Number of atoms, orbitals, and projectors:    140   548  1240

siesta: ******************** Simulation parameters ****************************
siesta:
siesta: The following are some of the parameters of the simulation.
siesta: A complete list of the parameters used, including default values,
siesta: can be found in file out.fdf
siesta:
redata: Spin configuration                          = none
redata: Number of spin components                   = 1
redata: Time-Reversal Symmetry                      = T
redata: Spin-spiral                                 = F
redata: Long output                                 =   F
redata: Number of Atomic Species                    =        2
redata: Charge density info will appear in .RHO file
redata: Write Mulliken Pop.                         = NO
redata: Matel table size (NRTAB)                    =     1024
redata: Mesh Cutoff                                 =    90.0000 Ry
redata: Net charge of the system                    =     0.0000 |e|
redata: Min. number of SCF Iter                     =        0
redata: Max. number of SCF Iter                     =     1000
redata: SCF convergence failure will abort job
redata: SCF mix quantity                            = Hamiltonian
redata: Mix DM or H after convergence               =   F
redata: Recompute H after scf cycle                 =   F
redata: Mix DM in first SCF step                    =   T
redata: Write Pulay info on disk                    =   F
redata: New DM Occupancy tolerance                  = 0.000000000001
redata: No kicks to SCF
redata: DM Mixing Weight for Kicks                  =     0.5000
redata: Require Harris convergence for SCF          =   F
redata: Harris energy tolerance for SCF             =     0.000100 eV
redata: Require DM convergence for SCF              =   T
redata: DM tolerance for SCF                        =     0.000050
redata: Require EDM convergence for SCF             =   F
redata: EDM tolerance for SCF                       =     0.001000 eV
redata: Require H convergence for SCF               =   T
redata: Hamiltonian tolerance for SCF               =     0.001000 eV
redata: Require (free) Energy convergence for SCF   =   F
redata: (free) Energy tolerance for SCF             =     0.000100 eV
redata: Using Saved Data (generic)                  =   T
redata: Use continuation files for DM               =   T
redata: Neglect nonoverlap interactions             =   F
redata: Method of Calculation                       = Diagonalization
redata: Electronic Temperature                      =   299.9869 K
redata: Fix the spin of the system                  =   F
redata: Max. number of TDED Iter                    =        1
redata: Number of TDED substeps                     =        3
redata: Dynamics option                             = Single-point calculation
mix.SCF: Pulay mixing                            = Pulay
mix.SCF:    Variant                              = stable
mix.SCF:    History steps                        = 3
mix.SCF:    Linear mixing weight                 =     0.100000
mix.SCF:    Mixing weight                        =     0.100000
mix.SCF:    SVD condition                        = 0.1000E-07
redata: ***********************************************************************

%block SCF.Mixers
  Pulay
%endblock SCF.Mixers

%block SCF.Mixer.Pulay
  # Mixing method
  method pulay
  variant stable

  # Mixing options
  weight 0.1000
  weight.linear 0.1000
  history 3
%endblock SCF.Mixer.Pulay

DM_history_depth set to one: no extrapolation allowed by default for geometry relaxation
Size of DM history Fstack: 1
Total number of electrons:   548.000000
Total ionic charge:   548.000000

* ProcessorY, Blocksize:    1  24


* Orbital distribution balance (max,min):   284   264

k-point displ. along   1 input, could be:     0.50    0.00
k-point displ. along   2 input, could be:     0.50    0.00
 Kpoints in:            3 . Kpoints trimmed:            3

siesta: k-grid: Number of k-points =         3
siesta: k-points from Monkhorst-Pack grid
siesta: k-cutoff (effective) =    14.620 Ang
siesta: k-point supercell and displacements
siesta: k-grid:    1   0   0      0.500
siesta: k-grid:    0   1   0      0.500
siesta: k-grid:    0   0   6      0.500

diag: Algorithm                                     = D&C
diag: Parallel over k                               =   F
diag: Use parallel 2D distribution                  =   F
diag: Parallel block-size                           = 24
diag: Parallel distribution                         =     1 x     2
diag: Used triangular part                          = Lower
diag: Absolute tolerance                            =  0.100E-15
diag: Orthogonalization factor                      =  0.100E-05
diag: Memory factor                                 =  1.0000
Using current reciprocal lattice vectors for BandLinesScale
Beware any cell changes by the end of the run
Using current reciprocal lattice vectors for BandLinesScale
Beware any cell changes by the end of the run

superc: Internal auxiliary supercell:     1 x     1 x     3  =       3
superc: Number of atoms, orbitals, and projectors:    420   1644   3720


ts: **************************************************************
ts: Save H and S matrices                           =    F
ts: Save DM and EDM matrices                        =    F
ts: Only save the overlap matrix S                  =    F
ts: **************************************************************

************************ Begin: TS CHECKS AND WARNINGS ************************
************************ End: TS CHECKS AND WARNINGS **************************


                     ====================================
                        Single-point calculation
                     ====================================

superc: Internal auxiliary supercell:     1 x     1 x     3  =       3
superc: Number of atoms, orbitals, and projectors:    420   1644   3720

outcell: Unit cell vectors (Ang):
       35.000000    0.000000    0.000000
        0.000000   35.000000    0.000000
        0.000000    0.000000    4.873200

outcell: Cell vector modules (Ang)   :   35.000000   35.000000    4.873200
outcell: Cell angles (23,13,12) (deg):     90.0000     90.0000     90.0000
outcell: Cell volume (Ang**3)        :   5969.6700
<dSpData1D:S at geom step 0
  <sparsity:sparsity for geom step 0
    nrows_g=548 nrows=284 sparsity=.1512 nnzs=45402, refcount: 7>
  <dData1D:(new from dSpData1D) n=45402, refcount: 1>
refcount: 1>
new_DM -- step:     1
Initializing Density Matrix...

Attempting to read DM from file... Failed...
DM filled with atomic data:
<dSpData2D:DM initialized from atoms
  <sparsity:sparsity for geom step 0
    nrows_g=548 nrows=284 sparsity=.1512 nnzs=45402, refcount: 8>
  <dData2D:DM n=45402 m=1, refcount: 1>
refcount: 1>
No. of atoms with KB's overlaping orbs in proc 0. Max # of overlaps:     249      56
New grid distribution:   1
           1       1:  100    1:  100    1:    8
           2       1:  100    1:  100    9:   15

InitMesh: MESH =   200 x   200 x    30 =     1200000
InitMesh: (bp) =   100 x   100 x    15 =      150000
InitMesh: Mesh cutoff (required, used) =    90.000    90.246 Ry
ExtMesh (bp) on 0 =   132 x   132 x    40 =      696960
New grid distribution:   2
           1       1:  100    1:   72    1:   15
           2       1:  100   73:  100    1:   15
New grid distribution:   3
           1       1:  100    1:   67    1:   15
           2       1:  100   68:  100    1:   15
Setting up quadratic distribution...
ExtMesh (bp) on 0 =   132 x   104 x    47 =      645216
PhiOnMesh: Number of (b)points on node 0 =               108000
PhiOnMesh: nlist on node 0 =               539456

stepf: Fermi-Dirac step function

siesta: Program's energy decomposition (eV):
siesta: Ebs     =     -8739.170178
siesta: Eions   =     43073.118743
siesta: Ena     =     13869.888359
siesta: Ekin    =     14432.342540
siesta: Enl     =      -393.195957
siesta: Eso     =         0.000000
siesta: Eldau   =         0.000000
siesta: DEna    =       439.554077
siesta: DUscf   =        14.757299
siesta: DUext   =         0.000000
siesta: Exc     =     -6269.689231
siesta: eta*DQ  =         0.000000
siesta: Emadel  =         0.000000
siesta: Emeta   =         0.000000
siesta: Emolmec =         0.000000
siesta: Ekinion =         0.000000
siesta: Eharris =    -20790.212162
siesta: Etot    =    -20979.461656
siesta: FreeEng =    -20979.487140

        iscf     Eharris(eV)        E_KS(eV)     FreeEng(eV)     dDmax    Ef(eV) dHmax(eV)
   scf:    1   -20790.212162   -20979.461656   -20979.487140  1.444692 -5.164439  3.111738
timer: Routine,Calls,Time,% = IterSCF        1      18.948  94.10
   scf:    2   -20970.954582   -20977.794969   -20977.796937  0.269162 -5.117580  6.044017
   scf:    3   -20971.809855   -20978.768391   -20978.777525  0.419299 -5.145844  4.776510
   scf:    4   -20978.190118   -20980.044883   -20980.066771  0.226753 -5.330090  3.663057
