
                           ***********************       
                           *  WELCOME TO TBTRANS *       
                           ***********************       

reinit: Reading from standard input
************************** Dump of input data file ****************************
SolutionMethod        Transiesta
SystemName  Au 100 with gold chain
SystemLabel au_100
==================================================
==================================================
# SPECIES AND BASIS
# Number of species
NumberOfSpecies 1
%block ChemicalSpeciesLabel
  1  79 Au
%endblock ChemicalSpeciesLabel
PAO.BasisSize    SZP
PAO.EnergyShift  0.005 Ry
XC.functional   GGA
XC.authors      PBE
==================================================
==================================================
# K-points
%block kgrid_Monkhorst_Pack
 2    0    0    0.0
 0    2    0    0.0
 0    0    2    0.0
%endblock kgrid_Monkhorst_Pack
==================================================
==================================================
# Structure
NumberOfAtoms 112
LatticeConstant 1.0 Ang
%block LatticeVectors
     8.651160000      0.000000000      0.000000000
     0.000000000      8.651160000      0.000000000
     0.000000000      0.000000000     32.625600000
%endblock LatticeVectors
AtomicCoordinatesFormat  Ang
%block AtomicCoordinatesAndAtomicSpecies
     0.000000000      0.000000000      0.000000000 1 # 1. layer
     2.883720000      0.000000000      0.000000000 1
     5.767440000      0.000000000      0.000000000 1
     0.000000000      2.883720000      0.000000000 1
     2.883720000      2.883720000      0.000000000 1
     5.767440000      2.883720000      0.000000000 1
     0.000000000      5.767440000      0.000000000 1
     2.883720000      5.767440000      0.000000000 1
     5.767440000      5.767440000      0.000000000 1
     1.441860000      1.441860000      2.039100000 1 # 2. layer
     4.325580000      1.441860000      2.039100000 1
     7.209300000      1.441860000      2.039100000 1
     1.441860000      4.325580000      2.039100000 1
     4.325580000      4.325580000      2.039100000 1
     7.209300000      4.325580000      2.039100000 1
     1.441860000      7.209300000      2.039100000 1
     4.325580000      7.209300000      2.039100000 1
     7.209300000      7.209300000      2.039100000 1
     0.000000000      0.000000000      4.078200000 1 # 3. layer
     2.883720000      0.000000000      4.078200000 1
     5.767440000      0.000000000      4.078200000 1
     0.000000000      2.883720000      4.078200000 1
     2.883720000      2.883720000      4.078200000 1
     5.767440000      2.883720000      4.078200000 1
     0.000000000      5.767440000      4.078200000 1
     2.883720000      5.767440000      4.078200000 1
     5.767440000      5.767440000      4.078200000 1
     1.441860000      1.441860000      6.117300000 1 # 4. layer
     4.325580000      1.441860000      6.117300000 1
     7.209300000      1.441860000      6.117300000 1
     1.441860000      4.325580000      6.117300000 1
     4.325580000      4.325580000      6.117300000 1
     7.209300000      4.325580000      6.117300000 1
     1.441860000      7.209300000      6.117300000 1
     4.325580000      7.209300000      6.117300000 1
     7.209300000      7.209300000      6.117300000 1
     0.000000000      0.000000000      8.156400000 1 # 5. layer
     2.883720000      0.000000000      8.156400000 1
     5.767440000      0.000000000      8.156400000 1
     0.000000000      2.883720000      8.156400000 1
     2.883720000      2.883720000      8.156400000 1
     5.767440000      2.883720000      8.156400000 1
     0.000000000      5.767440000      8.156400000 1
     2.883720000      5.767440000      8.156400000 1
     5.767440000      5.767440000      8.156400000 1
     1.441860000      1.441860000     10.195500000 1 # 6. layer
     4.325580000      1.441860000     10.195500000 1
     7.209300000      1.441860000     10.195500000 1
     1.441860000      4.325580000     10.195500000 1
     4.325580000      4.325580000     10.195500000 1
     7.209300000      4.325580000     10.195500000 1
     1.441860000      7.209300000     10.195500000 1
     4.325580000      7.209300000     10.195500000 1
     7.209300000      7.209300000     10.195500000 1
     0.000000000      0.000000000     12.234600000 1 # 7. layer
     1.441860000      1.441860000     14.273700000 1 # 8. layer
     0.000000000      0.000000000     16.312800000 1 # 9. layer
     1.441860000      1.441860000     18.351900000 1 # 10. layer
     0.000000000      0.000000000     20.391000000 1 # 11. layer
     2.883720000      0.000000000     20.391000000 1
     5.767440000      0.000000000     20.391000000 1
     0.000000000      2.883720000     20.391000000 1
     2.883720000      2.883720000     20.391000000 1
     5.767440000      2.883720000     20.391000000 1
     0.000000000      5.767440000     20.391000000 1
     2.883720000      5.767440000     20.391000000 1
     5.767440000      5.767440000     20.391000000 1
     1.441860000      1.441860000     22.430100000 1 # 12. layer
     4.325580000      1.441860000     22.430100000 1
     7.209300000      1.441860000     22.430100000 1
     1.441860000      4.325580000     22.430100000 1
     4.325580000      4.325580000     22.430100000 1
     7.209300000      4.325580000     22.430100000 1
     1.441860000      7.209300000     22.430100000 1
     4.325580000      7.209300000     22.430100000 1
     7.209300000      7.209300000     22.430100000 1
     0.000000000      0.000000000     24.469200000 1 # 13. layer
     2.883720000      0.000000000     24.469200000 1
     5.767440000      0.000000000     24.469200000 1
     0.000000000      2.883720000     24.469200000 1
     2.883720000      2.883720000     24.469200000 1
     5.767440000      2.883720000     24.469200000 1
     0.000000000      5.767440000     24.469200000 1
     2.883720000      5.767440000     24.469200000 1
     5.767440000      5.767440000     24.469200000 1
     1.441860000      1.441860000     26.508300000 1 # 14. layer
     4.325580000      1.441860000     26.508300000 1
     7.209300000      1.441860000     26.508300000 1
     1.441860000      4.325580000     26.508300000 1
     4.325580000      4.325580000     26.508300000 1
     7.209300000      4.325580000     26.508300000 1
     1.441860000      7.209300000     26.508300000 1
     4.325580000      7.209300000     26.508300000 1
     7.209300000      7.209300000     26.508300000 1
     0.000000000      0.000000000     28.547400000 1 # 15. layer
     2.883720000      0.000000000     28.547400000 1
     5.767440000      0.000000000     28.547400000 1
     0.000000000      2.883720000     28.547400000 1
     2.883720000      2.883720000     28.547400000 1
     5.767440000      2.883720000     28.547400000 1
     0.000000000      5.767440000     28.547400000 1
     2.883720000      5.767440000     28.547400000 1
     5.767440000      5.767440000     28.547400000 1
     1.441860000      1.441860000     30.586500000 1 # 16. layer
     4.325580000      1.441860000     30.586500000 1
     7.209300000      1.441860000     30.586500000 1
     1.441860000      4.325580000     30.586500000 1
     4.325580000      4.325580000     30.586500000 1
     7.209300000      4.325580000     30.586500000 1
     1.441860000      7.209300000     30.586500000 1
     4.325580000      7.209300000     30.586500000 1
     7.209300000      7.209300000     30.586500000 1
%endblock AtomicCoordinatesAndAtomicSpecies
==================================================
==================================================
# SCF variables
DM.MixSCF1   T
MaxSCFIterations      300           # Maximum number of SCF iter
DM.MixingWeight       0.05          # New DM amount for next SCF cycle
DM.Tolerance          1.d-4         # Tolerance in maximum difference
DM.UseSaveDM          true          # to use continuation files
DM.NumberPulay        5
TS.MixH               yes
==================================================
==================================================
# MD variables
MD.FinalTimeStep 1
MD.TypeOfRun CG
MD.NumCGsteps     000
MD.UseSaveXV      .true.
==================================================
==================================================
# Output variables
WriteMullikenPop                1
WriteBands                      .false.
SaveRho                         .false.
SaveDeltaRho                    .false.
SaveHS                          .false.
SaveElectrostaticPotential      True
SaveTotalPotential              no
WriteCoorXmol                   .true.
WriteMDXmol                     .true.
WriteMDhistory                  .false.
WriteEigenvalues                yes
==================================================
==================================================
# Transmission
TS.TBT.NPoints      101
TS.TBT.Emin        -0.5 eV
TS.TBT.Emax         0.5 eV
TS.TBT.NEigen              9
# Bias voltage
TS.Voltage 0.0 eV
# Transiesta: electrode definition:
# LEFT ELECTRODE
TS.HSFileLeft ./elec_au_100.TSHS
TS.ReplicateA1Left    1
TS.ReplicateA2Left    1
TS.NumUsedAtomsLeft   36
TS.BufferAtomsLeft    0
# RIGHT ELECTRODE
TS.HSFileRight ./elec_au_100.TSHS
TS.ReplicateA1Right   1
TS.ReplicateA2Right   1
TS.NumUsedAtomsRight  36
TS.BufferAtomsRight   0
# SPECIES AND ATOMS
# DYNAMICS
TS.UseBulkInElectrodes  T
************************** End of input data file *****************************

reinit: -----------------------------------------------------------------------
reinit: System Name: Au 100 with gold chain
reinit: -----------------------------------------------------------------------
reinit: System Label: au_100                                                      
reinit: -----------------------------------------------------------------------
tbtrans: Voltage                         =     0.0000
Emin,Emax =      -0.499999      0.499999
Energy points in tbtrans =        101
tbtrans: Spin-polarized = F
 contour:  Simple Line Contour:
 contour:     -0.49505      0.00014      0.009900980   1
 contour:     -0.48515      0.00014      0.009900980   2
 contour:     -0.47525      0.00014      0.009900980   3
 contour:     -0.46535      0.00014      0.009900980   4
 contour:     -0.45545      0.00014      0.009900980   5
 contour:     -0.44554      0.00014      0.009900980   6
 contour:     -0.43564      0.00014      0.009900980   7
 contour:     -0.42574      0.00014      0.009900980   8
 contour:     -0.41584      0.00014      0.009900980   9
 contour:     -0.40594      0.00014      0.009900980  10
 contour:     -0.39604      0.00014      0.009900980  11
 contour:     -0.38614      0.00014      0.009900980  12
 contour:     -0.37624      0.00014      0.009900980  13
 contour:     -0.36634      0.00014      0.009900980  14
 contour:     -0.35644      0.00014      0.009900980  15
 contour:     -0.34653      0.00014      0.009900980  16
 contour:     -0.33663      0.00014      0.009900980  17
 contour:     -0.32673      0.00014      0.009900980  18
 contour:     -0.31683      0.00014      0.009900980  19
 contour:     -0.30693      0.00014      0.009900980  20
 contour:     -0.29703      0.00014      0.009900980  21
 contour:     -0.28713      0.00014      0.009900980  22
 contour:     -0.27723      0.00014      0.009900980  23
 contour:     -0.26733      0.00014      0.009900980  24
 contour:     -0.25743      0.00014      0.009900980  25
 contour:     -0.24752      0.00014      0.009900980  26
 contour:     -0.23762      0.00014      0.009900980  27
 contour:     -0.22772      0.00014      0.009900980  28
 contour:     -0.21782      0.00014      0.009900980  29
 contour:     -0.20792      0.00014      0.009900980  30
 contour:     -0.19802      0.00014      0.009900980  31
 contour:     -0.18812      0.00014      0.009900980  32
 contour:     -0.17822      0.00014      0.009900980  33
 contour:     -0.16832      0.00014      0.009900980  34
 contour:     -0.15842      0.00014      0.009900980  35
 contour:     -0.14851      0.00014      0.009900980  36
 contour:     -0.13861      0.00014      0.009900980  37
 contour:     -0.12871      0.00014      0.009900980  38
 contour:     -0.11881      0.00014      0.009900980  39
 contour:     -0.10891      0.00014      0.009900980  40
 contour:     -0.09901      0.00014      0.009900980  41
 contour:     -0.08911      0.00014      0.009900980  42
 contour:     -0.07921      0.00014      0.009900980  43
 contour:     -0.06931      0.00014      0.009900980  44
 contour:     -0.05941      0.00014      0.009900980  45
 contour:     -0.04950      0.00014      0.009900980  46
 contour:     -0.03960      0.00014      0.009900980  47
 contour:     -0.02970      0.00014      0.009900980  48
 contour:     -0.01980      0.00014      0.009900980  49
 contour:     -0.00990      0.00014      0.009900980  50
 contour:     -0.00000      0.00014      0.009900980  51
 contour:      0.00990      0.00014      0.009900980  52
 contour:      0.01980      0.00014      0.009900980  53
 contour:      0.02970      0.00014      0.009900980  54
 contour:      0.03960      0.00014      0.009900980  55
 contour:      0.04950      0.00014      0.009900980  56
 contour:      0.05941      0.00014      0.009900980  57
 contour:      0.06931      0.00014      0.009900980  58
 contour:      0.07921      0.00014      0.009900980  59
 contour:      0.08911      0.00014      0.009900980  60
 contour:      0.09901      0.00014      0.009900980  61
 contour:      0.10891      0.00014      0.009900980  62
 contour:      0.11881      0.00014      0.009900980  63
 contour:      0.12871      0.00014      0.009900980  64
 contour:      0.13861      0.00014      0.009900980  65
 contour:      0.14851      0.00014      0.009900980  66
 contour:      0.15842      0.00014      0.009900980  67
 contour:      0.16832      0.00014      0.009900980  68
 contour:      0.17822      0.00014      0.009900980  69
 contour:      0.18812      0.00014      0.009900980  70
 contour:      0.19802      0.00014      0.009900980  71
 contour:      0.20792      0.00014      0.009900980  72
 contour:      0.21782      0.00014      0.009900980  73
 contour:      0.22772      0.00014      0.009900980  74
 contour:      0.23762      0.00014      0.009900980  75
 contour:      0.24752      0.00014      0.009900980  76
 contour:      0.25743      0.00014      0.009900980  77
 contour:      0.26733      0.00014      0.009900980  78
 contour:      0.27723      0.00014      0.009900980  79
 contour:      0.28713      0.00014      0.009900980  80
 contour:      0.29703      0.00014      0.009900980  81
 contour:      0.30693      0.00014      0.009900980  82
 contour:      0.31683      0.00014      0.009900980  83
 contour:      0.32673      0.00014      0.009900980  84
 contour:      0.33663      0.00014      0.009900980  85
 contour:      0.34653      0.00014      0.009900980  86
 contour:      0.35644      0.00014      0.009900980  87
 contour:      0.36634      0.00014      0.009900980  88
 contour:      0.37624      0.00014      0.009900980  89
 contour:      0.38614      0.00014      0.009900980  90
 contour:      0.39604      0.00014      0.009900980  91
 contour:      0.40594      0.00014      0.009900980  92
 contour:      0.41584      0.00014      0.009900980  93
 contour:      0.42574      0.00014      0.009900980  94
 contour:      0.43564      0.00014      0.009900980  95
 contour:      0.44554      0.00014      0.009900980  96
 contour:      0.45545      0.00014      0.009900980  97
 contour:      0.46535      0.00014      0.009900980  98
 contour:      0.47525      0.00014      0.009900980  99
 contour:      0.48515      0.00014      0.009900980 100
 contour:      0.49505      0.00014      0.009900980 101
 WARNING !!!!
 Number of Nodes greater than number of k-Points !!
 Some nodes will be innactive in k-point parallelization !!

************************************************************************
 K-Points On Nodes:

 Node  Numb. K Pts.  Tot. K Pts. 
  0        0            4
  1        1            4
  2        1            4
  3        1            4
  4        1            4
  5        0            4
  6        0            4
  7        0            4
------------------------------------------------------------------------
 K-Points Coordinates and Weights (Node,kx,ky,kz,wk),:

        1     0.00000     0.00000     0.00000     0.25000
        2     0.19217     0.00000     0.00000     0.25000
        3     0.00000     0.19217     0.00000     0.25000
        4     0.19217     0.19217     0.00000     0.25000
************************************************************************

 unit cell:
 16.3483  0.0000  0.0000
  0.0000 16.3483  0.0000
  0.0000  0.0000 15.4134
 unit cell:
 16.3483  0.0000  0.0000
  0.0000 16.3483  0.0000
  0.0000  0.0000 15.4134
 ==============================================================
  Projection Region: atoms : [        37;        76]
  Projection Region: states: [         1;       360] Tot:       360

  Starting K-Point loop for spin:   1

 Transport for spin ->  1  , kxy-point ->   1, of Node     1
           kxy=(0.000 0.000 0.000 ),w= 0.2500
    E           T(E)            TotDOS         PDOS
 -0.49505  0.17529210E+01  0.14037682E+03  0.14037682E+03
 -0.48515  0.17632528E+01  0.14032094E+03  0.14032094E+03
 -0.47525  0.17734310E+01  0.14026550E+03  0.14026550E+03
 -0.46535  0.17834497E+01  0.14021043E+03  0.14021043E+03
 -0.45545  0.17933029E+01  0.14015563E+03  0.14015563E+03
 -0.44554  0.18029850E+01  0.14010102E+03  0.14010102E+03
 -0.43564  0.18124904E+01  0.14004653E+03  0.14004653E+03
 -0.42574  0.18218137E+01  0.13999209E+03  0.13999209E+03
 -0.41584  0.18309494E+01  0.13993762E+03  0.13993762E+03
 -0.40594  0.18398923E+01  0.13988308E+03  0.13988308E+03
 -0.39604  0.18486375E+01  0.13982839E+03  0.13982839E+03
 -0.38614  0.18571800E+01  0.13977350E+03  0.13977350E+03
 -0.37624  0.18655152E+01  0.13971837E+03  0.13971837E+03
 -0.36634  0.18736384E+01  0.13966294E+03  0.13966294E+03
 -0.35644  0.18815453E+01  0.13960719E+03  0.13960719E+03
 -0.34653  0.18892318E+01  0.13955106E+03  0.13955106E+03
 -0.33663  0.18966939E+01  0.13949452E+03  0.13949452E+03
 -0.32673  0.19039279E+01  0.13943755E+03  0.13943755E+03
 -0.31683  0.19109302E+01  0.13938011E+03  0.13938011E+03
 -0.30693  0.19176975E+01  0.13932219E+03  0.13932219E+03
 -0.29703  0.19242268E+01  0.13926377E+03  0.13926377E+03
 -0.28713  0.19305150E+01  0.13920482E+03  0.13920482E+03
 -0.27723  0.19365597E+01  0.13914535E+03  0.13914535E+03
 -0.26733  0.19423583E+01  0.13908534E+03  0.13908534E+03
 -0.25743  0.19479086E+01  0.13902478E+03  0.13902478E+03
 -0.24752  0.19532088E+01  0.13896368E+03  0.13896368E+03
 -0.23762  0.19582569E+01  0.13890204E+03  0.13890204E+03
 -0.22772  0.19630516E+01  0.13883985E+03  0.13883985E+03
 -0.21782  0.19675915E+01  0.13877714E+03  0.13877714E+03
 -0.20792  0.19718756E+01  0.13871391E+03  0.13871391E+03
 -0.19802  0.19759029E+01  0.13865017E+03  0.13865017E+03
 -0.18812  0.19796730E+01  0.13858595E+03  0.13858595E+03
 -0.17822  0.19831852E+01  0.13852126E+03  0.13852126E+03
 -0.16832  0.19864394E+01  0.13845612E+03  0.13845612E+03
 -0.15842  0.19894357E+01  0.13839057E+03  0.13839057E+03
 -0.14851  0.19921740E+01  0.13832462E+03  0.13832462E+03
 -0.13861  0.19946549E+01  0.13825831E+03  0.13825831E+03
 -0.12871  0.19968788E+01  0.13819167E+03  0.13819167E+03
 -0.11881  0.19988465E+01  0.13812474E+03  0.13812474E+03
 -0.10891  0.20005587E+01  0.13805755E+03  0.13805755E+03
 -0.09901  0.20020166E+01  0.13799015E+03  0.13799015E+03
 -0.08911  0.20032213E+01  0.13792257E+03  0.13792257E+03
 -0.07921  0.20041742E+01  0.13785486E+03  0.13785486E+03
 -0.06931  0.20048766E+01  0.13778707E+03  0.13778707E+03
 -0.05941  0.20053301E+01  0.13771924E+03  0.13771924E+03
 -0.04950  0.20055364E+01  0.13765142E+03  0.13765142E+03
 -0.03960  0.20054973E+01  0.13758367E+03  0.13758367E+03
 -0.02970  0.20052146E+01  0.13751603E+03  0.13751603E+03
 -0.01980  0.20046902E+01  0.13744857E+03  0.13744857E+03
 -0.00990  0.20039262E+01  0.13738133E+03  0.13738133E+03
 -0.00000  0.20029247E+01  0.13731437E+03  0.13731437E+03
  0.00990  0.20016877E+01  0.13724776E+03  0.13724776E+03
  0.01980  0.20002174E+01  0.13718155E+03  0.13718155E+03
  0.02970  0.19985160E+01  0.13711580E+03  0.13711580E+03
  0.03960  0.19965858E+01  0.13705058E+03  0.13705058E+03
  0.04950  0.19944289E+01  0.13698596E+03  0.13698596E+03
  0.05941  0.19920476E+01  0.13692198E+03  0.13692198E+03
  0.06931  0.19894441E+01  0.13685873E+03  0.13685873E+03
  0.07921  0.19866207E+01  0.13679626E+03  0.13679626E+03
  0.08911  0.19835794E+01  0.13673465E+03  0.13673465E+03
  0.09901  0.19803224E+01  0.13667396E+03  0.13667396E+03
  0.10891  0.19768519E+01  0.13661426E+03  0.13661426E+03
  0.11881  0.19731699E+01  0.13655561E+03  0.13655561E+03
  0.12871  0.19692784E+01  0.13649810E+03  0.13649810E+03
  0.13861  0.19651794E+01  0.13644178E+03  0.13644178E+03
  0.14851  0.19608746E+01  0.13638673E+03  0.13638673E+03
  0.15842  0.19563660E+01  0.13633302E+03  0.13633302E+03
  0.16832  0.19516553E+01  0.13628072E+03  0.13628072E+03
  0.17822  0.19467440E+01  0.13622990E+03  0.13622990E+03
  0.18812  0.19416337E+01  0.13618062E+03  0.13618062E+03
  0.19802  0.19363259E+01  0.13613296E+03  0.13613296E+03
  0.20792  0.19308218E+01  0.13608699E+03  0.13608699E+03
  0.21782  0.19251227E+01  0.13604278E+03  0.13604278E+03
  0.22772  0.19192298E+01  0.13600039E+03  0.13600039E+03
  0.23762  0.19131441E+01  0.13595989E+03  0.13595989E+03
  0.24752  0.19068664E+01  0.13592135E+03  0.13592135E+03
  0.25743  0.19003976E+01  0.13588484E+03  0.13588484E+03
  0.26733  0.18937383E+01  0.13585041E+03  0.13585041E+03
  0.27723  0.18868892E+01  0.13581813E+03  0.13581813E+03
  0.28713  0.18798506E+01  0.13578806E+03  0.13578806E+03
  0.29703  0.18726230E+01  0.13576025E+03  0.13576025E+03
  0.30693  0.18652065E+01  0.13573477E+03  0.13573477E+03
  0.31683  0.18576014E+01  0.13571167E+03  0.13571167E+03
  0.32673  0.18498075E+01  0.13569099E+03  0.13569099E+03
  0.33663  0.18418250E+01  0.13567280E+03  0.13567280E+03
  0.34653  0.18336535E+01  0.13565712E+03  0.13565712E+03
  0.35644  0.18252930E+01  0.13564400E+03  0.13564400E+03
  0.36634  0.18167429E+01  0.13563348E+03  0.13563348E+03
  0.37624  0.18080031E+01  0.13562559E+03  0.13562559E+03
  0.38614  0.17990729E+01  0.13562035E+03  0.13562035E+03
  0.39604  0.17899519E+01  0.13561780E+03  0.13561780E+03
  0.40594  0.17806396E+01  0.13561794E+03  0.13561794E+03
  0.41584  0.17711354E+01  0.13562079E+03  0.13562079E+03
  0.42574  0.17614386E+01  0.13562636E+03  0.13562636E+03
  0.43564  0.17515488E+01  0.13563463E+03  0.13563463E+03
  0.44554  0.17414653E+01  0.13564560E+03  0.13564560E+03
  0.45545  0.17311876E+01  0.13565926E+03  0.13565926E+03
  0.46535  0.17207152E+01  0.13567557E+03  0.13567557E+03
  0.47525  0.17100476E+01  0.13569451E+03  0.13569451E+03
  0.48515  0.16991846E+01  0.13571603E+03  0.13571603E+03
  0.49505  0.16881259E+01  0.13574007E+03  0.13574007E+03
 Transport for spin ->  1  , kxy-point ->   1, of Node     2
           kxy=(0.192 0.000 0.000 ),w= 0.2500
    E           T(E)            TotDOS         PDOS
 -0.49505  0.15376991E+01  0.16591992E+03  0.16591992E+03
 -0.48515  0.15509665E+01  0.16740254E+03  0.16740254E+03
 -0.47525  0.15643045E+01  0.16892614E+03  0.16892614E+03
 -0.46535  0.15777001E+01  0.17048181E+03  0.17048181E+03
 -0.45545  0.15911380E+01  0.17205513E+03  0.17205513E+03
 -0.44554  0.16045992E+01  0.17362347E+03  0.17362347E+03
 -0.43564  0.16180599E+01  0.17515161E+03  0.17515161E+03
 -0.42574  0.16314901E+01  0.17658475E+03  0.17658475E+03
 -0.41584  0.16448499E+01  0.17783674E+03  0.17783674E+03
 -0.40594  0.16580838E+01  0.17876943E+03  0.17876943E+03
 -0.39604  0.16711027E+01  0.17915432E+03  0.17915432E+03
 -0.38614  0.16836254E+01  0.17859670E+03  0.17859670E+03
 -0.37624  0.16371964E+01  0.18320069E+03  0.18320069E+03
 -0.36634  0.17077918E+01  0.17080386E+03  0.17080386E+03
 -0.35644  0.17184734E+01  0.15761768E+03  0.15761768E+03
 -0.34653  0.17262623E+01  0.10802704E+03  0.10802704E+03
 -0.33663  0.17353944E+01  0.10738419E+03  0.10738419E+03
 -0.32673  0.17447499E+01  0.10822114E+03  0.10822114E+03
 -0.31683  0.17552721E+01  0.11040412E+03  0.11040412E+03
 -0.30693  0.17697629E+01  0.11717496E+03  0.11717496E+03
 -0.29703  0.18054035E+01  0.16282540E+03  0.16282540E+03
 -0.28713  0.16972885E+01  0.15182934E+04  0.15182934E+04
 -0.27723  0.17295929E+01  0.13762578E+03  0.13762578E+03
 -0.26733  0.17473102E+01  0.11717341E+03  0.11717341E+03
 -0.25743  0.17558517E+01  0.11304854E+03  0.11304854E+03
 -0.24752  0.17610758E+01  0.11191656E+03  0.11191656E+03
 -0.23762  0.17643677E+01  0.11179451E+03  0.11179451E+03
 -0.22772  0.17661735E+01  0.11215679E+03  0.11215679E+03
 -0.21782  0.17666324E+01  0.11282164E+03  0.11282164E+03
 -0.20792  0.17657491E+01  0.11371903E+03  0.11371903E+03
 -0.19802  0.17634513E+01  0.11482409E+03  0.11482409E+03
 -0.18812  0.17596102E+01  0.11613383E+03  0.11613383E+03
 -0.17822  0.17540458E+01  0.11765786E+03  0.11765786E+03
 -0.16832  0.17465252E+01  0.11941452E+03  0.11941452E+03
 -0.15842  0.17367554E+01  0.12142915E+03  0.12142915E+03
 -0.14851  0.17243744E+01  0.12373346E+03  0.12373346E+03
 -0.13861  0.17089382E+01  0.12636525E+03  0.12636525E+03
 -0.12871  0.16899072E+01  0.12936829E+03  0.12936829E+03
 -0.11881  0.16666314E+01  0.13279186E+03  0.13279186E+03
 -0.10891  0.16383382E+01  0.13668978E+03  0.13668978E+03
 -0.09901  0.16041271E+01  0.14111829E+03  0.14111829E+03
 -0.08911  0.15629791E+01  0.14613222E+03  0.14613222E+03
 -0.07921  0.15137947E+01  0.15177865E+03  0.15177865E+03
 -0.06931  0.14554787E+01  0.15808720E+03  0.15808720E+03
 -0.05941  0.13870971E+01  0.16505674E+03  0.16505674E+03
 -0.04950  0.13081303E+01  0.17263920E+03  0.17263920E+03
 -0.03960  0.12188352E+01  0.18072417E+03  0.18072417E+03
 -0.02970  0.11206857E+01  0.18913197E+03  0.18913197E+03
 -0.01980  0.10167989E+01  0.19762741E+03  0.19762741E+03
 -0.00990  0.91217040E+00  0.20596826E+03  0.20596826E+03
 -0.00000  0.81352882E+00  0.21399540E+03  0.21399540E+03
  0.00990  0.72874683E+00  0.22175413E+03  0.22175413E+03
  0.01980  0.66603428E+00  0.22961375E+03  0.22961375E+03
  0.02970  0.63343777E+00  0.23833836E+03  0.23833836E+03
  0.03960  0.63919233E+00  0.24905819E+03  0.24905819E+03
  0.04950  0.69298368E+00  0.26306348E+03  0.26306348E+03
  0.05941  0.80695018E+00  0.28124077E+03  0.28124077E+03
  0.06931  0.99286439E+00  0.30283671E+03  0.30283671E+03
  0.07921  0.12495253E+01  0.32358109E+03  0.32358109E+03
  0.08911  0.15413283E+01  0.33512711E+03  0.33512711E+03
  0.09901  0.17960504E+01  0.32963298E+03  0.32963298E+03
  0.10891  0.19511374E+01  0.30725345E+03  0.30725345E+03
  0.11881  0.20000488E+01  0.27605964E+03  0.27605964E+03
  0.12871  0.19780134E+01  0.24454020E+03  0.24454020E+03
  0.13861  0.19232838E+01  0.21715276E+03  0.21715276E+03
  0.14851  0.18599810E+01  0.19494973E+03  0.19494973E+03
  0.15842  0.17994437E+01  0.17742287E+03  0.17742287E+03
  0.16832  0.17456816E+01  0.16365359E+03  0.16365359E+03
  0.17822  0.16993143E+01  0.15277343E+03  0.15277343E+03
  0.18812  0.16596434E+01  0.14408566E+03  0.14408566E+03
  0.19802  0.16255931E+01  0.13706394E+03  0.13706394E+03
  0.20792  0.15960925E+01  0.13131893E+03  0.13131893E+03
  0.21782  0.15702065E+01  0.12656351E+03  0.12656351E+03
  0.22772  0.15471637E+01  0.12258479E+03  0.12258479E+03
  0.23762  0.15263449E+01  0.11922345E+03  0.11922345E+03
  0.24752  0.15072590E+01  0.11635889E+03  0.11635889E+03
  0.25743  0.14895186E+01  0.11389870E+03  0.11389870E+03
  0.26733  0.14728187E+01  0.11177128E+03  0.11177128E+03
  0.27723  0.14569190E+01  0.10992047E+03  0.10992047E+03
  0.28713  0.14416294E+01  0.10830177E+03  0.10830177E+03
  0.29703  0.14267991E+01  0.10687958E+03  0.10687958E+03
  0.30693  0.14123084E+01  0.10562513E+03  0.10562513E+03
  0.31683  0.13980612E+01  0.10451498E+03  0.10451498E+03
  0.32673  0.13839809E+01  0.10352989E+03  0.10352989E+03
  0.33663  0.13700054E+01  0.10265397E+03  0.10265397E+03
  0.34653  0.13560845E+01  0.10187403E+03  0.10187403E+03
  0.35644  0.13421770E+01  0.10117906E+03  0.10117906E+03
  0.36634  0.13282491E+01  0.10055990E+03  0.10055990E+03
  0.37624  0.13142721E+01  0.10000890E+03  0.10000890E+03
  0.38614  0.13002212E+01  0.99519764E+02  0.99519764E+02
  0.39604  0.12860737E+01  0.99087463E+02  0.99087463E+02
  0.40594  0.12718070E+01  0.98708234E+02  0.98708234E+02
  0.41584  0.12573958E+01  0.98379852E+02  0.98379852E+02
  0.42574  0.12428055E+01  0.98102458E+02  0.98102458E+02
  0.43564  0.12279770E+01  0.97881280E+02  0.97881280E+02
  0.44554  0.12127659E+01  0.97739781E+02  0.97739781E+02
  0.45545  0.11961318E+01  0.99861459E+02  0.99861459E+02
  0.46535  0.11831173E+01  0.11078478E+03  0.11078478E+03
  0.47525  0.11694344E+01  0.11581639E+03  0.11581639E+03
  0.48515  0.11555237E+01  0.11956319E+03  0.11956319E+03
  0.49505  0.11414635E+01  0.12263476E+03  0.12263476E+03
 Transport for spin ->  1  , kxy-point ->   1, of Node     3
           kxy=(0.000 0.192 0.000 ),w= 0.2500
    E           T(E)            TotDOS         PDOS
 -0.49505  0.15376991E+01  0.16591992E+03  0.16591992E+03
 -0.48515  0.15509665E+01  0.16740254E+03  0.16740254E+03
 -0.47525  0.15643045E+01  0.16892614E+03  0.16892614E+03
 -0.46535  0.15777001E+01  0.17048181E+03  0.17048181E+03
 -0.45545  0.15911380E+01  0.17205513E+03  0.17205513E+03
 -0.44554  0.16045992E+01  0.17362347E+03  0.17362347E+03
 -0.43564  0.16180599E+01  0.17515161E+03  0.17515161E+03
 -0.42574  0.16314901E+01  0.17658475E+03  0.17658475E+03
 -0.41584  0.16448499E+01  0.17783674E+03  0.17783674E+03
 -0.40594  0.16580838E+01  0.17876943E+03  0.17876943E+03
 -0.39604  0.16711027E+01  0.17915432E+03  0.17915432E+03
 -0.38614  0.16836254E+01  0.17859670E+03  0.17859670E+03
 -0.37624  0.16371962E+01  0.18320071E+03  0.18320071E+03
 -0.36634  0.17077918E+01  0.17080386E+03  0.17080386E+03
 -0.35644  0.17184734E+01  0.15761768E+03  0.15761768E+03
 -0.34653  0.17262623E+01  0.10802704E+03  0.10802704E+03
 -0.33663  0.17353944E+01  0.10738419E+03  0.10738419E+03
 -0.32673  0.17447499E+01  0.10822114E+03  0.10822114E+03
 -0.31683  0.17552721E+01  0.11040412E+03  0.11040412E+03
 -0.30693  0.17697629E+01  0.11717496E+03  0.11717496E+03
 -0.29703  0.18054035E+01  0.16282538E+03  0.16282538E+03
 -0.28713  0.16972886E+01  0.15182961E+04  0.15182961E+04
 -0.27723  0.17295929E+01  0.13762579E+03  0.13762579E+03
 -0.26733  0.17473102E+01  0.11717341E+03  0.11717341E+03
 -0.25743  0.17558517E+01  0.11304854E+03  0.11304854E+03
 -0.24752  0.17610758E+01  0.11191656E+03  0.11191656E+03
 -0.23762  0.17643677E+01  0.11179451E+03  0.11179451E+03
 -0.22772  0.17661735E+01  0.11215679E+03  0.11215679E+03
 -0.21782  0.17666324E+01  0.11282163E+03  0.11282163E+03
 -0.20792  0.17657491E+01  0.11371903E+03  0.11371903E+03
 -0.19802  0.17634513E+01  0.11482409E+03  0.11482409E+03
 -0.18812  0.17596102E+01  0.11613383E+03  0.11613383E+03
 -0.17822  0.17540458E+01  0.11765786E+03  0.11765786E+03
 -0.16832  0.17465252E+01  0.11941452E+03  0.11941452E+03
 -0.15842  0.17367554E+01  0.12142915E+03  0.12142915E+03
 -0.14851  0.17243744E+01  0.12373346E+03  0.12373346E+03
 -0.13861  0.17089382E+01  0.12636525E+03  0.12636525E+03
 -0.12871  0.16899072E+01  0.12936829E+03  0.12936829E+03
 -0.11881  0.16666314E+01  0.13279185E+03  0.13279185E+03
 -0.10891  0.16383382E+01  0.13668977E+03  0.13668977E+03
 -0.09901  0.16041272E+01  0.14111829E+03  0.14111829E+03
 -0.08911  0.15629792E+01  0.14613222E+03  0.14613222E+03
 -0.07921  0.15137948E+01  0.15177865E+03  0.15177865E+03
 -0.06931  0.14554788E+01  0.15808720E+03  0.15808720E+03
 -0.05941  0.13870971E+01  0.16505674E+03  0.16505674E+03
 -0.04950  0.13081304E+01  0.17263919E+03  0.17263919E+03
 -0.03960  0.12188352E+01  0.18072416E+03  0.18072416E+03
 -0.02970  0.11206858E+01  0.18913196E+03  0.18913196E+03
 -0.01980  0.10167990E+01  0.19762740E+03  0.19762740E+03
 -0.00990  0.91217048E+00  0.20596826E+03  0.20596826E+03
 -0.00000  0.81352890E+00  0.21399539E+03  0.21399539E+03
  0.00990  0.72874690E+00  0.22175413E+03  0.22175413E+03
  0.01980  0.66603433E+00  0.22961374E+03  0.22961374E+03
  0.02970  0.63343780E+00  0.23833835E+03  0.23833835E+03
  0.03960  0.63919233E+00  0.24905818E+03  0.24905818E+03
  0.04950  0.69298365E+00  0.26306347E+03  0.26306347E+03
  0.05941  0.80695010E+00  0.28124075E+03  0.28124075E+03
  0.06931  0.99286426E+00  0.30283669E+03  0.30283669E+03
  0.07921  0.12495251E+01  0.32358108E+03  0.32358108E+03
  0.08911  0.15413281E+01  0.33512710E+03  0.33512710E+03
  0.09901  0.17960503E+01  0.32963299E+03  0.32963299E+03
  0.10891  0.19511374E+01  0.30725347E+03  0.30725347E+03
  0.11881  0.20000488E+01  0.27605967E+03  0.27605967E+03
  0.12871  0.19780134E+01  0.24454022E+03  0.24454022E+03
  0.13861  0.19232838E+01  0.21715278E+03  0.21715278E+03
  0.14851  0.18599811E+01  0.19494974E+03  0.19494974E+03
  0.15842  0.17994437E+01  0.17742288E+03  0.17742288E+03
  0.16832  0.17456816E+01  0.16365359E+03  0.16365359E+03
  0.17822  0.16993143E+01  0.15277344E+03  0.15277344E+03
  0.18812  0.16596434E+01  0.14408566E+03  0.14408566E+03
  0.19802  0.16255931E+01  0.13706395E+03  0.13706395E+03
  0.20792  0.15960925E+01  0.13131894E+03  0.13131894E+03
  0.21782  0.15702065E+01  0.12656351E+03  0.12656351E+03
  0.22772  0.15471637E+01  0.12258479E+03  0.12258479E+03
  0.23762  0.15263449E+01  0.11922346E+03  0.11922346E+03
  0.24752  0.15072589E+01  0.11635889E+03  0.11635889E+03
  0.25743  0.14895186E+01  0.11389871E+03  0.11389871E+03
  0.26733  0.14728187E+01  0.11177128E+03  0.11177128E+03
  0.27723  0.14569190E+01  0.10992047E+03  0.10992047E+03
  0.28713  0.14416294E+01  0.10830177E+03  0.10830177E+03
  0.29703  0.14267991E+01  0.10687959E+03  0.10687959E+03
  0.30693  0.14123083E+01  0.10562513E+03  0.10562513E+03
  0.31683  0.13980612E+01  0.10451498E+03  0.10451498E+03
  0.32673  0.13839809E+01  0.10352989E+03  0.10352989E+03
  0.33663  0.13700054E+01  0.10265397E+03  0.10265397E+03
  0.34653  0.13560844E+01  0.10187403E+03  0.10187403E+03
  0.35644  0.13421770E+01  0.10117907E+03  0.10117907E+03
  0.36634  0.13282491E+01  0.10055990E+03  0.10055990E+03
  0.37624  0.13142721E+01  0.10000890E+03  0.10000890E+03
  0.38614  0.13002211E+01  0.99519764E+02  0.99519764E+02
  0.39604  0.12860736E+01  0.99087463E+02  0.99087463E+02
  0.40594  0.12718070E+01  0.98708234E+02  0.98708234E+02
  0.41584  0.12573958E+01  0.98379853E+02  0.98379853E+02
  0.42574  0.12428055E+01  0.98102459E+02  0.98102459E+02
  0.43564  0.12279770E+01  0.97881280E+02  0.97881280E+02
  0.44554  0.12127659E+01  0.97739781E+02  0.97739781E+02
  0.45545  0.11961318E+01  0.99861451E+02  0.99861451E+02
  0.46535  0.11831173E+01  0.11078478E+03  0.11078478E+03
  0.47525  0.11694344E+01  0.11581639E+03  0.11581639E+03
  0.48515  0.11555237E+01  0.11956319E+03  0.11956319E+03
  0.49505  0.11414635E+01  0.12263476E+03  0.12263476E+03
 Transport for spin ->  1  , kxy-point ->   1, of Node     4
           kxy=(0.192 0.192 0.000 ),w= 0.2500
    E           T(E)            TotDOS         PDOS
 -0.49505  0.15678365E+01  0.74879192E+02  0.74879192E+02
 -0.48515  0.15836725E+01  0.74933980E+02  0.74933980E+02
 -0.47525  0.15993212E+01  0.74990881E+02  0.74990881E+02
 -0.46535  0.16147628E+01  0.75050015E+02  0.75050015E+02
 -0.45545  0.16299778E+01  0.75111544E+02  0.75111544E+02
 -0.44554  0.16449472E+01  0.75175679E+02  0.75175679E+02
 -0.43564  0.16596521E+01  0.75242686E+02  0.75242686E+02
 -0.42574  0.16740744E+01  0.75312887E+02  0.75312887E+02
 -0.41584  0.16881964E+01  0.75386668E+02  0.75386668E+02
 -0.40594  0.17020007E+01  0.75464492E+02  0.75464492E+02
 -0.39604  0.17154709E+01  0.75546900E+02  0.75546900E+02
 -0.38614  0.17285911E+01  0.75634528E+02  0.75634528E+02
 -0.37624  0.17413457E+01  0.75728119E+02  0.75728119E+02
 -0.36634  0.17537203E+01  0.75828537E+02  0.75828537E+02
 -0.35644  0.17657006E+01  0.75936793E+02  0.75936793E+02
 -0.34653  0.17772732E+01  0.76054064E+02  0.76054064E+02
 -0.33663  0.17884248E+01  0.76181733E+02  0.76181733E+02
 -0.32673  0.17991428E+01  0.76321423E+02  0.76321423E+02
 -0.31683  0.18094144E+01  0.76475058E+02  0.76475058E+02
 -0.30693  0.18192269E+01  0.76644933E+02  0.76644933E+02
 -0.29703  0.18285670E+01  0.76833808E+02  0.76833808E+02
 -0.28713  0.18374203E+01  0.77045038E+02  0.77045038E+02
 -0.27723  0.18457707E+01  0.77282758E+02  0.77282758E+02
 -0.26733  0.18535995E+01  0.77552134E+02  0.77552134E+02
 -0.25743  0.18608834E+01  0.77859739E+02  0.77859739E+02
 -0.24752  0.18675929E+01  0.78214109E+02  0.78214109E+02
 -0.23762  0.18736883E+01  0.78626606E+02  0.78626606E+02
 -0.22772  0.18791146E+01  0.79112816E+02  0.79112816E+02
 -0.21782  0.18837916E+01  0.79694930E+02  0.79694930E+02
 -0.20792  0.18875974E+01  0.80406076E+02  0.80406076E+02
 -0.19802  0.18903347E+01  0.81298894E+02  0.81298894E+02
 -0.18812  0.18916579E+01  0.82464661E+02  0.82464661E+02
 -0.17822  0.18908820E+01  0.84083947E+02  0.84083947E+02
 -0.16832  0.18863264E+01  0.86606299E+02  0.86606299E+02
 -0.15842  0.18710125E+01  0.92021255E+02  0.92021255E+02
 -0.14851  0.17803333E+01  0.18726022E+03  0.18726022E+03
 -0.13861  0.17605227E+01  0.23407906E+03  0.23407906E+03
 -0.12871  0.17558675E+01  0.26110704E+03  0.26110704E+03
 -0.11881  0.17574665E+01  0.27961696E+03  0.27961696E+03
 -0.10891  0.17625157E+01  0.29320977E+03  0.29320977E+03
 -0.09901  0.17697095E+01  0.30359963E+03  0.30359963E+03
 -0.08911  0.17783246E+01  0.31175776E+03  0.31175776E+03
 -0.07921  0.17879159E+01  0.31829232E+03  0.31829232E+03
 -0.06931  0.17981888E+01  0.32360969E+03  0.32360969E+03
 -0.05941  0.18089365E+01  0.32799407E+03  0.32799407E+03
 -0.04950  0.18200071E+01  0.33165102E+03  0.33165102E+03
 -0.03960  0.18312836E+01  0.33473312E+03  0.33473312E+03
 -0.02970  0.18426728E+01  0.33735587E+03  0.33735587E+03
 -0.01980  0.18540973E+01  0.33960820E+03  0.33960820E+03
 -0.00990  0.18654907E+01  0.34155939E+03  0.34155939E+03
 -0.00000  0.18767940E+01  0.34326405E+03  0.34326405E+03
  0.00990  0.18879537E+01  0.34476554E+03  0.34476554E+03
  0.01980  0.18989195E+01  0.34609854E+03  0.34609854E+03
  0.02970  0.19096435E+01  0.34729089E+03  0.34729089E+03
  0.03960  0.19200789E+01  0.34836506E+03  0.34836506E+03
  0.04950  0.19301799E+01  0.34933916E+03  0.34933916E+03
  0.05941  0.19399006E+01  0.35022783E+03  0.35022783E+03
  0.06931  0.19491951E+01  0.35104286E+03  0.35104286E+03
  0.07921  0.19580168E+01  0.35179371E+03  0.35179371E+03
  0.08911  0.19663188E+01  0.35248794E+03  0.35248794E+03
  0.09901  0.19740532E+01  0.35313150E+03  0.35313150E+03
  0.10891  0.19811715E+01  0.35372901E+03  0.35372901E+03
  0.11881  0.19876244E+01  0.35428402E+03  0.35428402E+03
  0.12871  0.19933622E+01  0.35479912E+03  0.35479912E+03
  0.13861  0.19983343E+01  0.35527615E+03  0.35527615E+03
  0.14851  0.20024901E+01  0.35571627E+03  0.35571627E+03
  0.15842  0.20057787E+01  0.35612010E+03  0.35612010E+03
  0.16832  0.20081493E+01  0.35648783E+03  0.35648783E+03
  0.17822  0.20095518E+01  0.35681921E+03  0.35681921E+03
  0.18812  0.20099367E+01  0.35711372E+03  0.35711372E+03
  0.19802  0.20092557E+01  0.35737055E+03  0.35737055E+03
  0.20792  0.20074623E+01  0.35758869E+03  0.35758869E+03
  0.21782  0.20045119E+01  0.35776695E+03  0.35776695E+03
  0.22772  0.20003626E+01  0.35790402E+03  0.35790402E+03
  0.23762  0.19949753E+01  0.35799849E+03  0.35799849E+03
  0.24752  0.19883148E+01  0.35804888E+03  0.35804888E+03
  0.25743  0.19803497E+01  0.35805368E+03  0.35805368E+03
  0.26733  0.19710534E+01  0.35801137E+03  0.35801137E+03
  0.27723  0.19604043E+01  0.35792044E+03  0.35792044E+03
  0.28713  0.19483863E+01  0.35777942E+03  0.35777942E+03
  0.29703  0.19349894E+01  0.35758690E+03  0.35758690E+03
  0.30693  0.19202101E+01  0.35734152E+03  0.35734152E+03
  0.31683  0.19040515E+01  0.35704203E+03  0.35704203E+03
  0.32673  0.18865239E+01  0.35668728E+03  0.35668728E+03
  0.33663  0.18676446E+01  0.35627624E+03  0.35627624E+03
  0.34653  0.18474385E+01  0.35580798E+03  0.35580798E+03
  0.35644  0.18259380E+01  0.35528175E+03  0.35528175E+03
  0.36634  0.18031824E+01  0.35469690E+03  0.35469690E+03
  0.37624  0.17792186E+01  0.35405296E+03  0.35405296E+03
  0.38614  0.17541004E+01  0.35334961E+03  0.35334961E+03
  0.39604  0.17278880E+01  0.35258667E+03  0.35258667E+03
  0.40594  0.17006479E+01  0.35176414E+03  0.35176414E+03
  0.41584  0.16724522E+01  0.35088215E+03  0.35088215E+03
  0.42574  0.16433780E+01  0.34994100E+03  0.34994100E+03
  0.43564  0.16135070E+01  0.34894114E+03  0.34894114E+03
  0.44554  0.15829241E+01  0.34788317E+03  0.34788317E+03
  0.45545  0.15517174E+01  0.34676780E+03  0.34676780E+03
  0.46535  0.15199772E+01  0.34559590E+03  0.34559590E+03
  0.47525  0.14877949E+01  0.34436844E+03  0.34436844E+03
  0.48515  0.14552624E+01  0.34308652E+03  0.34308652E+03
  0.49505  0.14224714E+01  0.34175132E+03  0.34175132E+03
 ==============================================================

 Results:

  Voltage, Current(A) =   0.00000000E+00  0.00000000E+00

 ==============================================================
