
                           ***********************       
                           *  WELCOME TO TBTRANS *       
                           ***********************       

reinit: Reading from standard input
************************** Dump of input data file ****************************
SolutionMethod        Transiesta
SystemName  Au 100 with gold chain
SystemLabel au_100
==================================================
==================================================
# SPECIES AND BASIS
# Number of species
NumberOfSpecies 1
%block ChemicalSpeciesLabel
  1  79 Au
%endblock ChemicalSpeciesLabel
PAO.BasisSize    SZP
PAO.EnergyShift  0.005 Ry
XC.functional   GGA
XC.authors      PBE
==================================================
==================================================
# K-points
%block kgrid_Monkhorst_Pack
 2    0    0    0.0
 0    2    0    0.0
 0    0    2    0.0
%endblock kgrid_Monkhorst_Pack
==================================================
==================================================
# Structure
NumberOfAtoms 112
LatticeConstant 1.0 Ang
%block LatticeVectors
     8.651160000      0.000000000      0.000000000
     0.000000000      8.651160000      0.000000000
     0.000000000      0.000000000     32.625600000
%endblock LatticeVectors
AtomicCoordinatesFormat  Ang
%block AtomicCoordinatesAndAtomicSpecies
     0.000000000      0.000000000      0.000000000 1 # 1. layer
     2.883720000      0.000000000      0.000000000 1
     5.767440000      0.000000000      0.000000000 1
     0.000000000      2.883720000      0.000000000 1
     2.883720000      2.883720000      0.000000000 1
     5.767440000      2.883720000      0.000000000 1
     0.000000000      5.767440000      0.000000000 1
     2.883720000      5.767440000      0.000000000 1
     5.767440000      5.767440000      0.000000000 1
     1.441860000      1.441860000      2.039100000 1 # 2. layer
     4.325580000      1.441860000      2.039100000 1
     7.209300000      1.441860000      2.039100000 1
     1.441860000      4.325580000      2.039100000 1
     4.325580000      4.325580000      2.039100000 1
     7.209300000      4.325580000      2.039100000 1
     1.441860000      7.209300000      2.039100000 1
     4.325580000      7.209300000      2.039100000 1
     7.209300000      7.209300000      2.039100000 1
     0.000000000      0.000000000      4.078200000 1 # 3. layer
     2.883720000      0.000000000      4.078200000 1
     5.767440000      0.000000000      4.078200000 1
     0.000000000      2.883720000      4.078200000 1
     2.883720000      2.883720000      4.078200000 1
     5.767440000      2.883720000      4.078200000 1
     0.000000000      5.767440000      4.078200000 1
     2.883720000      5.767440000      4.078200000 1
     5.767440000      5.767440000      4.078200000 1
     1.441860000      1.441860000      6.117300000 1 # 4. layer
     4.325580000      1.441860000      6.117300000 1
     7.209300000      1.441860000      6.117300000 1
     1.441860000      4.325580000      6.117300000 1
     4.325580000      4.325580000      6.117300000 1
     7.209300000      4.325580000      6.117300000 1
     1.441860000      7.209300000      6.117300000 1
     4.325580000      7.209300000      6.117300000 1
     7.209300000      7.209300000      6.117300000 1
     0.000000000      0.000000000      8.156400000 1 # 5. layer
     2.883720000      0.000000000      8.156400000 1
     5.767440000      0.000000000      8.156400000 1
     0.000000000      2.883720000      8.156400000 1
     2.883720000      2.883720000      8.156400000 1
     5.767440000      2.883720000      8.156400000 1
     0.000000000      5.767440000      8.156400000 1
     2.883720000      5.767440000      8.156400000 1
     5.767440000      5.767440000      8.156400000 1
     1.441860000      1.441860000     10.195500000 1 # 6. layer
     4.325580000      1.441860000     10.195500000 1
     7.209300000      1.441860000     10.195500000 1
     1.441860000      4.325580000     10.195500000 1
     4.325580000      4.325580000     10.195500000 1
     7.209300000      4.325580000     10.195500000 1
     1.441860000      7.209300000     10.195500000 1
     4.325580000      7.209300000     10.195500000 1
     7.209300000      7.209300000     10.195500000 1
     0.000000000      0.000000000     12.234600000 1 # 7. layer
     1.441860000      1.441860000     14.273700000 1 # 8. layer
     0.000000000      0.000000000     16.312800000 1 # 9. layer
     1.441860000      1.441860000     18.351900000 1 # 10. layer
     0.000000000      0.000000000     20.391000000 1 # 11. layer
     2.883720000      0.000000000     20.391000000 1
     5.767440000      0.000000000     20.391000000 1
     0.000000000      2.883720000     20.391000000 1
     2.883720000      2.883720000     20.391000000 1
     5.767440000      2.883720000     20.391000000 1
     0.000000000      5.767440000     20.391000000 1
     2.883720000      5.767440000     20.391000000 1
     5.767440000      5.767440000     20.391000000 1
     1.441860000      1.441860000     22.430100000 1 # 12. layer
     4.325580000      1.441860000     22.430100000 1
     7.209300000      1.441860000     22.430100000 1
     1.441860000      4.325580000     22.430100000 1
     4.325580000      4.325580000     22.430100000 1
     7.209300000      4.325580000     22.430100000 1
     1.441860000      7.209300000     22.430100000 1
     4.325580000      7.209300000     22.430100000 1
     7.209300000      7.209300000     22.430100000 1
     0.000000000      0.000000000     24.469200000 1 # 13. layer
     2.883720000      0.000000000     24.469200000 1
     5.767440000      0.000000000     24.469200000 1
     0.000000000      2.883720000     24.469200000 1
     2.883720000      2.883720000     24.469200000 1
     5.767440000      2.883720000     24.469200000 1
     0.000000000      5.767440000     24.469200000 1
     2.883720000      5.767440000     24.469200000 1
     5.767440000      5.767440000     24.469200000 1
     1.441860000      1.441860000     26.508300000 1 # 14. layer
     4.325580000      1.441860000     26.508300000 1
     7.209300000      1.441860000     26.508300000 1
     1.441860000      4.325580000     26.508300000 1
     4.325580000      4.325580000     26.508300000 1
     7.209300000      4.325580000     26.508300000 1
     1.441860000      7.209300000     26.508300000 1
     4.325580000      7.209300000     26.508300000 1
     7.209300000      7.209300000     26.508300000 1
     0.000000000      0.000000000     28.547400000 1 # 15. layer
     2.883720000      0.000000000     28.547400000 1
     5.767440000      0.000000000     28.547400000 1
     0.000000000      2.883720000     28.547400000 1
     2.883720000      2.883720000     28.547400000 1
     5.767440000      2.883720000     28.547400000 1
     0.000000000      5.767440000     28.547400000 1
     2.883720000      5.767440000     28.547400000 1
     5.767440000      5.767440000     28.547400000 1
     1.441860000      1.441860000     30.586500000 1 # 16. layer
     4.325580000      1.441860000     30.586500000 1
     7.209300000      1.441860000     30.586500000 1
     1.441860000      4.325580000     30.586500000 1
     4.325580000      4.325580000     30.586500000 1
     7.209300000      4.325580000     30.586500000 1
     1.441860000      7.209300000     30.586500000 1
     4.325580000      7.209300000     30.586500000 1
     7.209300000      7.209300000     30.586500000 1
%endblock AtomicCoordinatesAndAtomicSpecies
==================================================
==================================================
# SCF variables
DM.MixSCF1   T
MaxSCFIterations      300           # Maximum number of SCF iter
DM.MixingWeight       0.05          # New DM amount for next SCF cycle
DM.Tolerance          1.d-4         # Tolerance in maximum difference
DM.UseSaveDM          true          # to use continuation files
DM.NumberPulay        5
TS.MixH               yes
==================================================
==================================================
# MD variables
MD.FinalTimeStep 1
MD.TypeOfRun CG
MD.NumCGsteps     000
MD.UseSaveXV      .true.
==================================================
==================================================
# Output variables
WriteMullikenPop                1
WriteBands                      .false.
SaveRho                         .false.
SaveDeltaRho                    .false.
SaveHS                          .false.
SaveElectrostaticPotential      True
SaveTotalPotential              no
WriteCoorXmol                   .true.
WriteMDXmol                     .true.
WriteMDhistory                  .false.
WriteEigenvalues                yes
==================================================
==================================================
# Transmission
TS.TBT.NPoints      101
TS.TBT.Emin        -0.5 eV
TS.TBT.Emax         0.5 eV
TS.TBT.NEigen              9
# Bias voltage
TS.Voltage 0.0 eV
# Transiesta: electrode definition:
# LEFT ELECTRODE
TS.HSFileLeft ./elec_au_100.TSHS
TS.ReplicateA1Left    1
TS.ReplicateA2Left    1
TS.NumUsedAtomsLeft   36
TS.BufferAtomsLeft    0
# RIGHT ELECTRODE
TS.HSFileRight ./elec_au_100.TSHS
TS.ReplicateA1Right   1
TS.ReplicateA2Right   1
TS.NumUsedAtomsRight  36
TS.BufferAtomsRight   0
# SPECIES AND ATOMS
# DYNAMICS
TS.UseBulkInElectrodes  T
************************** End of input data file *****************************

reinit: -----------------------------------------------------------------------
reinit: System Name: Au 100 with gold chain
reinit: -----------------------------------------------------------------------
reinit: System Label: au_100                                                      
reinit: -----------------------------------------------------------------------
tbtrans: Voltage                         =     0.0000
Emin,Emax =      -0.499999      0.499999
Energy points in tbtrans =        101
tbtrans: Spin-polarized =  F
 contour:  Simple Line Contour:
 contour:     -0.03675      0.00001      0.000734980     0.000000000   1
 contour:     -0.03601      0.00001      0.000734980     0.000000000   2
 contour:     -0.03528      0.00001      0.000734980     0.000000000   3
 contour:     -0.03454      0.00001      0.000734980     0.000000000   4
 contour:     -0.03381      0.00001      0.000734980     0.000000000   5
 contour:     -0.03307      0.00001      0.000734980     0.000000000   6
 contour:     -0.03234      0.00001      0.000734980     0.000000000   7
 contour:     -0.03160      0.00001      0.000734980     0.000000000   8
 contour:     -0.03087      0.00001      0.000734980     0.000000000   9
 contour:     -0.03013      0.00001      0.000734980     0.000000000  10
 contour:     -0.02940      0.00001      0.000734980     0.000000000  11
 contour:     -0.02866      0.00001      0.000734980     0.000000000  12
 contour:     -0.02793      0.00001      0.000734980     0.000000000  13
 contour:     -0.02719      0.00001      0.000734980     0.000000000  14
 contour:     -0.02646      0.00001      0.000734980     0.000000000  15
 contour:     -0.02572      0.00001      0.000734980     0.000000000  16
 contour:     -0.02499      0.00001      0.000734980     0.000000000  17
 contour:     -0.02425      0.00001      0.000734980     0.000000000  18
 contour:     -0.02352      0.00001      0.000734980     0.000000000  19
 contour:     -0.02278      0.00001      0.000734980     0.000000000  20
 contour:     -0.02205      0.00001      0.000734980     0.000000000  21
 contour:     -0.02131      0.00001      0.000734980     0.000000000  22
 contour:     -0.02058      0.00001      0.000734980     0.000000000  23
 contour:     -0.01984      0.00001      0.000734980     0.000000000  24
 contour:     -0.01911      0.00001      0.000734980     0.000000000  25
 contour:     -0.01837      0.00001      0.000734980     0.000000000  26
 contour:     -0.01764      0.00001      0.000734980     0.000000000  27
 contour:     -0.01690      0.00001      0.000734980     0.000000000  28
 contour:     -0.01617      0.00001      0.000734980     0.000000000  29
 contour:     -0.01543      0.00001      0.000734980     0.000000000  30
 contour:     -0.01470      0.00001      0.000734980     0.000000000  31
 contour:     -0.01396      0.00001      0.000734980     0.000000000  32
 contour:     -0.01323      0.00001      0.000734980     0.000000000  33
 contour:     -0.01249      0.00001      0.000734980     0.000000000  34
 contour:     -0.01176      0.00001      0.000734980     0.000000000  35
 contour:     -0.01102      0.00001      0.000734980     0.000000000  36
 contour:     -0.01029      0.00001      0.000734980     0.000000000  37
 contour:     -0.00955      0.00001      0.000734980     0.000000000  38
 contour:     -0.00882      0.00001      0.000734980     0.000000000  39
 contour:     -0.00808      0.00001      0.000734980     0.000000000  40
 contour:     -0.00735      0.00001      0.000734980     0.000000000  41
 contour:     -0.00661      0.00001      0.000734980     0.000000000  42
 contour:     -0.00588      0.00001      0.000734980     0.000000000  43
 contour:     -0.00514      0.00001      0.000734980     0.000000000  44
 contour:     -0.00441      0.00001      0.000734980     0.000000000  45
 contour:     -0.00367      0.00001      0.000734980     0.000000000  46
 contour:     -0.00294      0.00001      0.000734980     0.000000000  47
 contour:     -0.00220      0.00001      0.000734980     0.000000000  48
 contour:     -0.00147      0.00001      0.000734980     0.000000000  49
 contour:     -0.00073      0.00001      0.000734980     0.000000000  50
 contour:      0.00000      0.00001      0.000734980     0.000000000  51
 contour:      0.00073      0.00001      0.000734980     0.000000000  52
 contour:      0.00147      0.00001      0.000734980     0.000000000  53
 contour:      0.00220      0.00001      0.000734980     0.000000000  54
 contour:      0.00294      0.00001      0.000734980     0.000000000  55
 contour:      0.00367      0.00001      0.000734980     0.000000000  56
 contour:      0.00441      0.00001      0.000734980     0.000000000  57
 contour:      0.00514      0.00001      0.000734980     0.000000000  58
 contour:      0.00588      0.00001      0.000734980     0.000000000  59
 contour:      0.00661      0.00001      0.000734980     0.000000000  60
 contour:      0.00735      0.00001      0.000734980     0.000000000  61
 contour:      0.00808      0.00001      0.000734980     0.000000000  62
 contour:      0.00882      0.00001      0.000734980     0.000000000  63
 contour:      0.00955      0.00001      0.000734980     0.000000000  64
 contour:      0.01029      0.00001      0.000734980     0.000000000  65
 contour:      0.01102      0.00001      0.000734980     0.000000000  66
 contour:      0.01176      0.00001      0.000734980     0.000000000  67
 contour:      0.01249      0.00001      0.000734980     0.000000000  68
 contour:      0.01323      0.00001      0.000734980     0.000000000  69
 contour:      0.01396      0.00001      0.000734980     0.000000000  70
 contour:      0.01470      0.00001      0.000734980     0.000000000  71
 contour:      0.01543      0.00001      0.000734980     0.000000000  72
 contour:      0.01617      0.00001      0.000734980     0.000000000  73
 contour:      0.01690      0.00001      0.000734980     0.000000000  74
 contour:      0.01764      0.00001      0.000734980     0.000000000  75
 contour:      0.01837      0.00001      0.000734980     0.000000000  76
 contour:      0.01911      0.00001      0.000734980     0.000000000  77
 contour:      0.01984      0.00001      0.000734980     0.000000000  78
 contour:      0.02058      0.00001      0.000734980     0.000000000  79
 contour:      0.02131      0.00001      0.000734980     0.000000000  80
 contour:      0.02205      0.00001      0.000734980     0.000000000  81
 contour:      0.02278      0.00001      0.000734980     0.000000000  82
 contour:      0.02352      0.00001      0.000734980     0.000000000  83
 contour:      0.02425      0.00001      0.000734980     0.000000000  84
 contour:      0.02499      0.00001      0.000734980     0.000000000  85
 contour:      0.02572      0.00001      0.000734980     0.000000000  86
 contour:      0.02646      0.00001      0.000734980     0.000000000  87
 contour:      0.02719      0.00001      0.000734980     0.000000000  88
 contour:      0.02793      0.00001      0.000734980     0.000000000  89
 contour:      0.02866      0.00001      0.000734980     0.000000000  90
 contour:      0.02940      0.00001      0.000734980     0.000000000  91
 contour:      0.03013      0.00001      0.000734980     0.000000000  92
 contour:      0.03087      0.00001      0.000734980     0.000000000  93
 contour:      0.03160      0.00001      0.000734980     0.000000000  94
 contour:      0.03234      0.00001      0.000734980     0.000000000  95
 contour:      0.03307      0.00001      0.000734980     0.000000000  96
 contour:      0.03381      0.00001      0.000734980     0.000000000  97
 contour:      0.03454      0.00001      0.000734980     0.000000000  98
 contour:      0.03528      0.00001      0.000734980     0.000000000  99
 contour:      0.03601      0.00001      0.000734980     0.000000000 100
 contour:      0.03675      0.00001      0.000734980     0.000000000 101
 
************************************************************************
 K-Points On Nodes:
 
 Node  Numb. K Pts.  Tot. K Pts. 
  0        1            4
  1        1            4
  2        1            4
  3        1            4
------------------------------------------------------------------------
 K-Points Coordinates and Weights (Node,kx,ky,kz,wk),:
 
        0     0.00000     0.00000     0.00000     0.25000
        1     0.19217     0.00000     0.00000     0.25000
        2     0.00000     0.19217     0.00000     0.25000
        3     0.19217     0.19217     0.00000     0.25000
************************************************************************
 
 unit cell:
 16.3483  0.0000  0.0000
  0.0000 16.3483  0.0000
  0.0000  0.0000 15.4134
 unit cell:
 16.3483  0.0000  0.0000
  0.0000 16.3483  0.0000
  0.0000  0.0000 15.4134
 ==============================================================
  Projection Region: atoms : [        37;        76]
  Projection Region: states: [         1;       360] Tot:       360
 
  Starting K-Point loop for spin:   1
 
 Transport for spin ->  1  , kxy-point ->   1, of Node     0
           kxy=(0.000 0.000 0.000 ),w= 0.2500
    E           T(E)            TotDOS         PDOS
 -0.50000  0.17476941E+01  0.14041909E+03  0.14041909E+03
 -0.49000  0.17582021E+01  0.14036249E+03  0.14036249E+03
 -0.48000  0.17685564E+01  0.14030640E+03  0.14030640E+03
 -0.47000  0.17787510E+01  0.14025071E+03  0.14025071E+03
 -0.46000  0.17887799E+01  0.14019534E+03  0.14019534E+03
 -0.45000  0.17986370E+01  0.14014020E+03  0.14014020E+03
 -0.44000  0.18083165E+01  0.14008521E+03  0.14008521E+03
 -0.43000  0.18178127E+01  0.14003029E+03  0.14003029E+03
 -0.42000  0.18271202E+01  0.13997538E+03  0.13997538E+03
 -0.41000  0.18362333E+01  0.13992040E+03  0.13992040E+03
 -0.40000  0.18451469E+01  0.13986530E+03  0.13986530E+03
 -0.39000  0.18538558E+01  0.13981002E+03  0.13981002E+03
 -0.38000  0.18623552E+01  0.13975450E+03  0.13975450E+03
 -0.37000  0.18706402E+01  0.13969870E+03  0.13969870E+03
 -0.36000  0.18787063E+01  0.13964256E+03  0.13964256E+03
 -0.35000  0.18865491E+01  0.13958606E+03  0.13958606E+03
 -0.34000  0.18941645E+01  0.13952915E+03  0.13952915E+03
 -0.33000  0.19015486E+01  0.13947180E+03  0.13947180E+03
 -0.32000  0.19086975E+01  0.13941398E+03  0.13941398E+03
 -0.31000  0.19156079E+01  0.13935567E+03  0.13935567E+03
 -0.30000  0.19222764E+01  0.13929684E+03  0.13929684E+03
 -0.29000  0.19287001E+01  0.13923749E+03  0.13923749E+03
 -0.28000  0.19348760E+01  0.13917759E+03  0.13917759E+03
 -0.27000  0.19408016E+01  0.13911714E+03  0.13911714E+03
 -0.26000  0.19464746E+01  0.13905614E+03  0.13905614E+03
 -0.25000  0.19518929E+01  0.13899457E+03  0.13899457E+03
 -0.24000  0.19570546E+01  0.13893244E+03  0.13893244E+03
 -0.23000  0.19619581E+01  0.13886975E+03  0.13886975E+03
 -0.22000  0.19666021E+01  0.13880652E+03  0.13880652E+03
 -0.21000  0.19709852E+01  0.13874275E+03  0.13874275E+03
 -0.20000  0.19751066E+01  0.13867846E+03  0.13867846E+03
 -0.19000  0.19789657E+01  0.13861366E+03  0.13861366E+03
 -0.18000  0.19825618E+01  0.13854837E+03  0.13854837E+03
 -0.17000  0.19858948E+01  0.13848262E+03  0.13848262E+03
 -0.16000  0.19889645E+01  0.13841644E+03  0.13841644E+03
 -0.15000  0.19917711E+01  0.13834984E+03  0.13834984E+03
 -0.14000  0.19943150E+01  0.13828286E+03  0.13828286E+03
 -0.13000  0.19965966E+01  0.13821554E+03  0.13821554E+03
 -0.12000  0.19986166E+01  0.13814791E+03  0.13814791E+03
 -0.11000  0.20003760E+01  0.13808001E+03  0.13808001E+03
 -0.10000  0.20018757E+01  0.13801187E+03  0.13801187E+03
 -0.09000  0.20031170E+01  0.13794355E+03  0.13794355E+03
 -0.08000  0.20041012E+01  0.13787509E+03  0.13787509E+03
 -0.07000  0.20048296E+01  0.13780653E+03  0.13780653E+03
 -0.06000  0.20053041E+01  0.13773793E+03  0.13773793E+03
 -0.05000  0.20055262E+01  0.13766932E+03  0.13766932E+03
 -0.04000  0.20054977E+01  0.13760078E+03  0.13760078E+03
 -0.03000  0.20052206E+01  0.13753234E+03  0.13753234E+03
 -0.02000  0.20046969E+01  0.13746408E+03  0.13746408E+03
 -0.01000  0.20039286E+01  0.13739603E+03  0.13739603E+03
  0.00000  0.20029179E+01  0.13732827E+03  0.13732827E+03
  0.01000  0.20016669E+01  0.13726086E+03  0.13726086E+03
  0.02000  0.20001779E+01  0.13719385E+03  0.13719385E+03
  0.03000  0.19984531E+01  0.13712731E+03  0.13712731E+03
  0.04000  0.19964949E+01  0.13706131E+03  0.13706131E+03
  0.05000  0.19943055E+01  0.13699590E+03  0.13699590E+03
  0.06000  0.19918871E+01  0.13693116E+03  0.13693116E+03
  0.07000  0.19892422E+01  0.13686715E+03  0.13686715E+03
  0.08000  0.19863729E+01  0.13680395E+03  0.13680395E+03
  0.09000  0.19832815E+01  0.13674161E+03  0.13674161E+03
  0.10000  0.19799703E+01  0.13668022E+03  0.13668022E+03
  0.11000  0.19764413E+01  0.13661983E+03  0.13661983E+03
  0.12000  0.19726968E+01  0.13656053E+03  0.13656053E+03
  0.13000  0.19687387E+01  0.13650239E+03  0.13650239E+03
  0.14000  0.19645691E+01  0.13644547E+03  0.13644547E+03
  0.15000  0.19601899E+01  0.13638984E+03  0.13638984E+03
  0.16000  0.19556030E+01  0.13633559E+03  0.13633559E+03
  0.17000  0.19508100E+01  0.13628278E+03  0.13628278E+03
  0.18000  0.19458126E+01  0.13623149E+03  0.13623149E+03
  0.19000  0.19406125E+01  0.13618178E+03  0.13618178E+03
  0.20000  0.19352111E+01  0.13613374E+03  0.13613374E+03
  0.21000  0.19296098E+01  0.13608742E+03  0.13608742E+03
  0.22000  0.19238097E+01  0.13604290E+03  0.13604290E+03
  0.23000  0.19178122E+01  0.13600026E+03  0.13600026E+03
  0.24000  0.19116181E+01  0.13595956E+03  0.13595956E+03
  0.25000  0.19052284E+01  0.13592086E+03  0.13592086E+03
  0.26000  0.18986439E+01  0.13588424E+03  0.13588424E+03
  0.27000  0.18918653E+01  0.13584977E+03  0.13584977E+03
  0.28000  0.18848931E+01  0.13581749E+03  0.13581749E+03
  0.29000  0.18777279E+01  0.13578749E+03  0.13578749E+03
  0.30000  0.18703699E+01  0.13575980E+03  0.13575980E+03
  0.31000  0.18628193E+01  0.13573451E+03  0.13573451E+03
  0.32000  0.18550763E+01  0.13571165E+03  0.13571165E+03
  0.33000  0.18471408E+01  0.13569127E+03  0.13569127E+03
  0.34000  0.18390129E+01  0.13567344E+03  0.13567344E+03
  0.35000  0.18306922E+01  0.13565819E+03  0.13565819E+03
  0.36000  0.18221786E+01  0.13564556E+03  0.13564556E+03
  0.37000  0.18134717E+01  0.13563559E+03  0.13563559E+03
  0.38000  0.18045710E+01  0.13562831E+03  0.13562831E+03
  0.39000  0.17954761E+01  0.13562375E+03  0.13562375E+03
  0.40000  0.17861864E+01  0.13562192E+03  0.13562192E+03
  0.41000  0.17767015E+01  0.13562285E+03  0.13562285E+03
  0.42000  0.17670206E+01  0.13562655E+03  0.13562655E+03
  0.43000  0.17571432E+01  0.13563301E+03  0.13563301E+03
  0.44000  0.17470688E+01  0.13564223E+03  0.13564223E+03
  0.45000  0.17367967E+01  0.13565419E+03  0.13565419E+03
  0.46000  0.17263264E+01  0.13566889E+03  0.13566889E+03
  0.47000  0.17156574E+01  0.13568627E+03  0.13568627E+03
  0.48000  0.17047893E+01  0.13570632E+03  0.13570632E+03
  0.49000  0.16937220E+01  0.13572897E+03  0.13572897E+03
  0.50000  0.16824551E+01  0.13575417E+03  0.13575417E+03
 Transport for spin ->  1  , kxy-point ->   1, of Node     1
           kxy=(0.192 0.000 0.000 ),w= 0.2500
    E           T(E)            TotDOS         PDOS
 -0.50000  0.15309712E+01  0.16510092E+03  0.16510092E+03
 -0.49000  0.15443188E+01  0.16657344E+03  0.16657344E+03
 -0.48000  0.15577446E+01  0.16809086E+03  0.16809086E+03
 -0.47000  0.15712368E+01  0.16964606E+03  0.16964606E+03
 -0.46000  0.15847808E+01  0.17122723E+03  0.17122723E+03
 -0.45000  0.15983594E+01  0.17281552E+03  0.17281552E+03
 -0.44000  0.16119509E+01  0.17438136E+03  0.17438136E+03
 -0.43000  0.16255278E+01  0.17587859E+03  0.17587859E+03
 -0.42000  0.16390546E+01  0.17723468E+03  0.17723468E+03
 -0.41000  0.16524827E+01  0.17833390E+03  0.17833390E+03
 -0.40000  0.16657394E+01  0.17898660E+03  0.17898660E+03
 -0.39000  0.16786707E+01  0.17886970E+03  0.17886970E+03
 -0.38000  0.16880074E+01  0.17730685E+03  0.17730685E+03
 -0.37000  0.17031567E+01  0.17336401E+03  0.17336401E+03
 -0.36000  0.17147421E+01  0.16381050E+03  0.16381050E+03
 -0.35000  0.17240500E+01  0.13615321E+03  0.13615321E+03
 -0.34000  0.17322892E+01  0.10727566E+03  0.10727566E+03
 -0.33000  0.17415680E+01  0.10779933E+03  0.10779933E+03
 -0.32000  0.17516113E+01  0.10937728E+03  0.10937728E+03
 -0.31000  0.17642344E+01  0.11377526E+03  0.11377526E+03
 -0.30000  0.17878379E+01  0.13437475E+03  0.13437475E+03
 -0.29000  0.20068520E+01  0.17886380E+04  0.17886380E+04
 -0.28000  0.17182761E+01  0.16311983E+03  0.16311983E+03
 -0.27000  0.17437106E+01  0.12013093E+03  0.12013093E+03
 -0.26000  0.17540670E+01  0.11377349E+03  0.11377349E+03
 -0.25000  0.17601126E+01  0.11208405E+03  0.11208405E+03
 -0.24000  0.17639330E+01  0.11174980E+03  0.11174980E+03
 -0.23000  0.17661563E+01  0.11200541E+03  0.11200541E+03
 -0.22000  0.17669866E+01  0.11260368E+03  0.11260368E+03
 -0.21000  0.17664577E+01  0.11345168E+03  0.11345168E+03
 -0.20000  0.17645128E+01  0.11451503E+03  0.11451503E+03
 -0.19000  0.17610332E+01  0.11578624E+03  0.11578624E+03
 -0.18000  0.17558465E+01  0.11727259E+03  0.11727259E+03
 -0.17000  0.17487261E+01  0.11899108E+03  0.11899108E+03
 -0.16000  0.17393853E+01  0.12096627E+03  0.12096627E+03
 -0.15000  0.17274678E+01  0.12322942E+03  0.12322942E+03
 -0.14000  0.17125351E+01  0.12581819E+03  0.12581819E+03
 -0.13000  0.16940522E+01  0.12877644E+03  0.12877644E+03
 -0.12000  0.16713725E+01  0.13215392E+03  0.13215392E+03
 -0.11000  0.16437237E+01  0.13600534E+03  0.13600534E+03
 -0.10000  0.16102005E+01  0.14038840E+03  0.14038840E+03
 -0.09000  0.15697716E+01  0.14536015E+03  0.14536015E+03
 -0.08000  0.15213135E+01  0.15097080E+03  0.15097080E+03
 -0.07000  0.14636906E+01  0.15725407E+03  0.15725407E+03
 -0.06000  0.13959081E+01  0.16421380E+03  0.16421380E+03
 -0.05000  0.13173642E+01  0.17180721E+03  0.17180721E+03
 -0.04000  0.12282160E+01  0.17992836E+03  0.17992836E+03
 -0.03000  0.11298376E+01  0.18839942E+03  0.18839942E+03
 -0.02000  0.10252744E+01  0.19698243E+03  0.19698243E+03
 -0.01000  0.91951718E+00  0.20542645E+03  0.20542645E+03
  0.00000  0.81938665E+00  0.21355892E+03  0.21355892E+03
  0.01000  0.73294612E+00  0.22141153E+03  0.22141153E+03
  0.02000  0.66865884E+00  0.22934712E+03  0.22934712E+03
  0.03000  0.63483584E+00  0.23813778E+03  0.23813778E+03
  0.04000  0.63996551E+00  0.24893972E+03  0.24893972E+03
  0.05000  0.69401479E+00  0.26308298E+03  0.26308298E+03
  0.06000  0.80948701E+00  0.28148534E+03  0.28148534E+03
  0.07000  0.99845885E+00  0.30335495E+03  0.30335495E+03
  0.08000  0.12592373E+01  0.32421902E+03  0.32421902E+03
  0.09000  0.15539327E+01  0.33540240E+03  0.33540240E+03
  0.10000  0.18074311E+01  0.32900125E+03  0.32900125E+03
  0.11000  0.19573464E+01  0.30563311E+03  0.30563311E+03
  0.12000  0.20003246E+01  0.27385051E+03  0.27385051E+03
  0.13000  0.19739957E+01  0.24220133E+03  0.24220133E+03
  0.14000  0.19169667E+01  0.21495999E+03  0.21495999E+03
  0.15000  0.18527748E+01  0.19300768E+03  0.19300768E+03
  0.16000  0.17921344E+01  0.17574301E+03  0.17574301E+03
  0.17000  0.17386394E+01  0.16221017E+03  0.16221017E+03
  0.18000  0.16926774E+01  0.15153107E+03  0.15153107E+03
  0.19000  0.16534326E+01  0.14301037E+03  0.14301037E+03
  0.20000  0.16197752E+01  0.13612663E+03  0.13612663E+03
  0.21000  0.15906125E+01  0.13049578E+03  0.13049578E+03
  0.22000  0.15650040E+01  0.12583539E+03  0.12583539E+03
  0.23000  0.15421803E+01  0.12193642E+03  0.12193642E+03
  0.24000  0.15215269E+01  0.11864261E+03  0.11864261E+03
  0.25000  0.15025588E+01  0.11583574E+03  0.11583574E+03
  0.26000  0.14848946E+01  0.11342530E+03  0.11342530E+03
  0.27000  0.14682349E+01  0.11134113E+03  0.11134113E+03
  0.28000  0.14523439E+01  0.10952825E+03  0.10952825E+03
  0.29000  0.14370358E+01  0.10794309E+03  0.10794309E+03
  0.30000  0.14221635E+01  0.10655077E+03  0.10655077E+03
  0.31000  0.14076100E+01  0.10532313E+03  0.10532313E+03
  0.32000  0.13932822E+01  0.10423722E+03  0.10423722E+03
  0.33000  0.13791052E+01  0.10327422E+03  0.10327422E+03
  0.34000  0.13650190E+01  0.10241856E+03  0.10241856E+03
  0.35000  0.13509746E+01  0.10165736E+03  0.10165736E+03
  0.36000  0.13369321E+01  0.10097986E+03  0.10097986E+03
  0.37000  0.13228585E+01  0.10037712E+03  0.10037712E+03
  0.38000  0.13087256E+01  0.99841741E+02  0.99841741E+02
  0.39000  0.12945087E+01  0.99367669E+02  0.99367669E+02
  0.40000  0.12801848E+01  0.98950162E+02  0.98950162E+02
  0.41000  0.12657297E+01  0.98585872E+02  0.98585872E+02
  0.42000  0.12511146E+01  0.98273290E+02  0.98273290E+02
  0.43000  0.12362966E+01  0.98014112E+02  0.98014112E+02
  0.44000  0.12211917E+01  0.97818349E+02  0.97818349E+02
  0.45000  0.12055306E+01  0.97740849E+02  0.97740849E+02
  0.46000  0.11901759E+01  0.10672389E+03  0.10672389E+03
  0.47000  0.11765838E+01  0.11333009E+03  0.11333009E+03
  0.48000  0.11626491E+01  0.11766963E+03  0.11766963E+03
  0.49000  0.11485288E+01  0.12107887E+03  0.12107887E+03
  0.50000  0.11342767E+01  0.12394114E+03  0.12394114E+03
 Transport for spin ->  1  , kxy-point ->   1, of Node     2
           kxy=(0.000 0.192 0.000 ),w= 0.2500
    E           T(E)            TotDOS         PDOS
 -0.50000  0.15309712E+01  0.16510092E+03  0.16510092E+03
 -0.49000  0.15443188E+01  0.16657344E+03  0.16657344E+03
 -0.48000  0.15577446E+01  0.16809086E+03  0.16809086E+03
 -0.47000  0.15712368E+01  0.16964606E+03  0.16964606E+03
 -0.46000  0.15847808E+01  0.17122723E+03  0.17122723E+03
 -0.45000  0.15983594E+01  0.17281552E+03  0.17281552E+03
 -0.44000  0.16119509E+01  0.17438136E+03  0.17438136E+03
 -0.43000  0.16255278E+01  0.17587859E+03  0.17587859E+03
 -0.42000  0.16390546E+01  0.17723468E+03  0.17723468E+03
 -0.41000  0.16524827E+01  0.17833390E+03  0.17833390E+03
 -0.40000  0.16657394E+01  0.17898660E+03  0.17898660E+03
 -0.39000  0.16786708E+01  0.17886970E+03  0.17886970E+03
 -0.38000  0.16880074E+01  0.17730685E+03  0.17730685E+03
 -0.37000  0.17031567E+01  0.17336401E+03  0.17336401E+03
 -0.36000  0.17147421E+01  0.16381050E+03  0.16381050E+03
 -0.35000  0.17240500E+01  0.13615321E+03  0.13615321E+03
 -0.34000  0.17322892E+01  0.10727566E+03  0.10727566E+03
 -0.33000  0.17415680E+01  0.10779933E+03  0.10779933E+03
 -0.32000  0.17516113E+01  0.10937728E+03  0.10937728E+03
 -0.31000  0.17642344E+01  0.11377526E+03  0.11377526E+03
 -0.30000  0.17878379E+01  0.13437475E+03  0.13437475E+03
 -0.29000  0.20068520E+01  0.17886379E+04  0.17886379E+04
 -0.28000  0.17182761E+01  0.16311983E+03  0.16311983E+03
 -0.27000  0.17437106E+01  0.12013093E+03  0.12013093E+03
 -0.26000  0.17540670E+01  0.11377349E+03  0.11377349E+03
 -0.25000  0.17601126E+01  0.11208405E+03  0.11208405E+03
 -0.24000  0.17639330E+01  0.11174980E+03  0.11174980E+03
 -0.23000  0.17661563E+01  0.11200541E+03  0.11200541E+03
 -0.22000  0.17669866E+01  0.11260368E+03  0.11260368E+03
 -0.21000  0.17664577E+01  0.11345168E+03  0.11345168E+03
 -0.20000  0.17645128E+01  0.11451503E+03  0.11451503E+03
 -0.19000  0.17610332E+01  0.11578624E+03  0.11578624E+03
 -0.18000  0.17558465E+01  0.11727259E+03  0.11727259E+03
 -0.17000  0.17487261E+01  0.11899108E+03  0.11899108E+03
 -0.16000  0.17393853E+01  0.12096627E+03  0.12096627E+03
 -0.15000  0.17274678E+01  0.12322942E+03  0.12322942E+03
 -0.14000  0.17125351E+01  0.12581819E+03  0.12581819E+03
 -0.13000  0.16940522E+01  0.12877644E+03  0.12877644E+03
 -0.12000  0.16713725E+01  0.13215392E+03  0.13215392E+03
 -0.11000  0.16437237E+01  0.13600534E+03  0.13600534E+03
 -0.10000  0.16102005E+01  0.14038840E+03  0.14038840E+03
 -0.09000  0.15697716E+01  0.14536015E+03  0.14536015E+03
 -0.08000  0.15213135E+01  0.15097080E+03  0.15097080E+03
 -0.07000  0.14636906E+01  0.15725407E+03  0.15725407E+03
 -0.06000  0.13959081E+01  0.16421380E+03  0.16421380E+03
 -0.05000  0.13173642E+01  0.17180721E+03  0.17180721E+03
 -0.04000  0.12282160E+01  0.17992836E+03  0.17992836E+03
 -0.03000  0.11298376E+01  0.18839942E+03  0.18839942E+03
 -0.02000  0.10252744E+01  0.19698243E+03  0.19698243E+03
 -0.01000  0.91951718E+00  0.20542645E+03  0.20542645E+03
  0.00000  0.81938665E+00  0.21355892E+03  0.21355892E+03
  0.01000  0.73294612E+00  0.22141153E+03  0.22141153E+03
  0.02000  0.66865884E+00  0.22934712E+03  0.22934712E+03
  0.03000  0.63483584E+00  0.23813778E+03  0.23813778E+03
  0.04000  0.63996551E+00  0.24893972E+03  0.24893972E+03
  0.05000  0.69401479E+00  0.26308298E+03  0.26308298E+03
  0.06000  0.80948701E+00  0.28148534E+03  0.28148534E+03
  0.07000  0.99845885E+00  0.30335495E+03  0.30335495E+03
  0.08000  0.12592373E+01  0.32421902E+03  0.32421902E+03
  0.09000  0.15539327E+01  0.33540240E+03  0.33540240E+03
  0.10000  0.18074311E+01  0.32900125E+03  0.32900125E+03
  0.11000  0.19573464E+01  0.30563311E+03  0.30563311E+03
  0.12000  0.20003246E+01  0.27385051E+03  0.27385051E+03
  0.13000  0.19739957E+01  0.24220133E+03  0.24220133E+03
  0.14000  0.19169667E+01  0.21495999E+03  0.21495999E+03
  0.15000  0.18527748E+01  0.19300768E+03  0.19300768E+03
  0.16000  0.17921344E+01  0.17574301E+03  0.17574301E+03
  0.17000  0.17386394E+01  0.16221017E+03  0.16221017E+03
  0.18000  0.16926774E+01  0.15153107E+03  0.15153107E+03
  0.19000  0.16534326E+01  0.14301037E+03  0.14301037E+03
  0.20000  0.16197752E+01  0.13612663E+03  0.13612663E+03
  0.21000  0.15906125E+01  0.13049578E+03  0.13049578E+03
  0.22000  0.15650040E+01  0.12583539E+03  0.12583539E+03
  0.23000  0.15421803E+01  0.12193642E+03  0.12193642E+03
  0.24000  0.15215269E+01  0.11864261E+03  0.11864261E+03
  0.25000  0.15025588E+01  0.11583574E+03  0.11583574E+03
  0.26000  0.14848946E+01  0.11342530E+03  0.11342530E+03
  0.27000  0.14682349E+01  0.11134113E+03  0.11134113E+03
  0.28000  0.14523439E+01  0.10952825E+03  0.10952825E+03
  0.29000  0.14370358E+01  0.10794309E+03  0.10794309E+03
  0.30000  0.14221635E+01  0.10655077E+03  0.10655077E+03
  0.31000  0.14076100E+01  0.10532313E+03  0.10532313E+03
  0.32000  0.13932822E+01  0.10423722E+03  0.10423722E+03
  0.33000  0.13791052E+01  0.10327422E+03  0.10327422E+03
  0.34000  0.13650190E+01  0.10241856E+03  0.10241856E+03
  0.35000  0.13509746E+01  0.10165736E+03  0.10165736E+03
  0.36000  0.13369321E+01  0.10097986E+03  0.10097986E+03
  0.37000  0.13228585E+01  0.10037712E+03  0.10037712E+03
  0.38000  0.13087256E+01  0.99841741E+02  0.99841741E+02
  0.39000  0.12945087E+01  0.99367669E+02  0.99367669E+02
  0.40000  0.12801848E+01  0.98950162E+02  0.98950162E+02
  0.41000  0.12657297E+01  0.98585872E+02  0.98585872E+02
  0.42000  0.12511146E+01  0.98273290E+02  0.98273290E+02
  0.43000  0.12362966E+01  0.98014112E+02  0.98014112E+02
  0.44000  0.12211917E+01  0.97818349E+02  0.97818349E+02
  0.45000  0.12055306E+01  0.97740849E+02  0.97740849E+02
  0.46000  0.11901759E+01  0.10672389E+03  0.10672389E+03
  0.47000  0.11765838E+01  0.11333009E+03  0.11333009E+03
  0.48000  0.11626491E+01  0.11766963E+03  0.11766963E+03
  0.49000  0.11485288E+01  0.12107887E+03  0.12107887E+03
  0.50000  0.11342767E+01  0.12394114E+03  0.12394114E+03
 Transport for spin ->  1  , kxy-point ->   1, of Node     3
           kxy=(0.192 0.192 0.000 ),w= 0.2500
    E           T(E)            TotDOS         PDOS
 -0.50000  0.15597436E+01  0.74851372E+02  0.74851372E+02
 -0.49000  0.15758204E+01  0.74905587E+02  0.74905587E+02
 -0.48000  0.15917164E+01  0.74961906E+02  0.74961906E+02
 -0.47000  0.16074112E+01  0.75020431E+02  0.75020431E+02
 -0.46000  0.16228847E+01  0.75081305E+02  0.75081305E+02
 -0.45000  0.16381169E+01  0.75144721E+02  0.75144721E+02
 -0.44000  0.16530885E+01  0.75210925E+02  0.75210925E+02
 -0.43000  0.16677803E+01  0.75280219E+02  0.75280219E+02
 -0.42000  0.16821739E+01  0.75352970E+02  0.75352970E+02
 -0.41000  0.16962514E+01  0.75429618E+02  0.75429618E+02
 -0.40000  0.17099954E+01  0.75510683E+02  0.75510683E+02
 -0.39000  0.17233892E+01  0.75596775E+02  0.75596775E+02
 -0.38000  0.17364169E+01  0.75688611E+02  0.75688611E+02
 -0.37000  0.17490629E+01  0.75787026E+02  0.75787026E+02
 -0.36000  0.17613126E+01  0.75892997E+02  0.75892997E+02
 -0.35000  0.17731518E+01  0.76007665E+02  0.76007665E+02
 -0.34000  0.17845669E+01  0.76132367E+02  0.76132367E+02
 -0.33000  0.17955447E+01  0.76268677E+02  0.76268677E+02
 -0.32000  0.18060720E+01  0.76418454E+02  0.76418454E+02
 -0.31000  0.18161359E+01  0.76583916E+02  0.76583916E+02
 -0.30000  0.18257228E+01  0.76767726E+02  0.76767726E+02
 -0.29000  0.18348185E+01  0.76973118E+02  0.76973118E+02
 -0.28000  0.18434072E+01  0.77204065E+02  0.77204065E+02
 -0.27000  0.18514703E+01  0.77465522E+02  0.77465522E+02
 -0.26000  0.18589858E+01  0.77763769E+02  0.77763769E+02
 -0.25000  0.18659253E+01  0.78106934E+02  0.78106934E+02
 -0.24000  0.18722514E+01  0.78505789E+02  0.78505789E+02
 -0.23000  0.18779124E+01  0.78975031E+02  0.78975031E+02
 -0.22000  0.18828337E+01  0.79535446E+02  0.79535446E+02
 -0.21000  0.18869026E+01  0.80217798E+02  0.80217798E+02
 -0.20000  0.18899390E+01  0.81070418E+02  0.81070418E+02
 -0.19000  0.18916313E+01  0.82175747E+02  0.82175747E+02
 -0.18000  0.18913769E+01  0.83692740E+02  0.83692740E+02
 -0.17000  0.18877619E+01  0.85998446E+02  0.85998446E+02
 -0.16000  0.18756688E+01  0.90524610E+02  0.90524610E+02
 -0.15000  0.17880558E+01  0.17506930E+03  0.17506930E+03
 -0.14000  0.17632971E+01  0.22840860E+03  0.22840860E+03
 -0.13000  0.17571885E+01  0.25745538E+03  0.25745538E+03
 -0.12000  0.17580856E+01  0.27701016E+03  0.27701016E+03
 -0.11000  0.17627427E+01  0.29124338E+03  0.29124338E+03
 -0.10000  0.17697067E+01  0.30206100E+03  0.30206100E+03
 -0.09000  0.17781888E+01  0.31052025E+03  0.31052025E+03
 -0.08000  0.17877098E+01  0.31727449E+03  0.31727449E+03
 -0.07000  0.17979552E+01  0.32275636E+03  0.32275636E+03
 -0.06000  0.18087060E+01  0.32726651E+03  0.32726651E+03
 -0.05000  0.18198019E+01  0.33102126E+03  0.33102126E+03
 -0.04000  0.18311202E+01  0.33418054E+03  0.33418054E+03
 -0.03000  0.18425634E+01  0.33686504E+03  0.33686504E+03
 -0.02000  0.18540507E+01  0.33916739E+03  0.33916739E+03
 -0.01000  0.18655130E+01  0.34115964E+03  0.34115964E+03
  0.00000  0.18768893E+01  0.34289840E+03  0.34289840E+03
  0.01000  0.18881238E+01  0.34442860E+03  0.34442860E+03
  0.02000  0.18991645E+01  0.34578606E+03  0.34578606E+03
  0.03000  0.19099618E+01  0.34699955E+03  0.34699955E+03
  0.04000  0.19204674E+01  0.34809220E+03  0.34809220E+03
  0.05000  0.19306338E+01  0.34908267E+03  0.34908267E+03
  0.06000  0.19404136E+01  0.34998600E+03  0.34998600E+03
  0.07000  0.19497592E+01  0.35081430E+03  0.35081430E+03
  0.08000  0.19586226E+01  0.35157726E+03  0.35157726E+03
  0.09000  0.19669550E+01  0.35228262E+03  0.35228262E+03
  0.10000  0.19747071E+01  0.35293645E+03  0.35293645E+03
  0.11000  0.19818286E+01  0.35354348E+03  0.35354348E+03
  0.12000  0.19882686E+01  0.35410729E+03  0.35410729E+03
  0.13000  0.19939755E+01  0.35463053E+03  0.35463053E+03
  0.14000  0.19988971E+01  0.35511503E+03  0.35511503E+03
  0.15000  0.20029810E+01  0.35556196E+03  0.35556196E+03
  0.16000  0.20061747E+01  0.35597192E+03  0.35597192E+03
  0.17000  0.20084258E+01  0.35634504E+03  0.35634504E+03
  0.18000  0.20096825E+01  0.35668107E+03  0.35668107E+03
  0.19000  0.20098939E+01  0.35697943E+03  0.35697943E+03
  0.20000  0.20090104E+01  0.35723925E+03  0.35723925E+03
  0.21000  0.20069842E+01  0.35745947E+03  0.35745947E+03
  0.22000  0.20037697E+01  0.35763884E+03  0.35763884E+03
  0.23000  0.19993240E+01  0.35777601E+03  0.35777601E+03
  0.24000  0.19936077E+01  0.35786948E+03  0.35786948E+03
  0.25000  0.19865851E+01  0.35791775E+03  0.35791775E+03
  0.26000  0.19782248E+01  0.35791923E+03  0.35791923E+03
  0.27000  0.19685004E+01  0.35787237E+03  0.35787237E+03
  0.28000  0.19573909E+01  0.35777561E+03  0.35777561E+03
  0.29000  0.19448813E+01  0.35762743E+03  0.35762743E+03
  0.30000  0.19309630E+01  0.35742639E+03  0.35742639E+03
  0.31000  0.19156341E+01  0.35717111E+03  0.35717111E+03
  0.32000  0.18988998E+01  0.35686031E+03  0.35686031E+03
  0.33000  0.18807730E+01  0.35649284E+03  0.35649284E+03
  0.34000  0.18612738E+01  0.35606764E+03  0.35606764E+03
  0.35000  0.18404303E+01  0.35558381E+03  0.35558381E+03
  0.36000  0.18182782E+01  0.35504059E+03  0.35504059E+03
  0.37000  0.17948609E+01  0.35443737E+03  0.35443737E+03
  0.38000  0.17702292E+01  0.35377369E+03  0.35377369E+03
  0.39000  0.17444408E+01  0.35304925E+03  0.35304925E+03
  0.40000  0.17175606E+01  0.35226394E+03  0.35226394E+03
  0.41000  0.16896592E+01  0.35141779E+03  0.35141779E+03
  0.42000  0.16608132E+01  0.35051099E+03  0.35051099E+03
  0.43000  0.16311039E+01  0.34954389E+03  0.34954389E+03
  0.44000  0.16006173E+01  0.34851702E+03  0.34851702E+03
  0.45000  0.15694423E+01  0.34743102E+03  0.34743102E+03
  0.46000  0.15376710E+01  0.34628669E+03  0.34628669E+03
  0.47000  0.15053968E+01  0.34508496E+03  0.34508496E+03
  0.48000  0.14727146E+01  0.34382689E+03  0.34382689E+03
  0.49000  0.14397191E+01  0.34251363E+03  0.34251363E+03
  0.50000  0.14065044E+01  0.34114646E+03  0.34114646E+03
 ==============================================================
 
 Results:
 
  Voltage, Current(A) =   0.00000000E+00  0.00000000E+00
 
 ==============================================================
