
                           ************************       
                           *  WELCOME TO TBTRANS  *       
                           ************************       

reinit: Reading from standard input
************************** Dump of input data file ****************************
SystemName  bulk_au_111
SystemLabel bulk_au_111
==================================================
==================================================
# SPECIES AND BASIS
# Number of species
NumberOfSpecies 1
%block ChemicalSpeciesLabel
  1  79 Au
%endblock ChemicalSpeciesLabel
PAO.BasisSize    SZP
PAO.EnergyShift  0.005 Ry
==================================================
==================================================
# K-points
%block kgrid_Monkhorst_Pack
8   0   0   0.0
0   8   0   0.0
0   0   60  0.5
%endblock kgrid_Monkhorst_Pack
==================================================
==================================================
# UNIT CELL AND ATOMIC POSITIONS
# UNIT CELL
LatticeConstant       2.92311 Ang
%block LatticeVectors
1.000000000   0.00000000000   0.0000000000
0.500000000   0.86602540378   0.0000000000
0.000000000   0.00000000000   2.4494897428
%endblock LatticeVectors
# Atomic coordinates
NumberOfAtoms 3
AtomicCoordinatesFormat ScaledCartesian
%block AtomicCoordinatesAndAtomicSpecies
       0.000000000       0.000000000       0.000000000    1
       0.500000000       0.288675135       0.816496581    1
       0.500000000      -0.288675135       1.632993162    1
%endblock AtomicCoordinatesAndAtomicSpecies
%block SuperCell
1 0 0
0 1 0
0 0 3
%endblock SuperCell
==================================================
==================================================
# General variables
ElectronicTemperature  100 K
MeshCutoff           350. Ry
xc.functional         LDA           # Exchange-correlation functional
xc.authors            CA
SpinPolarized .false.
SolutionMethod Transiesta
==================================================
==================================================
# SCF variables
DM.MixSCF1   T
MaxSCFIterations      300           # Maximum number of SCF iter
DM.MixingWeight       0.03          # New DM amount for next SCF cycle
DM.Tolerance          1.d-4         # Tolerance in maximum difference
DM.UseSaveDM          true          # to use continuation files
DM.NumberPulay         5
Diag.DivideAndConquer  no
Diag.ParallelOverK     yes
==================================================
==================================================
# MD variables
MD.FinalTimeStep 1
MD.TypeOfRun CG
MD.NumCGsteps     000
MD.UseSaveXV      .true.
==================================================
==================================================
# Output variables
WriteMullikenPop                1
WriteBands                      .false.
SaveRho                         .false.
SaveDeltaRho                    .false.
SaveHS                          .false.
SaveElectrostaticPotential      True
SaveTotalPotential              no
WriteCoorXmol                   .true.
WriteMDXmol                     .true.
WriteMDhistory                  .false.
WriteEigenvalues                yes
==================================================
==================================================
# Transiesta information
# GF OPTIONS
TS.ComplexContour.Emin    -30.0 eV
TS.ComplexContour.NPoles       03
TS.ComplexContour.NCircle      30
TS.ComplexContour.NLine        10
# BIAS OPTIONS
TS.biasContour.NumPoints       00
# TS OPTIONS
TS.Voltage 0.000000 eV
# TBT OPTIONS
TS.TBT.Emin -0.5 eV
TS.TBT.Emax +0.5 eV
TS.TBT.NPoints 100
TS.TBT.NEigen 3
TS.TBT.Eta        0.000001 Ry
# Write hamiltonian
TS.SaveHS   .true.
# LEFT ELECTRODE
TS.HSFileLeft  ./elec_au_111_abc.TSHS
TS.ReplicateA1Left    1
TS.ReplicateA2Left    1
TS.NumUsedAtomsLeft   03
TS.BufferAtomsLeft    0
# RIGHT ELECTRODE
TS.HSFileRight  ./elec_au_111_abc.TSHS
TS.ReplicateA1Right   1
TS.ReplicateA2Right   1
TS.NumUsedAtomsRight  03
TS.BufferAtomsRight   0
==================================================
==================================================
************************** End of input data file *****************************

reinit: -----------------------------------------------------------------------
reinit: System Name: bulk_au_111
reinit: -----------------------------------------------------------------------
reinit: System Label: bulk_au_111                                                 
reinit: -----------------------------------------------------------------------
tbtrans: Voltage                         =     0.0000
Emin,Emax =      -0.499999      0.499999
Energy points in tbtrans =        100
tbtrans: Spin-polarized =  F
 contour:  Simple Line Contour:
 contour:     -0.03675      0.00000      0.000742404     0.000000000   1
 contour:     -0.03601      0.00000      0.000742404     0.000000000   2
 contour:     -0.03526      0.00000      0.000742404     0.000000000   3
 contour:     -0.03452      0.00000      0.000742404     0.000000000   4
 contour:     -0.03378      0.00000      0.000742404     0.000000000   5
 contour:     -0.03304      0.00000      0.000742404     0.000000000   6
 contour:     -0.03229      0.00000      0.000742404     0.000000000   7
 contour:     -0.03155      0.00000      0.000742404     0.000000000   8
 contour:     -0.03081      0.00000      0.000742404     0.000000000   9
 contour:     -0.03007      0.00000      0.000742404     0.000000000  10
 contour:     -0.02932      0.00000      0.000742404     0.000000000  11
 contour:     -0.02858      0.00000      0.000742404     0.000000000  12
 contour:     -0.02784      0.00000      0.000742404     0.000000000  13
 contour:     -0.02710      0.00000      0.000742404     0.000000000  14
 contour:     -0.02636      0.00000      0.000742404     0.000000000  15
 contour:     -0.02561      0.00000      0.000742404     0.000000000  16
 contour:     -0.02487      0.00000      0.000742404     0.000000000  17
 contour:     -0.02413      0.00000      0.000742404     0.000000000  18
 contour:     -0.02339      0.00000      0.000742404     0.000000000  19
 contour:     -0.02264      0.00000      0.000742404     0.000000000  20
 contour:     -0.02190      0.00000      0.000742404     0.000000000  21
 contour:     -0.02116      0.00000      0.000742404     0.000000000  22
 contour:     -0.02042      0.00000      0.000742404     0.000000000  23
 contour:     -0.01967      0.00000      0.000742404     0.000000000  24
 contour:     -0.01893      0.00000      0.000742404     0.000000000  25
 contour:     -0.01819      0.00000      0.000742404     0.000000000  26
 contour:     -0.01745      0.00000      0.000742404     0.000000000  27
 contour:     -0.01670      0.00000      0.000742404     0.000000000  28
 contour:     -0.01596      0.00000      0.000742404     0.000000000  29
 contour:     -0.01522      0.00000      0.000742404     0.000000000  30
 contour:     -0.01448      0.00000      0.000742404     0.000000000  31
 contour:     -0.01373      0.00000      0.000742404     0.000000000  32
 contour:     -0.01299      0.00000      0.000742404     0.000000000  33
 contour:     -0.01225      0.00000      0.000742404     0.000000000  34
 contour:     -0.01151      0.00000      0.000742404     0.000000000  35
 contour:     -0.01076      0.00000      0.000742404     0.000000000  36
 contour:     -0.01002      0.00000      0.000742404     0.000000000  37
 contour:     -0.00928      0.00000      0.000742404     0.000000000  38
 contour:     -0.00854      0.00000      0.000742404     0.000000000  39
 contour:     -0.00780      0.00000      0.000742404     0.000000000  40
 contour:     -0.00705      0.00000      0.000742404     0.000000000  41
 contour:     -0.00631      0.00000      0.000742404     0.000000000  42
 contour:     -0.00557      0.00000      0.000742404     0.000000000  43
 contour:     -0.00483      0.00000      0.000742404     0.000000000  44
 contour:     -0.00408      0.00000      0.000742404     0.000000000  45
 contour:     -0.00334      0.00000      0.000742404     0.000000000  46
 contour:     -0.00260      0.00000      0.000742404     0.000000000  47
 contour:     -0.00186      0.00000      0.000742404     0.000000000  48
 contour:     -0.00111      0.00000      0.000742404     0.000000000  49
 contour:     -0.00037      0.00000      0.000742404     0.000000000  50
 contour:      0.00037      0.00000      0.000742404     0.000000000  51
 contour:      0.00111      0.00000      0.000742404     0.000000000  52
 contour:      0.00186      0.00000      0.000742404     0.000000000  53
 contour:      0.00260      0.00000      0.000742404     0.000000000  54
 contour:      0.00334      0.00000      0.000742404     0.000000000  55
 contour:      0.00408      0.00000      0.000742404     0.000000000  56
 contour:      0.00483      0.00000      0.000742404     0.000000000  57
 contour:      0.00557      0.00000      0.000742404     0.000000000  58
 contour:      0.00631      0.00000      0.000742404     0.000000000  59
 contour:      0.00705      0.00000      0.000742404     0.000000000  60
 contour:      0.00780      0.00000      0.000742404     0.000000000  61
 contour:      0.00854      0.00000      0.000742404     0.000000000  62
 contour:      0.00928      0.00000      0.000742404     0.000000000  63
 contour:      0.01002      0.00000      0.000742404     0.000000000  64
 contour:      0.01076      0.00000      0.000742404     0.000000000  65
 contour:      0.01151      0.00000      0.000742404     0.000000000  66
 contour:      0.01225      0.00000      0.000742404     0.000000000  67
 contour:      0.01299      0.00000      0.000742404     0.000000000  68
 contour:      0.01373      0.00000      0.000742404     0.000000000  69
 contour:      0.01448      0.00000      0.000742404     0.000000000  70
 contour:      0.01522      0.00000      0.000742404     0.000000000  71
 contour:      0.01596      0.00000      0.000742404     0.000000000  72
 contour:      0.01670      0.00000      0.000742404     0.000000000  73
 contour:      0.01745      0.00000      0.000742404     0.000000000  74
 contour:      0.01819      0.00000      0.000742404     0.000000000  75
 contour:      0.01893      0.00000      0.000742404     0.000000000  76
 contour:      0.01967      0.00000      0.000742404     0.000000000  77
 contour:      0.02042      0.00000      0.000742404     0.000000000  78
 contour:      0.02116      0.00000      0.000742404     0.000000000  79
 contour:      0.02190      0.00000      0.000742404     0.000000000  80
 contour:      0.02264      0.00000      0.000742404     0.000000000  81
 contour:      0.02339      0.00000      0.000742404     0.000000000  82
 contour:      0.02413      0.00000      0.000742404     0.000000000  83
 contour:      0.02487      0.00000      0.000742404     0.000000000  84
 contour:      0.02561      0.00000      0.000742404     0.000000000  85
 contour:      0.02636      0.00000      0.000742404     0.000000000  86
 contour:      0.02710      0.00000      0.000742404     0.000000000  87
 contour:      0.02784      0.00000      0.000742404     0.000000000  88
 contour:      0.02858      0.00000      0.000742404     0.000000000  89
 contour:      0.02932      0.00000      0.000742404     0.000000000  90
 contour:      0.03007      0.00000      0.000742404     0.000000000  91
 contour:      0.03081      0.00000      0.000742404     0.000000000  92
 contour:      0.03155      0.00000      0.000742404     0.000000000  93
 contour:      0.03229      0.00000      0.000742404     0.000000000  94
 contour:      0.03304      0.00000      0.000742404     0.000000000  95
 contour:      0.03378      0.00000      0.000742404     0.000000000  96
 contour:      0.03452      0.00000      0.000742404     0.000000000  97
 contour:      0.03526      0.00000      0.000742404     0.000000000  98
 contour:      0.03601      0.00000      0.000742404     0.000000000  99
 contour:      0.03675      0.00000      0.000742404     0.000000000 100
 
************************************************************************
 K-Points On Nodes:
 
 Node  Numb. K Pts.  Tot. K Pts. 
  0       10           40
  1       10           40
  2       10           40
  3       10           40
------------------------------------------------------------------------
 K-Points Coordinates and Weights (Node,kx,ky,kz,wk),:
 
        0    -0.42655     0.24627     0.00000     0.01563
        0    -0.28436     0.16418     0.00000     0.01563
        0    -0.14218     0.08209     0.00000     0.01563
        0     0.00000     0.00000     0.00000     0.01563
        0     0.14218    -0.08209     0.00000     0.01563
        0     0.28436    -0.16418     0.00000     0.01563
        0     0.42655    -0.24627     0.00000     0.01563
        0     0.56873    -0.32836     0.00000     0.01563
        0    -0.42655     0.41045     0.00000     0.03125
        0    -0.28436     0.32836     0.00000     0.03125
        1    -0.14218     0.24627     0.00000     0.03125
        1     0.00000     0.16418     0.00000     0.03125
        1     0.14218     0.08209     0.00000     0.03125
        1     0.28436     0.00000     0.00000     0.03125
        1     0.42655    -0.08209     0.00000     0.03125
        1     0.56873    -0.16418     0.00000     0.03125
        1    -0.42655     0.57462     0.00000     0.03125
        1    -0.28436     0.49253     0.00000     0.03125
        1    -0.14218     0.41045     0.00000     0.03125
        1     0.00000     0.32836     0.00000     0.03125
        2     0.14218     0.24627     0.00000     0.03125
        2     0.28436     0.16418     0.00000     0.03125
        2     0.42655     0.08209     0.00000     0.03125
        2     0.56873     0.00000     0.00000     0.03125
        2    -0.42655     0.73880     0.00000     0.03125
        2    -0.28436     0.65671     0.00000     0.03125
        2    -0.14218     0.57462     0.00000     0.03125
        2     0.00000     0.49253     0.00000     0.03125
        2     0.14218     0.41045     0.00000     0.03125
        2     0.28436     0.32836     0.00000     0.03125
        3     0.42655     0.24627     0.00000     0.03125
        3     0.56873     0.16418     0.00000     0.03125
        3    -0.42655     0.90298     0.00000     0.01563
        3    -0.28436     0.82089     0.00000     0.01563
        3    -0.14218     0.73880     0.00000     0.01563
        3     0.00000     0.65671     0.00000     0.01563
        3     0.14218     0.57462     0.00000     0.01563
        3     0.28436     0.49253     0.00000     0.01563
        3     0.42655     0.41045     0.00000     0.01563
        3     0.56873     0.32836     0.00000     0.01563
************************************************************************
 
 unit cell:
  5.5239  0.0000  0.0000
  2.7619  4.7838  0.0000
  0.0000  0.0000 13.5307
 unit cell:
  5.5239  0.0000  0.0000
  2.7619  4.7838  0.0000
  0.0000  0.0000 13.5307
 ==============================================================
  Projection Region: atoms : [  4;  6 ]
  Projection Region: states: [  1; 27 ] ; 27
 
  Starting K-Point loop for spin:   1
 
 Transport for spin ->  1  , kxy-point ->   1, of Node     0
           kxy=(-.427 0.246 0.000 ),w= 0.0156
    E           T(E)            TotDOS         PDOS
 -0.50000  0.10000000E+01  0.81383677E+01  0.56234467E+01
 -0.48990  0.10000000E+01  0.81378918E+01  0.56220779E+01
 -0.47980  0.10000000E+01  0.81374759E+01  0.56207692E+01
 -0.46970  0.10000000E+01  0.81371196E+01  0.56195206E+01
 -0.45960  0.10000000E+01  0.81368221E+01  0.56183323E+01
 -0.44949  0.10000000E+01  0.81365831E+01  0.56172042E+01
 -0.43939  0.10000000E+01  0.81364020E+01  0.56161364E+01
 -0.42929  0.10000000E+01  0.81362782E+01  0.56151289E+01
 -0.41919  0.10000000E+01  0.81362114E+01  0.56141818E+01
 -0.40909  0.10000000E+01  0.81362011E+01  0.56132952E+01
 -0.39899  0.10000000E+01  0.81362467E+01  0.56124692E+01
 -0.38889  0.10000000E+01  0.81363479E+01  0.56117038E+01
 -0.37879  0.10000000E+01  0.81365042E+01  0.56109991E+01
 -0.36869  0.10000000E+01  0.81367152E+01  0.56103553E+01
 -0.35859  0.10000000E+01  0.81369806E+01  0.56097724E+01
 -0.34848  0.10000000E+01  0.81372998E+01  0.56092505E+01
 -0.33838  0.10000000E+01  0.81376726E+01  0.56087898E+01
 -0.32828  0.10000000E+01  0.81380986E+01  0.56083905E+01
 -0.31818  0.10000000E+01  0.81385775E+01  0.56080526E+01
 -0.30808  0.10000000E+01  0.81391088E+01  0.56077763E+01
 -0.29798  0.10000000E+01  0.81396922E+01  0.56075618E+01
 -0.28788  0.10000000E+01  0.81403275E+01  0.56074092E+01
 -0.27778  0.10000000E+01  0.81410142E+01  0.56073186E+01
 -0.26768  0.10000000E+01  0.81417522E+01  0.56072903E+01
 -0.25758  0.10000000E+01  0.81425411E+01  0.56073244E+01
 -0.24747  0.10000000E+01  0.81433805E+01  0.56074212E+01
 -0.23737  0.10000000E+01  0.81442703E+01  0.56075807E+01
 -0.22727  0.10000000E+01  0.81452102E+01  0.56078033E+01
 -0.21717  0.10000000E+01  0.81461998E+01  0.56080890E+01
 -0.20707  0.10000000E+01  0.81472390E+01  0.56084382E+01
 -0.19697  0.10000000E+01  0.81483274E+01  0.56088510E+01
 -0.18687  0.10000000E+01  0.81494649E+01  0.56093276E+01
 -0.17677  0.10000000E+01  0.81506512E+01  0.56098683E+01
 -0.16667  0.10000000E+01  0.81518861E+01  0.56104734E+01
 -0.15657  0.10000000E+01  0.81531693E+01  0.56111430E+01
 -0.14646  0.10000000E+01  0.81545007E+01  0.56118774E+01
 -0.13636  0.10000000E+01  0.81558800E+01  0.56126768E+01
 -0.12626  0.10000000E+01  0.81573070E+01  0.56135415E+01
 -0.11616  0.10000000E+01  0.81587816E+01  0.56144719E+01
 -0.10606  0.10000000E+01  0.81603035E+01  0.56154680E+01
 -0.09596  0.10000000E+01  0.81618725E+01  0.56165303E+01
 -0.08586  0.10000000E+01  0.81634885E+01  0.56176590E+01
 -0.07576  0.10000000E+01  0.81651514E+01  0.56188543E+01
 -0.06566  0.10000000E+01  0.81668608E+01  0.56201166E+01
 -0.05556  0.10000000E+01  0.81686167E+01  0.56214462E+01
 -0.04545  0.10000000E+01  0.81704189E+01  0.56228433E+01
 -0.03535  0.10000000E+01  0.81722672E+01  0.56243083E+01
 -0.02525  0.10000000E+01  0.81741616E+01  0.56258414E+01
 -0.01515  0.10000000E+01  0.81761017E+01  0.56274431E+01
 -0.00505  0.10000000E+01  0.81780876E+01  0.56291136E+01
  0.00505  0.99999999E+00  0.81801190E+01  0.56308532E+01
  0.01515  0.99999999E+00  0.81821959E+01  0.56326623E+01
  0.02525  0.99999999E+00  0.81843180E+01  0.56345412E+01
  0.03535  0.99999999E+00  0.81864853E+01  0.56364902E+01
  0.04545  0.99999999E+00  0.81886977E+01  0.56385098E+01
  0.05556  0.99999999E+00  0.81909549E+01  0.56406002E+01
  0.06566  0.99999999E+00  0.81932570E+01  0.56427618E+01
  0.07576  0.99999999E+00  0.81956037E+01  0.56449950E+01
  0.08586  0.99999999E+00  0.81979950E+01  0.56473001E+01
  0.09596  0.99999999E+00  0.82004308E+01  0.56496775E+01
  0.10606  0.99999999E+00  0.82029109E+01  0.56521276E+01
  0.11616  0.99999999E+00  0.82054353E+01  0.56546508E+01
  0.12626  0.99999999E+00  0.82080039E+01  0.56572474E+01
  0.13636  0.99999999E+00  0.82106165E+01  0.56599178E+01
  0.14646  0.99999999E+00  0.82132730E+01  0.56626625E+01
  0.15657  0.99999999E+00  0.82159735E+01  0.56654818E+01
  0.16667  0.99999999E+00  0.82187177E+01  0.56683762E+01
  0.17677  0.99999999E+00  0.82215056E+01  0.56713460E+01
  0.18687  0.99999999E+00  0.82243371E+01  0.56743916E+01
  0.19697  0.99999999E+00  0.82272121E+01  0.56775135E+01
  0.20707  0.99999999E+00  0.82301305E+01  0.56807122E+01
  0.21717  0.99999999E+00  0.82330923E+01  0.56839879E+01
  0.22727  0.99999999E+00  0.82360974E+01  0.56873412E+01
  0.23737  0.99999999E+00  0.82391457E+01  0.56907725E+01
  0.24747  0.99999999E+00  0.82422371E+01  0.56942822E+01
  0.25758  0.99999999E+00  0.82453716E+01  0.56978708E+01
  0.26768  0.99999999E+00  0.82485490E+01  0.57015387E+01
  0.27778  0.99999999E+00  0.82517693E+01  0.57052863E+01
  0.28788  0.99999999E+00  0.82550325E+01  0.57091142E+01
  0.29798  0.99999999E+00  0.82583384E+01  0.57130228E+01
  0.30808  0.99999999E+00  0.82616870E+01  0.57170126E+01
  0.31818  0.99999999E+00  0.82650783E+01  0.57210839E+01
  0.32828  0.99999999E+00  0.82685121E+01  0.57252374E+01
  0.33838  0.99999998E+00  0.82719884E+01  0.57294734E+01
  0.34848  0.99999998E+00  0.82755071E+01  0.57337924E+01
  0.35859  0.99999998E+00  0.82790682E+01  0.57381950E+01
  0.36869  0.99999998E+00  0.82826716E+01  0.57426816E+01
  0.37879  0.99999998E+00  0.82863172E+01  0.57472528E+01
  0.38889  0.99999998E+00  0.82900050E+01  0.57519089E+01
  0.39899  0.99999998E+00  0.82937350E+01  0.57566505E+01
  0.40909  0.99999998E+00  0.82975070E+01  0.57614782E+01
  0.41919  0.99999998E+00  0.83013209E+01  0.57663923E+01
  0.42929  0.99999998E+00  0.83051768E+01  0.57713935E+01
  0.43939  0.99999998E+00  0.83090746E+01  0.57764822E+01
  0.44949  0.99999998E+00  0.83130142E+01  0.57816589E+01
  0.45960  0.99999998E+00  0.83169955E+01  0.57869243E+01
  0.46970  0.99999998E+00  0.83210185E+01  0.57922787E+01
  0.47980  0.99999998E+00  0.83250831E+01  0.57977227E+01
  0.48990  0.99999998E+00  0.83291893E+01  0.58032569E+01
  0.50000  0.99999998E+00  0.83333370E+01  0.58088818E+01
 Transport for spin ->  1  , kxy-point ->   2, of Node     0
           kxy=(-.284 0.164 0.000 ),w= 0.0156
    E           T(E)            TotDOS         PDOS
 -0.50000  0.99999994E+00  0.10780955E+02  0.13460212E+02
 -0.48990  0.99999994E+00  0.10773208E+02  0.13464689E+02
 -0.47980  0.99999994E+00  0.10765416E+02  0.13469066E+02
 -0.46970  0.99999994E+00  0.10757577E+02  0.13473341E+02
 -0.45960  0.99999993E+00  0.10749691E+02  0.13477511E+02
 -0.44949  0.99999993E+00  0.10741755E+02  0.13481572E+02
 -0.43939  0.99999993E+00  0.10733770E+02  0.13485521E+02
 -0.42929  0.99999993E+00  0.10725734E+02  0.13489357E+02
 -0.41919  0.99999993E+00  0.10717646E+02  0.13493075E+02
 -0.40909  0.99999993E+00  0.10709506E+02  0.13496674E+02
 -0.39899  0.99999993E+00  0.10701313E+02  0.13500150E+02
 -0.38889  0.99999993E+00  0.10693066E+02  0.13503501E+02
 -0.37879  0.99999993E+00  0.10684765E+02  0.13506725E+02
 -0.36869  0.99999993E+00  0.10676410E+02  0.13509819E+02
 -0.35859  0.99999993E+00  0.10668000E+02  0.13512781E+02
 -0.34848  0.99999992E+00  0.10659534E+02  0.13515609E+02
 -0.33838  0.99999992E+00  0.10651013E+02  0.13518300E+02
 -0.32828  0.99999992E+00  0.10642435E+02  0.13520852E+02
 -0.31818  0.99999992E+00  0.10633802E+02  0.13523263E+02
 -0.30808  0.99999992E+00  0.10625112E+02  0.13525531E+02
 -0.29798  0.99999992E+00  0.10616365E+02  0.13527654E+02
 -0.28788  0.99999992E+00  0.10607562E+02  0.13529631E+02
 -0.27778  0.99999992E+00  0.10598702E+02  0.13531458E+02
 -0.26768  0.99999992E+00  0.10589785E+02  0.13533136E+02
 -0.25758  0.99999992E+00  0.10580811E+02  0.13534662E+02
 -0.24747  0.99999992E+00  0.10571781E+02  0.13536034E+02
 -0.23737  0.99999991E+00  0.10562694E+02  0.13537250E+02
 -0.22727  0.99999991E+00  0.10553550E+02  0.13538311E+02
 -0.21717  0.99999991E+00  0.10544350E+02  0.13539213E+02
 -0.20707  0.99999991E+00  0.10535094E+02  0.13539956E+02
 -0.19697  0.99999991E+00  0.10525781E+02  0.13540539E+02
 -0.18687  0.99999991E+00  0.10516414E+02  0.13540960E+02
 -0.17677  0.99999991E+00  0.10506990E+02  0.13541219E+02
 -0.16667  0.99999991E+00  0.10497512E+02  0.13541314E+02
 -0.15657  0.99999991E+00  0.10487979E+02  0.13541244E+02
 -0.14646  0.99999991E+00  0.10478393E+02  0.13541008E+02
 -0.13636  0.99999991E+00  0.10468752E+02  0.13540606E+02
 -0.12626  0.99999991E+00  0.10459058E+02  0.13540038E+02
 -0.11616  0.99999991E+00  0.10449311E+02  0.13539301E+02
 -0.10606  0.99999990E+00  0.10439512E+02  0.13538397E+02
 -0.09596  0.99999990E+00  0.10429662E+02  0.13537324E+02
 -0.08586  0.99999990E+00  0.10419761E+02  0.13536081E+02
 -0.07576  0.99999990E+00  0.10409809E+02  0.13534669E+02
 -0.06566  0.99999990E+00  0.10399808E+02  0.13533088E+02
 -0.05556  0.99999990E+00  0.10389758E+02  0.13531336E+02
 -0.04545  0.99999990E+00  0.10379659E+02  0.13529414E+02
 -0.03535  0.99999990E+00  0.10369514E+02  0.13527322E+02
 -0.02525  0.99999990E+00  0.10359321E+02  0.13525060E+02
 -0.01515  0.99999990E+00  0.10349083E+02  0.13522628E+02
 -0.00505  0.99999990E+00  0.10338800E+02  0.13520026E+02
  0.00505  0.99999990E+00  0.10328472E+02  0.13517254E+02
  0.01515  0.99999990E+00  0.10318102E+02  0.13514313E+02
  0.02525  0.99999990E+00  0.10307689E+02  0.13511202E+02
  0.03535  0.99999990E+00  0.10297235E+02  0.13507923E+02
  0.04545  0.99999990E+00  0.10286740E+02  0.13504476E+02
  0.05556  0.99999989E+00  0.10276206E+02  0.13500860E+02
  0.06566  0.99999989E+00  0.10265634E+02  0.13497078E+02
  0.07576  0.99999989E+00  0.10255024E+02  0.13493129E+02
  0.08586  0.99999989E+00  0.10244378E+02  0.13489014E+02
  0.09596  0.99999989E+00  0.10233696E+02  0.13484734E+02
  0.10606  0.99999989E+00  0.10222980E+02  0.13480290E+02
  0.11616  0.99999989E+00  0.10212231E+02  0.13475683E+02
  0.12626  0.99999989E+00  0.10201450E+02  0.13470913E+02
  0.13636  0.99999989E+00  0.10190638E+02  0.13465982E+02
  0.14646  0.99999989E+00  0.10179795E+02  0.13460890E+02
  0.15657  0.99999989E+00  0.10168924E+02  0.13455639E+02
  0.16667  0.99999989E+00  0.10158026E+02  0.13450230E+02
  0.17677  0.99999989E+00  0.10147101E+02  0.13444664E+02
  0.18687  0.99999989E+00  0.10136151E+02  0.13438943E+02
  0.19697  0.99999989E+00  0.10125176E+02  0.13433066E+02
  0.20707  0.99999989E+00  0.10114179E+02  0.13427037E+02
  0.21717  0.99999989E+00  0.10103160E+02  0.13420856E+02
  0.22727  0.99999989E+00  0.10092120E+02  0.13414525E+02
  0.23737  0.99999989E+00  0.10081061E+02  0.13408044E+02
  0.24747  0.99999989E+00  0.10069984E+02  0.13401416E+02
  0.25758  0.99999989E+00  0.10058890E+02  0.13394643E+02
  0.26768  0.99999989E+00  0.10047781E+02  0.13387725E+02
  0.27778  0.99999989E+00  0.10036656E+02  0.13380664E+02
  0.28788  0.99999989E+00  0.10025519E+02  0.13373462E+02
  0.29798  0.99999989E+00  0.10014369E+02  0.13366120E+02
  0.30808  0.99999989E+00  0.10003208E+02  0.13358641E+02
  0.31818  0.99999989E+00  0.99920382E+01  0.13351026E+02
  0.32828  0.99999989E+00  0.99808596E+01  0.13343276E+02
  0.33838  0.99999989E+00  0.99696738E+01  0.13335394E+02
  0.34848  0.99999989E+00  0.99584820E+01  0.13327382E+02
  0.35859  0.99999989E+00  0.99472855E+01  0.13319240E+02
  0.36869  0.99999989E+00  0.99360853E+01  0.13310971E+02
  0.37879  0.99999989E+00  0.99248829E+01  0.13302577E+02
  0.38889  0.99999989E+00  0.99136793E+01  0.13294060E+02
  0.39899  0.99999989E+00  0.99024757E+01  0.13285421E+02
  0.40909  0.99999989E+00  0.98912734E+01  0.13276663E+02
  0.41919  0.99999989E+00  0.98800735E+01  0.13267787E+02
  0.42929  0.99999989E+00  0.98688773E+01  0.13258795E+02
  0.43939  0.99999989E+00  0.98576858E+01  0.13249690E+02
  0.44949  0.99999989E+00  0.98465003E+01  0.13240473E+02
  0.45960  0.99999989E+00  0.98353219E+01  0.13231147E+02
  0.46970  0.99999989E+00  0.98241519E+01  0.13221713E+02
  0.47980  0.99999989E+00  0.98129912E+01  0.13212173E+02
  0.48990  0.99999989E+00  0.98018411E+01  0.13202529E+02
  0.50000  0.99999989E+00  0.97907028E+01  0.13192784E+02
 Transport for spin ->  1  , kxy-point ->   3, of Node     0
           kxy=(-.142 0.082 0.000 ),w= 0.0156
    E           T(E)            TotDOS         PDOS
 -0.50000  0.99999996E+00  0.93602189E+01  0.11993212E+02
 -0.48990  0.99999996E+00  0.93344670E+01  0.11961787E+02
 -0.47980  0.99999996E+00  0.93089557E+01  0.11930621E+02
 -0.46970  0.99999996E+00  0.92836844E+01  0.11899713E+02
 -0.45960  0.99999996E+00  0.92586520E+01  0.11869063E+02
 -0.44949  0.99999996E+00  0.92338576E+01  0.11838672E+02
 -0.43939  0.99999996E+00  0.92093003E+01  0.11808540E+02
 -0.42929  0.99999996E+00  0.91849791E+01  0.11778666E+02
 -0.41919  0.99999996E+00  0.91608931E+01  0.11749052E+02
 -0.40909  0.99999996E+00  0.91370413E+01  0.11719697E+02
 -0.39899  0.99999996E+00  0.91134228E+01  0.11690602E+02
 -0.38889  0.99999996E+00  0.90900365E+01  0.11661765E+02
 -0.37879  0.99999996E+00  0.90668816E+01  0.11633188E+02
 -0.36869  0.99999996E+00  0.90439571E+01  0.11604871E+02
 -0.35859  0.99999996E+00  0.90212619E+01  0.11576813E+02
 -0.34848  0.99999996E+00  0.89987951E+01  0.11549015E+02
 -0.33838  0.99999996E+00  0.89765559E+01  0.11521476E+02
 -0.32828  0.99999996E+00  0.89545431E+01  0.11494196E+02
 -0.31818  0.99999997E+00  0.89327560E+01  0.11467176E+02
 -0.30808  0.99999997E+00  0.89111936E+01  0.11440415E+02
 -0.29798  0.99999997E+00  0.88898549E+01  0.11413914E+02
 -0.28788  0.99999997E+00  0.88687391E+01  0.11387672E+02
 -0.27778  0.99999997E+00  0.88478454E+01  0.11361690E+02
 -0.26768  0.99999997E+00  0.88271729E+01  0.11335968E+02
 -0.25758  0.99999997E+00  0.88067206E+01  0.11310504E+02
 -0.24747  0.99999997E+00  0.87864880E+01  0.11285301E+02
 -0.23737  0.99999997E+00  0.87664740E+01  0.11260357E+02
 -0.22727  0.99999997E+00  0.87466781E+01  0.11235673E+02
 -0.21717  0.99999997E+00  0.87270994E+01  0.11211249E+02
 -0.20707  0.99999997E+00  0.87077373E+01  0.11187085E+02
 -0.19697  0.99999997E+00  0.86885911E+01  0.11163181E+02
 -0.18687  0.99999997E+00  0.86696602E+01  0.11139538E+02
 -0.17677  0.99999997E+00  0.86509439E+01  0.11116155E+02
 -0.16667  0.99999997E+00  0.86324418E+01  0.11093034E+02
 -0.15657  0.99999998E+00  0.86141532E+01  0.11070173E+02
 -0.14646  0.99999998E+00  0.85960777E+01  0.11047575E+02
 -0.13636  0.99999998E+00  0.85782149E+01  0.11025238E+02
 -0.12626  0.99999998E+00  0.85605643E+01  0.11003164E+02
 -0.11616  0.99999998E+00  0.85431257E+01  0.10981353E+02
 -0.10606  0.99999998E+00  0.85258987E+01  0.10959805E+02
 -0.09596  0.99999998E+00  0.85088830E+01  0.10938522E+02
 -0.08586  0.99999998E+00  0.84920785E+01  0.10917504E+02
 -0.07576  0.99999998E+00  0.84754851E+01  0.10896751E+02
 -0.06566  0.99999998E+00  0.84591026E+01  0.10876265E+02
 -0.05556  0.99999998E+00  0.84429310E+01  0.10856046E+02
 -0.04545  0.99999998E+00  0.84269704E+01  0.10836096E+02
 -0.03535  0.99999998E+00  0.84112208E+01  0.10816415E+02
 -0.02525  0.99999998E+00  0.83956825E+01  0.10797005E+02
 -0.01515  0.99999998E+00  0.83803557E+01  0.10777866E+02
 -0.00505  0.99999998E+00  0.83652407E+01  0.10759000E+02
  0.00505  0.99999998E+00  0.83503379E+01  0.10740409E+02
  0.01515  0.99999998E+00  0.83356477E+01  0.10722094E+02
  0.02525  0.99999999E+00  0.83211707E+01  0.10704057E+02
  0.03535  0.99999999E+00  0.83069076E+01  0.10686298E+02
  0.04545  0.99999999E+00  0.82928591E+01  0.10668821E+02
  0.05556  0.99999999E+00  0.82790259E+01  0.10651627E+02
  0.06566  0.99999999E+00  0.82654091E+01  0.10634718E+02
  0.07576  0.99999999E+00  0.82520096E+01  0.10618096E+02
  0.08586  0.99999999E+00  0.82388286E+01  0.10601765E+02
  0.09596  0.99999999E+00  0.82258672E+01  0.10585725E+02
  0.10606  0.99999999E+00  0.82131269E+01  0.10569980E+02
  0.11616  0.99999999E+00  0.82006090E+01  0.10554533E+02
  0.12626  0.99999999E+00  0.81883153E+01  0.10539387E+02
  0.13636  0.99999999E+00  0.81762473E+01  0.10524544E+02
  0.14646  0.99999999E+00  0.81644070E+01  0.10510008E+02
  0.15657  0.99999999E+00  0.81527964E+01  0.10495783E+02
  0.16667  0.99999999E+00  0.81414175E+01  0.10481873E+02
  0.17677  0.99999999E+00  0.81302727E+01  0.10468280E+02
  0.18687  0.99999999E+00  0.81193645E+01  0.10455010E+02
  0.19697  0.99999999E+00  0.81086955E+01  0.10442067E+02
  0.20707  0.99999999E+00  0.80982685E+01  0.10429455E+02
  0.21717  0.99999999E+00  0.80880864E+01  0.10417179E+02
  0.22727  0.99999999E+00  0.80781525E+01  0.10405244E+02
  0.23737  0.99999999E+00  0.80684701E+01  0.10393656E+02
  0.24747  0.99999999E+00  0.80590429E+01  0.10382421E+02
  0.25758  0.10000000E+01  0.80498747E+01  0.10371544E+02
  0.26768  0.10000000E+01  0.80409696E+01  0.10361032E+02
  0.27778  0.10000000E+01  0.80323318E+01  0.10350891E+02
  0.28788  0.10000000E+01  0.80239660E+01  0.10341129E+02
  0.29798  0.10000000E+01  0.80158770E+01  0.10331753E+02
  0.30808  0.10000000E+01  0.80080700E+01  0.10322770E+02
  0.31818  0.10000000E+01  0.80005503E+01  0.10314189E+02
  0.32828  0.10000000E+01  0.79933239E+01  0.10306019E+02
  0.33838  0.10000000E+01  0.79863967E+01  0.10298268E+02
  0.34848  0.10000000E+01  0.79797754E+01  0.10290947E+02
  0.35859  0.10000000E+01  0.79734666E+01  0.10284066E+02
  0.36869  0.10000000E+01  0.79674778E+01  0.10277635E+02
  0.37879  0.10000000E+01  0.79618165E+01  0.10271665E+02
  0.38889  0.10000000E+01  0.79564910E+01  0.10266169E+02
  0.39899  0.10000000E+01  0.79515099E+01  0.10261160E+02
  0.40909  0.10000000E+01  0.79468823E+01  0.10256649E+02
  0.41919  0.10000000E+01  0.79426178E+01  0.10252652E+02
  0.42929  0.10000000E+01  0.79387267E+01  0.10249184E+02
  0.43939  0.10000000E+01  0.79352200E+01  0.10246260E+02
  0.44949  0.10000000E+01  0.79321090E+01  0.10243896E+02
  0.45960  0.10000000E+01  0.79294060E+01  0.10242111E+02
  0.46970  0.10000000E+01  0.79271240E+01  0.10240922E+02
  0.47980  0.10000000E+01  0.79252767E+01  0.10240350E+02
  0.48990  0.10000000E+01  0.79238787E+01  0.10240416E+02
  0.50000  0.10000000E+01  0.79229455E+01  0.10241140E+02
 Transport for spin ->  1  , kxy-point ->   4, of Node     0
           kxy=(0.000 0.000 0.000 ),w= 0.0156
    E           T(E)            TotDOS         PDOS
 -0.50000  0.15426642E-06  0.12457866E-01  0.12457866E-01
 -0.48990  0.52233072E-07  0.56988368E-02  0.56988368E-02
 -0.47980  0.25383514E-07  0.34082873E-02  0.34082873E-02
 -0.46970  0.14745863E-07  0.23267391E-02  0.23267391E-02
 -0.45960  0.95344220E-08  0.17196081E-02  0.17196081E-02
 -0.44949  0.66225358E-08  0.13401915E-02  0.13401915E-02
 -0.43939  0.48425126E-08  0.10850367E-02  0.10850367E-02
 -0.42929  0.36807390E-08  0.90403260E-03  0.90403260E-03
 -0.41919  0.28836598E-08  0.77029901E-03  0.77029901E-03
 -0.40909  0.23148364E-08  0.66827431E-03  0.66827431E-03
 -0.39899  0.18957637E-08  0.58839857E-03  0.58839857E-03
 -0.38889  0.15787816E-08  0.52451289E-03  0.52451289E-03
 -0.37879  0.13336542E-08  0.47249167E-03  0.47249167E-03
 -0.36869  0.11404820E-08  0.42947984E-03  0.42947984E-03
 -0.35859  0.98575304E-09  0.39344622E-03  0.39344622E-03
 -0.34848  0.86004380E-09  0.36291103E-03  0.36291103E-03
 -0.33838  0.75662698E-09  0.33677372E-03  0.33677372E-03
 -0.32828  0.67060101E-09  0.31420089E-03  0.31420089E-03
 -0.31818  0.59832940E-09  0.29455117E-03  0.29455117E-03
 -0.30808  0.53707043E-09  0.27732397E-03  0.27732397E-03
 -0.29798  0.48472690E-09  0.26212349E-03  0.26212349E-03
 -0.28788  0.43967358E-09  0.24863321E-03  0.24863321E-03
 -0.27778  0.40063602E-09  0.23659731E-03  0.23659731E-03
 -0.26768  0.36660400E-09  0.22580706E-03  0.22580706E-03
 -0.25758  0.33676887E-09  0.21609068E-03  0.21609068E-03
 -0.24747  0.31047742E-09  0.20730566E-03  0.20730566E-03
 -0.23737  0.28719756E-09  0.19933289E-03  0.19933289E-03
 -0.22727  0.26649256E-09  0.19207215E-03  0.19207215E-03
 -0.21717  0.24800135E-09  0.18543856E-03  0.18543856E-03
 -0.20707  0.23142342E-09  0.17935983E-03  0.17935983E-03
 -0.19697  0.21650715E-09  0.17377407E-03  0.17377407E-03
 -0.18687  0.20304056E-09  0.16862796E-03  0.16862796E-03
 -0.17677  0.19084416E-09  0.16387542E-03  0.16387542E-03
 -0.16667  0.17976515E-09  0.15947639E-03  0.15947639E-03
 -0.15657  0.16967284E-09  0.15539594E-03  0.15539594E-03
 -0.14646  0.16045495E-09  0.15160345E-03  0.15160345E-03
 -0.13636  0.15201461E-09  0.14807200E-03  0.14807200E-03
 -0.12626  0.14426786E-09  0.14477784E-03  0.14477784E-03
 -0.11616  0.13714174E-09  0.14169996E-03  0.14169996E-03
 -0.10606  0.13057251E-09  0.13881966E-03  0.13881966E-03
 -0.09596  0.12450439E-09  0.13612031E-03  0.13612031E-03
 -0.08586  0.11888835E-09  0.13358705E-03  0.13358705E-03
 -0.07576  0.11368116E-09  0.13120655E-03  0.13120655E-03
 -0.06566  0.10884463E-09  0.12896686E-03  0.12896686E-03
 -0.05556  0.10434488E-09  0.12685720E-03  0.12685720E-03
 -0.04545  0.10015180E-09  0.12486785E-03  0.12486785E-03
 -0.03535  0.96238554E-10  0.12299002E-03  0.12299002E-03
 -0.02525  0.92581157E-10  0.12121572E-03  0.12121572E-03
 -0.01515  0.89158136E-10  0.11953772E-03  0.11953772E-03
 -0.00505  0.85950212E-10  0.11794942E-03  0.11794942E-03
  0.00505  0.82940040E-10  0.11644481E-03  0.11644481E-03
  0.01515  0.80111986E-10  0.11501840E-03  0.11501840E-03
  0.02525  0.77451923E-10  0.11366514E-03  0.11366514E-03
  0.03535  0.74947069E-10  0.11238043E-03  0.11238043E-03
  0.04545  0.72585831E-10  0.11116004E-03  0.11116004E-03
  0.05556  0.70357677E-10  0.11000007E-03  0.11000007E-03
  0.06566  0.68253025E-10  0.10889694E-03  0.10889694E-03
  0.07576  0.66263138E-10  0.10784732E-03  0.10784732E-03
  0.08586  0.64380042E-10  0.10684817E-03  0.10684817E-03
  0.09596  0.62596442E-10  0.10589665E-03  0.10589665E-03
  0.10606  0.60905660E-10  0.10499014E-03  0.10499014E-03
  0.11616  0.59301570E-10  0.10412622E-03  0.10412622E-03
  0.12626  0.57778545E-10  0.10330263E-03  0.10330263E-03
  0.13636  0.56331411E-10  0.10251727E-03  0.10251727E-03
  0.14646  0.54955402E-10  0.10176819E-03  0.10176819E-03
  0.15657  0.53646126E-10  0.10105357E-03  0.10105357E-03
  0.16667  0.52399525E-10  0.10037171E-03  0.10037171E-03
  0.17677  0.51211850E-10  0.99721039E-04  0.99721039E-04
  0.18687  0.50079630E-10  0.99100065E-04  0.99100065E-04
  0.19697  0.48999651E-10  0.98507408E-04  0.98507408E-04
  0.20707  0.47968931E-10  0.97941773E-04  0.97941773E-04
  0.21717  0.46984702E-10  0.97401944E-04  0.97401944E-04
  0.22727  0.46044392E-10  0.96886784E-04  0.96886784E-04
  0.23737  0.45145607E-10  0.96395223E-04  0.96395223E-04
  0.24747  0.44286117E-10  0.95926256E-04  0.95926256E-04
  0.25758  0.43463846E-10  0.95478940E-04  0.95478940E-04
  0.26768  0.42676855E-10  0.95052387E-04  0.95052387E-04
  0.27778  0.41923335E-10  0.94645760E-04  0.94645760E-04
  0.28788  0.41201593E-10  0.94258271E-04  0.94258271E-04
  0.29798  0.40510048E-10  0.93889177E-04  0.93889177E-04
  0.30808  0.39847219E-10  0.93537779E-04  0.93537779E-04
  0.31818  0.39211718E-10  0.93203414E-04  0.93203414E-04
  0.32828  0.38602246E-10  0.92885458E-04  0.92885458E-04
  0.33838  0.38017580E-10  0.92583321E-04  0.92583321E-04
  0.34848  0.37456577E-10  0.92296444E-04  0.92296444E-04
  0.35859  0.36918158E-10  0.92024299E-04  0.92024299E-04
  0.36869  0.36401312E-10  0.91766388E-04  0.91766388E-04
  0.37879  0.35905087E-10  0.91522235E-04  0.91522235E-04
  0.38889  0.35428586E-10  0.91291394E-04  0.91291394E-04
  0.39899  0.34970966E-10  0.91073440E-04  0.91073440E-04
  0.40909  0.34531429E-10  0.90867969E-04  0.90867969E-04
  0.41919  0.34109227E-10  0.90674600E-04  0.90674600E-04
  0.42929  0.33703652E-10  0.90492970E-04  0.90492970E-04
  0.43939  0.33314034E-10  0.90322736E-04  0.90322736E-04
  0.44949  0.32939742E-10  0.90163571E-04  0.90163571E-04
  0.45960  0.32580181E-10  0.90015165E-04  0.90015165E-04
  0.46970  0.32234787E-10  0.89877223E-04  0.89877223E-04
  0.47980  0.31903026E-10  0.89749466E-04  0.89749466E-04
  0.48990  0.31584394E-10  0.89631629E-04  0.89631629E-04
  0.50000  0.31278414E-10  0.89523458E-04  0.89523458E-04
 Transport for spin ->  1  , kxy-point ->   5, of Node     0
           kxy=(0.142 -.082 0.000 ),w= 0.0156
    E           T(E)            TotDOS         PDOS
 -0.50000  0.99999996E+00  0.93602189E+01  0.11993212E+02
 -0.48990  0.99999996E+00  0.93344670E+01  0.11961787E+02
 -0.47980  0.99999996E+00  0.93089557E+01  0.11930621E+02
 -0.46970  0.99999996E+00  0.92836844E+01  0.11899713E+02
 -0.45960  0.99999996E+00  0.92586520E+01  0.11869063E+02
 -0.44949  0.99999996E+00  0.92338576E+01  0.11838672E+02
 -0.43939  0.99999996E+00  0.92093003E+01  0.11808540E+02
 -0.42929  0.99999996E+00  0.91849791E+01  0.11778666E+02
 -0.41919  0.99999996E+00  0.91608931E+01  0.11749052E+02
 -0.40909  0.99999996E+00  0.91370413E+01  0.11719697E+02
 -0.39899  0.99999996E+00  0.91134228E+01  0.11690602E+02
 -0.38889  0.99999996E+00  0.90900365E+01  0.11661765E+02
 -0.37879  0.99999996E+00  0.90668816E+01  0.11633188E+02
 -0.36869  0.99999996E+00  0.90439571E+01  0.11604871E+02
 -0.35859  0.99999996E+00  0.90212619E+01  0.11576813E+02
 -0.34848  0.99999996E+00  0.89987951E+01  0.11549015E+02
 -0.33838  0.99999996E+00  0.89765559E+01  0.11521476E+02
 -0.32828  0.99999996E+00  0.89545431E+01  0.11494196E+02
 -0.31818  0.99999997E+00  0.89327560E+01  0.11467176E+02
 -0.30808  0.99999997E+00  0.89111936E+01  0.11440415E+02
 -0.29798  0.99999997E+00  0.88898549E+01  0.11413914E+02
 -0.28788  0.99999997E+00  0.88687391E+01  0.11387672E+02
 -0.27778  0.99999997E+00  0.88478454E+01  0.11361690E+02
 -0.26768  0.99999997E+00  0.88271729E+01  0.11335968E+02
 -0.25758  0.99999997E+00  0.88067206E+01  0.11310504E+02
 -0.24747  0.99999997E+00  0.87864880E+01  0.11285301E+02
 -0.23737  0.99999997E+00  0.87664740E+01  0.11260357E+02
 -0.22727  0.99999997E+00  0.87466781E+01  0.11235673E+02
 -0.21717  0.99999997E+00  0.87270994E+01  0.11211249E+02
 -0.20707  0.99999997E+00  0.87077373E+01  0.11187085E+02
 -0.19697  0.99999997E+00  0.86885911E+01  0.11163181E+02
 -0.18687  0.99999997E+00  0.86696602E+01  0.11139538E+02
 -0.17677  0.99999997E+00  0.86509439E+01  0.11116155E+02
 -0.16667  0.99999997E+00  0.86324418E+01  0.11093034E+02
 -0.15657  0.99999998E+00  0.86141532E+01  0.11070173E+02
 -0.14646  0.99999998E+00  0.85960777E+01  0.11047575E+02
 -0.13636  0.99999998E+00  0.85782149E+01  0.11025238E+02
 -0.12626  0.99999998E+00  0.85605643E+01  0.11003164E+02
 -0.11616  0.99999998E+00  0.85431257E+01  0.10981353E+02
 -0.10606  0.99999998E+00  0.85258987E+01  0.10959805E+02
 -0.09596  0.99999998E+00  0.85088830E+01  0.10938522E+02
 -0.08586  0.99999998E+00  0.84920785E+01  0.10917504E+02
 -0.07576  0.99999998E+00  0.84754851E+01  0.10896751E+02
 -0.06566  0.99999998E+00  0.84591026E+01  0.10876265E+02
 -0.05556  0.99999998E+00  0.84429310E+01  0.10856046E+02
 -0.04545  0.99999998E+00  0.84269704E+01  0.10836096E+02
 -0.03535  0.99999998E+00  0.84112208E+01  0.10816415E+02
 -0.02525  0.99999998E+00  0.83956825E+01  0.10797005E+02
 -0.01515  0.99999998E+00  0.83803557E+01  0.10777866E+02
 -0.00505  0.99999998E+00  0.83652407E+01  0.10759000E+02
  0.00505  0.99999998E+00  0.83503379E+01  0.10740409E+02
  0.01515  0.99999998E+00  0.83356477E+01  0.10722094E+02
  0.02525  0.99999999E+00  0.83211707E+01  0.10704057E+02
  0.03535  0.99999999E+00  0.83069076E+01  0.10686298E+02
  0.04545  0.99999999E+00  0.82928591E+01  0.10668821E+02
  0.05556  0.99999999E+00  0.82790259E+01  0.10651627E+02
  0.06566  0.99999999E+00  0.82654091E+01  0.10634718E+02
  0.07576  0.99999999E+00  0.82520096E+01  0.10618096E+02
  0.08586  0.99999999E+00  0.82388286E+01  0.10601765E+02
  0.09596  0.99999999E+00  0.82258672E+01  0.10585725E+02
  0.10606  0.99999999E+00  0.82131269E+01  0.10569980E+02
  0.11616  0.99999999E+00  0.82006090E+01  0.10554533E+02
  0.12626  0.99999999E+00  0.81883153E+01  0.10539387E+02
  0.13636  0.99999999E+00  0.81762473E+01  0.10524544E+02
  0.14646  0.99999999E+00  0.81644070E+01  0.10510008E+02
  0.15657  0.99999999E+00  0.81527964E+01  0.10495783E+02
  0.16667  0.99999999E+00  0.81414175E+01  0.10481873E+02
  0.17677  0.99999999E+00  0.81302727E+01  0.10468280E+02
  0.18687  0.99999999E+00  0.81193645E+01  0.10455010E+02
  0.19697  0.99999999E+00  0.81086955E+01  0.10442067E+02
  0.20707  0.99999999E+00  0.80982685E+01  0.10429455E+02
  0.21717  0.99999999E+00  0.80880864E+01  0.10417179E+02
  0.22727  0.99999999E+00  0.80781525E+01  0.10405244E+02
  0.23737  0.99999999E+00  0.80684701E+01  0.10393656E+02
  0.24747  0.99999999E+00  0.80590429E+01  0.10382421E+02
  0.25758  0.10000000E+01  0.80498747E+01  0.10371544E+02
  0.26768  0.10000000E+01  0.80409696E+01  0.10361032E+02
  0.27778  0.10000000E+01  0.80323318E+01  0.10350891E+02
  0.28788  0.10000000E+01  0.80239660E+01  0.10341129E+02
  0.29798  0.10000000E+01  0.80158770E+01  0.10331753E+02
  0.30808  0.10000000E+01  0.80080700E+01  0.10322770E+02
  0.31818  0.10000000E+01  0.80005503E+01  0.10314189E+02
  0.32828  0.10000000E+01  0.79933239E+01  0.10306019E+02
  0.33838  0.10000000E+01  0.79863967E+01  0.10298268E+02
  0.34848  0.10000000E+01  0.79797754E+01  0.10290947E+02
  0.35859  0.10000000E+01  0.79734666E+01  0.10284066E+02
  0.36869  0.10000000E+01  0.79674778E+01  0.10277635E+02
  0.37879  0.10000000E+01  0.79618165E+01  0.10271665E+02
  0.38889  0.10000000E+01  0.79564910E+01  0.10266169E+02
  0.39899  0.10000000E+01  0.79515099E+01  0.10261160E+02
  0.40909  0.10000000E+01  0.79468823E+01  0.10256649E+02
  0.41919  0.10000000E+01  0.79426178E+01  0.10252652E+02
  0.42929  0.10000000E+01  0.79387267E+01  0.10249184E+02
  0.43939  0.10000000E+01  0.79352200E+01  0.10246260E+02
  0.44949  0.10000000E+01  0.79321090E+01  0.10243896E+02
  0.45960  0.10000000E+01  0.79294060E+01  0.10242111E+02
  0.46970  0.10000000E+01  0.79271240E+01  0.10240922E+02
  0.47980  0.10000000E+01  0.79252767E+01  0.10240350E+02
  0.48990  0.10000000E+01  0.79238787E+01  0.10240416E+02
  0.50000  0.10000000E+01  0.79229455E+01  0.10241140E+02
 Transport for spin ->  1  , kxy-point ->   6, of Node     0
           kxy=(0.284 -.164 0.000 ),w= 0.0156
    E           T(E)            TotDOS         PDOS
 -0.50000  0.99999994E+00  0.10780955E+02  0.13460212E+02
 -0.48990  0.99999994E+00  0.10773208E+02  0.13464689E+02
 -0.47980  0.99999994E+00  0.10765416E+02  0.13469066E+02
 -0.46970  0.99999994E+00  0.10757577E+02  0.13473341E+02
 -0.45960  0.99999993E+00  0.10749691E+02  0.13477511E+02
 -0.44949  0.99999993E+00  0.10741755E+02  0.13481572E+02
 -0.43939  0.99999993E+00  0.10733770E+02  0.13485521E+02
 -0.42929  0.99999993E+00  0.10725734E+02  0.13489357E+02
 -0.41919  0.99999993E+00  0.10717646E+02  0.13493075E+02
 -0.40909  0.99999993E+00  0.10709506E+02  0.13496674E+02
 -0.39899  0.99999993E+00  0.10701313E+02  0.13500150E+02
 -0.38889  0.99999993E+00  0.10693066E+02  0.13503501E+02
 -0.37879  0.99999993E+00  0.10684765E+02  0.13506725E+02
 -0.36869  0.99999993E+00  0.10676410E+02  0.13509819E+02
 -0.35859  0.99999993E+00  0.10668000E+02  0.13512781E+02
 -0.34848  0.99999992E+00  0.10659534E+02  0.13515609E+02
 -0.33838  0.99999992E+00  0.10651013E+02  0.13518300E+02
 -0.32828  0.99999992E+00  0.10642435E+02  0.13520852E+02
 -0.31818  0.99999992E+00  0.10633802E+02  0.13523263E+02
 -0.30808  0.99999992E+00  0.10625112E+02  0.13525531E+02
 -0.29798  0.99999992E+00  0.10616365E+02  0.13527654E+02
 -0.28788  0.99999992E+00  0.10607562E+02  0.13529631E+02
 -0.27778  0.99999992E+00  0.10598702E+02  0.13531458E+02
 -0.26768  0.99999992E+00  0.10589785E+02  0.13533136E+02
 -0.25758  0.99999992E+00  0.10580811E+02  0.13534662E+02
 -0.24747  0.99999992E+00  0.10571781E+02  0.13536034E+02
 -0.23737  0.99999991E+00  0.10562694E+02  0.13537250E+02
 -0.22727  0.99999991E+00  0.10553550E+02  0.13538311E+02
 -0.21717  0.99999991E+00  0.10544350E+02  0.13539213E+02
 -0.20707  0.99999991E+00  0.10535094E+02  0.13539956E+02
 -0.19697  0.99999991E+00  0.10525781E+02  0.13540539E+02
 -0.18687  0.99999991E+00  0.10516414E+02  0.13540960E+02
 -0.17677  0.99999991E+00  0.10506990E+02  0.13541219E+02
 -0.16667  0.99999991E+00  0.10497512E+02  0.13541314E+02
 -0.15657  0.99999991E+00  0.10487979E+02  0.13541244E+02
 -0.14646  0.99999991E+00  0.10478393E+02  0.13541008E+02
 -0.13636  0.99999991E+00  0.10468752E+02  0.13540606E+02
 -0.12626  0.99999991E+00  0.10459058E+02  0.13540038E+02
 -0.11616  0.99999991E+00  0.10449311E+02  0.13539301E+02
 -0.10606  0.99999990E+00  0.10439512E+02  0.13538397E+02
 -0.09596  0.99999990E+00  0.10429662E+02  0.13537324E+02
 -0.08586  0.99999990E+00  0.10419761E+02  0.13536081E+02
 -0.07576  0.99999990E+00  0.10409809E+02  0.13534669E+02
 -0.06566  0.99999990E+00  0.10399808E+02  0.13533088E+02
 -0.05556  0.99999990E+00  0.10389758E+02  0.13531336E+02
 -0.04545  0.99999990E+00  0.10379659E+02  0.13529414E+02
 -0.03535  0.99999990E+00  0.10369514E+02  0.13527322E+02
 -0.02525  0.99999990E+00  0.10359321E+02  0.13525060E+02
 -0.01515  0.99999990E+00  0.10349083E+02  0.13522628E+02
 -0.00505  0.99999990E+00  0.10338800E+02  0.13520026E+02
  0.00505  0.99999990E+00  0.10328472E+02  0.13517254E+02
  0.01515  0.99999990E+00  0.10318102E+02  0.13514313E+02
  0.02525  0.99999990E+00  0.10307689E+02  0.13511202E+02
  0.03535  0.99999990E+00  0.10297235E+02  0.13507923E+02
  0.04545  0.99999990E+00  0.10286740E+02  0.13504476E+02
  0.05556  0.99999989E+00  0.10276206E+02  0.13500860E+02
  0.06566  0.99999989E+00  0.10265634E+02  0.13497078E+02
  0.07576  0.99999989E+00  0.10255024E+02  0.13493129E+02
  0.08586  0.99999989E+00  0.10244378E+02  0.13489014E+02
  0.09596  0.99999989E+00  0.10233696E+02  0.13484734E+02
  0.10606  0.99999989E+00  0.10222980E+02  0.13480290E+02
  0.11616  0.99999989E+00  0.10212231E+02  0.13475683E+02
  0.12626  0.99999989E+00  0.10201450E+02  0.13470913E+02
  0.13636  0.99999989E+00  0.10190638E+02  0.13465982E+02
  0.14646  0.99999989E+00  0.10179795E+02  0.13460890E+02
  0.15657  0.99999989E+00  0.10168924E+02  0.13455639E+02
  0.16667  0.99999989E+00  0.10158026E+02  0.13450230E+02
  0.17677  0.99999989E+00  0.10147101E+02  0.13444664E+02
  0.18687  0.99999989E+00  0.10136151E+02  0.13438943E+02
  0.19697  0.99999989E+00  0.10125176E+02  0.13433066E+02
  0.20707  0.99999989E+00  0.10114179E+02  0.13427037E+02
  0.21717  0.99999989E+00  0.10103160E+02  0.13420856E+02
  0.22727  0.99999989E+00  0.10092120E+02  0.13414525E+02
  0.23737  0.99999989E+00  0.10081061E+02  0.13408044E+02
  0.24747  0.99999989E+00  0.10069984E+02  0.13401416E+02
  0.25758  0.99999989E+00  0.10058890E+02  0.13394643E+02
  0.26768  0.99999989E+00  0.10047781E+02  0.13387725E+02
  0.27778  0.99999989E+00  0.10036656E+02  0.13380664E+02
  0.28788  0.99999989E+00  0.10025519E+02  0.13373462E+02
  0.29798  0.99999989E+00  0.10014369E+02  0.13366120E+02
  0.30808  0.99999989E+00  0.10003208E+02  0.13358641E+02
  0.31818  0.99999989E+00  0.99920382E+01  0.13351026E+02
  0.32828  0.99999989E+00  0.99808596E+01  0.13343276E+02
  0.33838  0.99999989E+00  0.99696738E+01  0.13335394E+02
  0.34848  0.99999989E+00  0.99584820E+01  0.13327382E+02
  0.35859  0.99999989E+00  0.99472855E+01  0.13319240E+02
  0.36869  0.99999989E+00  0.99360853E+01  0.13310971E+02
  0.37879  0.99999989E+00  0.99248829E+01  0.13302577E+02
  0.38889  0.99999989E+00  0.99136793E+01  0.13294060E+02
  0.39899  0.99999989E+00  0.99024757E+01  0.13285421E+02
  0.40909  0.99999989E+00  0.98912734E+01  0.13276663E+02
  0.41919  0.99999989E+00  0.98800735E+01  0.13267787E+02
  0.42929  0.99999989E+00  0.98688773E+01  0.13258795E+02
  0.43939  0.99999989E+00  0.98576858E+01  0.13249690E+02
  0.44949  0.99999989E+00  0.98465003E+01  0.13240473E+02
  0.45960  0.99999989E+00  0.98353219E+01  0.13231147E+02
  0.46970  0.99999989E+00  0.98241519E+01  0.13221713E+02
  0.47980  0.99999989E+00  0.98129912E+01  0.13212173E+02
  0.48990  0.99999989E+00  0.98018411E+01  0.13202529E+02
  0.50000  0.99999989E+00  0.97907028E+01  0.13192784E+02
 Transport for spin ->  1  , kxy-point ->   7, of Node     0
           kxy=(0.427 -.246 0.000 ),w= 0.0156
    E           T(E)            TotDOS         PDOS
 -0.50000  0.10000000E+01  0.81383677E+01  0.56234467E+01
 -0.48990  0.10000000E+01  0.81378918E+01  0.56220779E+01
 -0.47980  0.10000000E+01  0.81374759E+01  0.56207692E+01
 -0.46970  0.10000000E+01  0.81371196E+01  0.56195206E+01
 -0.45960  0.10000000E+01  0.81368221E+01  0.56183323E+01
 -0.44949  0.10000000E+01  0.81365831E+01  0.56172042E+01
 -0.43939  0.10000000E+01  0.81364020E+01  0.56161364E+01
 -0.42929  0.10000000E+01  0.81362782E+01  0.56151289E+01
 -0.41919  0.10000000E+01  0.81362114E+01  0.56141818E+01
 -0.40909  0.10000000E+01  0.81362011E+01  0.56132952E+01
 -0.39899  0.10000000E+01  0.81362467E+01  0.56124692E+01
 -0.38889  0.10000000E+01  0.81363479E+01  0.56117038E+01
 -0.37879  0.10000000E+01  0.81365042E+01  0.56109991E+01
 -0.36869  0.10000000E+01  0.81367152E+01  0.56103553E+01
 -0.35859  0.10000000E+01  0.81369806E+01  0.56097724E+01
 -0.34848  0.10000000E+01  0.81372998E+01  0.56092505E+01
 -0.33838  0.10000000E+01  0.81376726E+01  0.56087898E+01
 -0.32828  0.10000000E+01  0.81380986E+01  0.56083905E+01
 -0.31818  0.10000000E+01  0.81385775E+01  0.56080526E+01
 -0.30808  0.10000000E+01  0.81391088E+01  0.56077763E+01
 -0.29798  0.10000000E+01  0.81396922E+01  0.56075618E+01
 -0.28788  0.10000000E+01  0.81403275E+01  0.56074092E+01
 -0.27778  0.10000000E+01  0.81410142E+01  0.56073186E+01
 -0.26768  0.10000000E+01  0.81417522E+01  0.56072903E+01
 -0.25758  0.10000000E+01  0.81425411E+01  0.56073244E+01
 -0.24747  0.10000000E+01  0.81433805E+01  0.56074212E+01
 -0.23737  0.10000000E+01  0.81442703E+01  0.56075807E+01
 -0.22727  0.10000000E+01  0.81452102E+01  0.56078033E+01
 -0.21717  0.10000000E+01  0.81461998E+01  0.56080890E+01
 -0.20707  0.10000000E+01  0.81472390E+01  0.56084382E+01
 -0.19697  0.10000000E+01  0.81483274E+01  0.56088510E+01
 -0.18687  0.10000000E+01  0.81494649E+01  0.56093276E+01
 -0.17677  0.10000000E+01  0.81506512E+01  0.56098683E+01
 -0.16667  0.10000000E+01  0.81518861E+01  0.56104734E+01
 -0.15657  0.10000000E+01  0.81531693E+01  0.56111430E+01
 -0.14646  0.10000000E+01  0.81545007E+01  0.56118774E+01
 -0.13636  0.10000000E+01  0.81558800E+01  0.56126768E+01
 -0.12626  0.10000000E+01  0.81573070E+01  0.56135415E+01
 -0.11616  0.10000000E+01  0.81587816E+01  0.56144719E+01
 -0.10606  0.10000000E+01  0.81603035E+01  0.56154680E+01
 -0.09596  0.10000000E+01  0.81618725E+01  0.56165303E+01
 -0.08586  0.10000000E+01  0.81634885E+01  0.56176590E+01
 -0.07576  0.10000000E+01  0.81651514E+01  0.56188543E+01
 -0.06566  0.10000000E+01  0.81668608E+01  0.56201166E+01
 -0.05556  0.10000000E+01  0.81686167E+01  0.56214462E+01
 -0.04545  0.10000000E+01  0.81704189E+01  0.56228433E+01
 -0.03535  0.10000000E+01  0.81722672E+01  0.56243083E+01
 -0.02525  0.10000000E+01  0.81741616E+01  0.56258414E+01
 -0.01515  0.10000000E+01  0.81761017E+01  0.56274431E+01
 -0.00505  0.10000000E+01  0.81780876E+01  0.56291136E+01
  0.00505  0.99999999E+00  0.81801190E+01  0.56308532E+01
  0.01515  0.99999999E+00  0.81821959E+01  0.56326623E+01
  0.02525  0.99999999E+00  0.81843180E+01  0.56345412E+01
  0.03535  0.99999999E+00  0.81864853E+01  0.56364902E+01
  0.04545  0.99999999E+00  0.81886977E+01  0.56385098E+01
  0.05556  0.99999999E+00  0.81909549E+01  0.56406002E+01
  0.06566  0.99999999E+00  0.81932570E+01  0.56427618E+01
  0.07576  0.99999999E+00  0.81956037E+01  0.56449950E+01
  0.08586  0.99999999E+00  0.81979950E+01  0.56473001E+01
  0.09596  0.99999999E+00  0.82004308E+01  0.56496775E+01
  0.10606  0.99999999E+00  0.82029109E+01  0.56521276E+01
  0.11616  0.99999999E+00  0.82054353E+01  0.56546508E+01
  0.12626  0.99999999E+00  0.82080039E+01  0.56572474E+01
  0.13636  0.99999999E+00  0.82106165E+01  0.56599178E+01
  0.14646  0.99999999E+00  0.82132730E+01  0.56626625E+01
  0.15657  0.99999999E+00  0.82159735E+01  0.56654818E+01
  0.16667  0.99999999E+00  0.82187177E+01  0.56683762E+01
  0.17677  0.99999999E+00  0.82215056E+01  0.56713460E+01
  0.18687  0.99999999E+00  0.82243371E+01  0.56743916E+01
  0.19697  0.99999999E+00  0.82272121E+01  0.56775135E+01
  0.20707  0.99999999E+00  0.82301305E+01  0.56807122E+01
  0.21717  0.99999999E+00  0.82330923E+01  0.56839879E+01
  0.22727  0.99999999E+00  0.82360974E+01  0.56873412E+01
  0.23737  0.99999999E+00  0.82391457E+01  0.56907725E+01
  0.24747  0.99999999E+00  0.82422371E+01  0.56942822E+01
  0.25758  0.99999999E+00  0.82453716E+01  0.56978708E+01
  0.26768  0.99999999E+00  0.82485490E+01  0.57015387E+01
  0.27778  0.99999999E+00  0.82517693E+01  0.57052863E+01
  0.28788  0.99999999E+00  0.82550325E+01  0.57091142E+01
  0.29798  0.99999999E+00  0.82583384E+01  0.57130228E+01
  0.30808  0.99999999E+00  0.82616870E+01  0.57170126E+01
  0.31818  0.99999999E+00  0.82650783E+01  0.57210839E+01
  0.32828  0.99999999E+00  0.82685121E+01  0.57252374E+01
  0.33838  0.99999998E+00  0.82719884E+01  0.57294734E+01
  0.34848  0.99999998E+00  0.82755071E+01  0.57337924E+01
  0.35859  0.99999998E+00  0.82790682E+01  0.57381950E+01
  0.36869  0.99999998E+00  0.82826716E+01  0.57426816E+01
  0.37879  0.99999998E+00  0.82863172E+01  0.57472528E+01
  0.38889  0.99999998E+00  0.82900050E+01  0.57519089E+01
  0.39899  0.99999998E+00  0.82937350E+01  0.57566505E+01
  0.40909  0.99999998E+00  0.82975070E+01  0.57614782E+01
  0.41919  0.99999998E+00  0.83013209E+01  0.57663923E+01
  0.42929  0.99999998E+00  0.83051768E+01  0.57713935E+01
  0.43939  0.99999998E+00  0.83090746E+01  0.57764822E+01
  0.44949  0.99999998E+00  0.83130142E+01  0.57816589E+01
  0.45960  0.99999998E+00  0.83169955E+01  0.57869243E+01
  0.46970  0.99999998E+00  0.83210185E+01  0.57922787E+01
  0.47980  0.99999998E+00  0.83250831E+01  0.57977227E+01
  0.48990  0.99999998E+00  0.83291893E+01  0.58032569E+01
  0.50000  0.99999998E+00  0.83333370E+01  0.58088818E+01
 Transport for spin ->  1  , kxy-point ->   8, of Node     0
           kxy=(0.569 -.328 0.000 ),w= 0.0156
    E           T(E)            TotDOS         PDOS
 -0.50000  0.99997739E+00  0.65907031E+02  0.65907031E+02
 -0.48990  0.99998925E+00  0.43310745E+02  0.43310745E+02
 -0.47980  0.99999292E+00  0.34948675E+02  0.34948675E+02
 -0.46970  0.99999473E+00  0.30315430E+02  0.30315430E+02
 -0.45960  0.99999581E+00  0.27295595E+02  0.27295595E+02
 -0.44949  0.99999653E+00  0.25143008E+02  0.25143008E+02
 -0.43939  0.99999704E+00  0.23518697E+02  0.23518697E+02
 -0.42929  0.99999743E+00  0.22243743E+02  0.22243743E+02
 -0.41919  0.99999773E+00  0.21213713E+02  0.21213713E+02
 -0.40909  0.99999798E+00  0.20363069E+02  0.20363069E+02
 -0.39899  0.99999817E+00  0.19648359E+02  0.19648359E+02
 -0.38889  0.99999834E+00  0.19039506E+02  0.19039506E+02
 -0.37879  0.99999848E+00  0.18514955E+02  0.18514955E+02
 -0.36869  0.99999860E+00  0.18058811E+02  0.18058811E+02
 -0.35859  0.99999871E+00  0.17659066E+02  0.17659066E+02
 -0.34848  0.99999880E+00  0.17306465E+02  0.17306465E+02
 -0.33838  0.99999888E+00  0.16993745E+02  0.16993745E+02
 -0.32828  0.99999895E+00  0.16715122E+02  0.16715122E+02
 -0.31818  0.99999902E+00  0.16465924E+02  0.16465924E+02
 -0.30808  0.99999908E+00  0.16242337E+02  0.16242337E+02
 -0.29798  0.99999913E+00  0.16041210E+02  0.16041210E+02
 -0.28788  0.99999918E+00  0.15859919E+02  0.15859919E+02
 -0.27778  0.99999923E+00  0.15696259E+02  0.15696259E+02
 -0.26768  0.99999927E+00  0.15548360E+02  0.15548360E+02
 -0.25758  0.99999931E+00  0.15414631E+02  0.15414631E+02
 -0.24747  0.99999934E+00  0.15293704E+02  0.15293704E+02
 -0.23737  0.99999937E+00  0.15184402E+02  0.15184402E+02
 -0.22727  0.99999940E+00  0.15085702E+02  0.15085702E+02
 -0.21717  0.99999943E+00  0.14996712E+02  0.14996712E+02
 -0.20707  0.99999946E+00  0.14916654E+02  0.14916654E+02
 -0.19697  0.99999948E+00  0.14844841E+02  0.14844841E+02
 -0.18687  0.99999951E+00  0.14780671E+02  0.14780671E+02
 -0.17677  0.99999953E+00  0.14723609E+02  0.14723609E+02
 -0.16667  0.99999955E+00  0.14673182E+02  0.14673182E+02
 -0.15657  0.99999957E+00  0.14628969E+02  0.14628969E+02
 -0.14646  0.99999959E+00  0.14590594E+02  0.14590594E+02
 -0.13636  0.99999960E+00  0.14557722E+02  0.14557722E+02
 -0.12626  0.99999962E+00  0.14530055E+02  0.14530055E+02
 -0.11616  0.99999964E+00  0.14507323E+02  0.14507323E+02
 -0.10606  0.99999965E+00  0.14489286E+02  0.14489286E+02
 -0.09596  0.99999967E+00  0.14475729E+02  0.14475729E+02
 -0.08586  0.99999968E+00  0.14466457E+02  0.14466457E+02
 -0.07576  0.99999969E+00  0.14461298E+02  0.14461298E+02
 -0.06566  0.99999971E+00  0.14460095E+02  0.14460095E+02
 -0.05556  0.99999972E+00  0.14462709E+02  0.14462709E+02
 -0.04545  0.99999973E+00  0.14469016E+02  0.14469016E+02
 -0.03535  0.99999974E+00  0.14478903E+02  0.14478903E+02
 -0.02525  0.99999975E+00  0.14492271E+02  0.14492271E+02
 -0.01515  0.99999976E+00  0.14509034E+02  0.14509034E+02
 -0.00505  0.99999977E+00  0.14529113E+02  0.14529113E+02
  0.00505  0.99999978E+00  0.14552439E+02  0.14552439E+02
  0.01515  0.99999979E+00  0.14578955E+02  0.14578955E+02
  0.02525  0.99999980E+00  0.14608609E+02  0.14608609E+02
  0.03535  0.99999981E+00  0.14641357E+02  0.14641357E+02
  0.04545  0.99999982E+00  0.14677165E+02  0.14677165E+02
  0.05556  0.99999983E+00  0.14716002E+02  0.14716002E+02
  0.06566  0.99999983E+00  0.14757846E+02  0.14757846E+02
  0.07576  0.99999984E+00  0.14802680E+02  0.14802680E+02
  0.08586  0.99999985E+00  0.14850495E+02  0.14850495E+02
  0.09596  0.99999985E+00  0.14901284E+02  0.14901284E+02
  0.10606  0.99999986E+00  0.14955048E+02  0.14955048E+02
  0.11616  0.99999987E+00  0.15011793E+02  0.15011793E+02
  0.12626  0.99999987E+00  0.15071529E+02  0.15071529E+02
  0.13636  0.99999988E+00  0.15134271E+02  0.15134271E+02
  0.14646  0.99999989E+00  0.15200041E+02  0.15200041E+02
  0.15657  0.99999989E+00  0.15268864E+02  0.15268864E+02
  0.16667  0.99999990E+00  0.15340768E+02  0.15340768E+02
  0.17677  0.99999990E+00  0.15415789E+02  0.15415789E+02
  0.18687  0.99999991E+00  0.15493967E+02  0.15493967E+02
  0.19697  0.99999991E+00  0.15575344E+02  0.15575344E+02
  0.20707  0.99999992E+00  0.15659969E+02  0.15659969E+02
  0.21717  0.99999992E+00  0.15747896E+02  0.15747896E+02
  0.22727  0.99999993E+00  0.15839182E+02  0.15839182E+02
  0.23737  0.99999993E+00  0.15933891E+02  0.15933891E+02
  0.24747  0.99999993E+00  0.16032089E+02  0.16032089E+02
  0.25758  0.99999994E+00  0.16133850E+02  0.16133850E+02
  0.26768  0.99999994E+00  0.16239251E+02  0.16239251E+02
  0.27778  0.99999995E+00  0.16348375E+02  0.16348375E+02
  0.28788  0.99999995E+00  0.16461310E+02  0.16461310E+02
  0.29798  0.99999995E+00  0.16578150E+02  0.16578150E+02
  0.30808  0.99999996E+00  0.16698994E+02  0.16698994E+02
  0.31818  0.99999996E+00  0.16823949E+02  0.16823949E+02
  0.32828  0.99999996E+00  0.16953124E+02  0.16953124E+02
  0.33838  0.99999996E+00  0.17086639E+02  0.17086639E+02
  0.34848  0.99999997E+00  0.17224616E+02  0.17224616E+02
  0.35859  0.99999997E+00  0.17367188E+02  0.17367188E+02
  0.36869  0.99999997E+00  0.17514493E+02  0.17514493E+02
  0.37879  0.99999997E+00  0.17666676E+02  0.17666676E+02
  0.38889  0.99999998E+00  0.17823890E+02  0.17823890E+02
  0.39899  0.99999998E+00  0.17986297E+02  0.17986297E+02
  0.40909  0.99999998E+00  0.18154067E+02  0.18154067E+02
  0.41919  0.99999998E+00  0.18327378E+02  0.18327378E+02
  0.42929  0.99999998E+00  0.18506419E+02  0.18506419E+02
  0.43939  0.99999998E+00  0.18691387E+02  0.18691387E+02
  0.44949  0.99999999E+00  0.18882491E+02  0.18882491E+02
  0.45960  0.99999999E+00  0.19079948E+02  0.19079948E+02
  0.46970  0.99999999E+00  0.19283988E+02  0.19283988E+02
  0.47980  0.99999999E+00  0.19494854E+02  0.19494854E+02
  0.48990  0.99999999E+00  0.19712800E+02  0.19712800E+02
  0.50000  0.99999999E+00  0.19938092E+02  0.19938092E+02
 Transport for spin ->  1  , kxy-point ->   9, of Node     0
           kxy=(-.427 0.410 0.000 ),w= 0.0313
    E           T(E)            TotDOS         PDOS
 -0.50000  0.12667920E-09  0.55010107E-03  0.49550285E-03
 -0.48990  0.15037684E-09  0.60597113E-03  0.54296518E-03
 -0.47980  0.18067223E-09  0.67282001E-03  0.59959585E-03
 -0.46970  0.22003233E-09  0.75375773E-03  0.66796260E-03
 -0.45960  0.27211630E-09  0.85309345E-03  0.75161645E-03
 -0.44949  0.34250416E-09  0.97694039E-03  0.85558557E-03
 -0.43939  0.43998205E-09  0.11342115E-02  0.98718690E-03
 -0.42929  0.57891234E-09  0.13383246E-02  0.11574147E-02
 -0.41919  0.78384006E-09  0.16102641E-02  0.13834302E-02
 -0.40909  0.10990269E-08  0.19843976E-02  0.16932861E-02
 -0.39899  0.16097629E-08  0.25203148E-02  0.21355312E-02
 -0.38889  0.24948423E-08  0.33291130E-02  0.28005076E-02
 -0.37879  0.41730658E-08  0.46387008E-02  0.38732005E-02
 -0.36869  0.77886440E-08  0.69828624E-02  0.57860627E-02
 -0.35859  0.17278406E-07  0.11885362E-01  0.97713252E-02
 -0.34848  0.52738717E-07  0.25431231E-01  0.20740748E-01
 -0.33838  0.37010311E-06  0.99498932E-01  0.80488670E-01
 -0.32828  0.99972886E+00  0.32246314E+03  0.25911473E+03
 -0.31818  0.99994532E+00  0.13507754E+03  0.10845284E+03
 -0.30808  0.99997019E+00  0.10258249E+03  0.82296528E+02
 -0.29798  0.99997998E+00  0.87484424E+02  0.70128321E+02
 -0.28788  0.99998525E+00  0.78553020E+02  0.62919177E+02
 -0.27778  0.99998856E+00  0.72628519E+02  0.58128191E+02
 -0.26768  0.99999084E+00  0.68431397E+02  0.54726219E+02
 -0.25758  0.99999250E+00  0.65332255E+02  0.52206893E+02
 -0.24747  0.99999378E+00  0.62980304E+02  0.50287901E+02
 -0.23737  0.99999479E+00  0.61161766E+02  0.48797131E+02
 -0.22727  0.99999560E+00  0.59736979E+02  0.47622086E+02
 -0.21717  0.99999628E+00  0.58609221E+02  0.46684820E+02
 -0.20707  0.99999685E+00  0.57707903E+02  0.45928425E+02
 -0.19697  0.99999733E+00  0.56978905E+02  0.45309258E+02
 -0.18687  0.99999775E+00  0.56378714E+02  0.44792247E+02
 -0.17677  0.99999811E+00  0.55870764E+02  0.44347948E+02
 -0.16667  0.99999842E+00  0.55423107E+02  0.43950689E+02
 -0.15657  0.99999869E+00  0.55006974E+02  0.43577427E+02
 -0.14646  0.99999893E+00  0.54595981E+02  0.43207120E+02
 -0.13636  0.99999913E+00  0.54165834E+02  0.42820503E+02
 -0.12626  0.99999930E+00  0.53694432E+02  0.42400180E+02
 -0.11616  0.99999945E+00  0.53162286E+02  0.41930954E+02
 -0.10606  0.99999958E+00  0.52553149E+02  0.41400332E+02
 -0.09596  0.99999968E+00  0.51854738E+02  0.40799074E+02
 -0.08586  0.99999976E+00  0.51059373E+02  0.40121685E+02
 -0.07576  0.99999983E+00  0.50164416E+02  0.39366716E+02
 -0.06566  0.99999988E+00  0.49172354E+02  0.38536795E+02
 -0.05556  0.99999992E+00  0.48090472E+02  0.37638316E+02
 -0.04545  0.99999994E+00  0.46930131E+02  0.36680825E+02
 -0.03535  0.99999996E+00  0.45705733E+02  0.35676169E+02
 -0.02525  0.99999997E+00  0.44433521E+02  0.34637519E+02
 -0.01515  0.99999997E+00  0.43130370E+02  0.33578408E+02
 -0.00505  0.99999997E+00  0.41812715E+02  0.32511888E+02
  0.00505  0.99999997E+00  0.40495709E+02  0.31449879E+02
  0.01515  0.99999996E+00  0.39192647E+02  0.30402739E+02
  0.02525  0.99999995E+00  0.37914667E+02  0.29379041E+02
  0.03535  0.99999994E+00  0.36670657E+02  0.28385537E+02
  0.04545  0.99999993E+00  0.35467350E+02  0.27427247E+02
  0.05556  0.99999992E+00  0.34309513E+02  0.26507629E+02
  0.06566  0.99999992E+00  0.33200203E+02  0.25628803E+02
  0.07576  0.99999991E+00  0.32141024E+02  0.24791769E+02
  0.08586  0.99999990E+00  0.31132331E+02  0.23996622E+02
  0.09596  0.99999989E+00  0.30173103E+02  0.23242659E+02
  0.10606  0.99999987E+00  0.29255311E+02  0.22527398E+02
  0.11616  0.99999988E+00  0.28418211E+02  0.21858805E+02
  0.12626  0.99999988E+00  0.27597880E+02  0.21220164E+02
  0.13636  0.99999987E+00  0.26826168E+02  0.20618342E+02
  0.14646  0.99999987E+00  0.26096976E+02  0.20050350E+02
  0.15657  0.99999987E+00  0.25407562E+02  0.19514156E+02
  0.16667  0.99999986E+00  0.24755547E+02  0.19007850E+02
  0.17677  0.99999986E+00  0.24138682E+02  0.18529592E+02
  0.18687  0.99999986E+00  0.23554815E+02  0.18077618E+02
  0.19697  0.99999986E+00  0.23001897E+02  0.17650249E+02
  0.20707  0.99999986E+00  0.22477981E+02  0.17245894E+02
  0.21717  0.99999986E+00  0.21981230E+02  0.16863058E+02
  0.22727  0.99999986E+00  0.21509917E+02  0.16500334E+02
  0.23737  0.99999986E+00  0.21062420E+02  0.16156411E+02
  0.24747  0.99999986E+00  0.20637224E+02  0.15830062E+02
  0.25758  0.99999986E+00  0.20232914E+02  0.15520146E+02
  0.26768  0.99999986E+00  0.19848172E+02  0.15225603E+02
  0.27778  0.99999986E+00  0.19481771E+02  0.14945446E+02
  0.28788  0.99999986E+00  0.19132570E+02  0.14678762E+02
  0.29798  0.99999986E+00  0.18799508E+02  0.14424701E+02
  0.30808  0.99999987E+00  0.18481597E+02  0.14182475E+02
  0.31818  0.99999987E+00  0.18177923E+02  0.13951353E+02
  0.32828  0.99999987E+00  0.17887632E+02  0.13730658E+02
  0.33838  0.99999987E+00  0.17609934E+02  0.13519760E+02
  0.34848  0.99999987E+00  0.17344091E+02  0.13318075E+02
  0.35859  0.99999987E+00  0.17089420E+02  0.13125059E+02
  0.36869  0.99999988E+00  0.16845282E+02  0.12940209E+02
  0.37879  0.99999988E+00  0.16611084E+02  0.12763055E+02
  0.38889  0.99999988E+00  0.16386273E+02  0.12593161E+02
  0.39899  0.99999988E+00  0.16170333E+02  0.12430120E+02
  0.40909  0.99999988E+00  0.15962785E+02  0.12273554E+02
  0.41919  0.99999988E+00  0.15763178E+02  0.12123110E+02
  0.42929  0.99999989E+00  0.15571093E+02  0.11978458E+02
  0.43939  0.99999989E+00  0.15386139E+02  0.11839291E+02
  0.44949  0.99999989E+00  0.15207948E+02  0.11705321E+02
  0.45960  0.99999989E+00  0.15036178E+02  0.11576280E+02
  0.46970  0.99999989E+00  0.14870507E+02  0.11451916E+02
  0.47980  0.99999990E+00  0.14710633E+02  0.11331993E+02
  0.48990  0.99999990E+00  0.14556273E+02  0.11216292E+02
  0.50000  0.99999990E+00  0.14407162E+02  0.11104604E+02
 Transport for spin ->  1  , kxy-point ->  10, of Node     0
           kxy=(-.284 0.328 0.000 ),w= 0.0313
    E           T(E)            TotDOS         PDOS
 -0.50000  0.10000000E+01  0.10597551E+02  0.99357167E+01
 -0.48990  0.10000000E+01  0.10590215E+02  0.99293103E+01
 -0.47980  0.10000000E+01  0.10582942E+02  0.99230077E+01
 -0.46970  0.10000000E+01  0.10575732E+02  0.99168086E+01
 -0.45960  0.10000000E+01  0.10568584E+02  0.99107126E+01
 -0.44949  0.10000000E+01  0.10561497E+02  0.99047195E+01
 -0.43939  0.10000000E+01  0.10554471E+02  0.98988289E+01
 -0.42929  0.99999999E+00  0.10547504E+02  0.98930404E+01
 -0.41919  0.99999999E+00  0.10540595E+02  0.98873539E+01
 -0.40909  0.99999999E+00  0.10533746E+02  0.98817688E+01
 -0.39899  0.99999999E+00  0.10526953E+02  0.98762848E+01
 -0.38889  0.99999999E+00  0.10520218E+02  0.98709016E+01
 -0.37879  0.99999999E+00  0.10513538E+02  0.98656188E+01
 -0.36869  0.99999999E+00  0.10506914E+02  0.98604359E+01
 -0.35859  0.99999999E+00  0.10500344E+02  0.98553526E+01
 -0.34848  0.99999999E+00  0.10493829E+02  0.98503685E+01
 -0.33838  0.99999999E+00  0.10487367E+02  0.98454831E+01
 -0.32828  0.99999999E+00  0.10480957E+02  0.98406961E+01
 -0.31818  0.99999999E+00  0.10474599E+02  0.98360069E+01
 -0.30808  0.99999999E+00  0.10468293E+02  0.98314151E+01
 -0.29798  0.99999999E+00  0.10462037E+02  0.98269203E+01
 -0.28788  0.99999999E+00  0.10455832E+02  0.98225220E+01
 -0.27778  0.99999999E+00  0.10449675E+02  0.98182198E+01
 -0.26768  0.99999999E+00  0.10443567E+02  0.98140130E+01
 -0.25758  0.99999999E+00  0.10437507E+02  0.98099013E+01
 -0.24747  0.99999999E+00  0.10431494E+02  0.98058841E+01
 -0.23737  0.99999999E+00  0.10425528E+02  0.98019610E+01
 -0.22727  0.99999999E+00  0.10419608E+02  0.97981313E+01
 -0.21717  0.99999999E+00  0.10413733E+02  0.97943945E+01
 -0.20707  0.99999998E+00  0.10407903E+02  0.97907502E+01
 -0.19697  0.99999998E+00  0.10402117E+02  0.97871976E+01
 -0.18687  0.99999998E+00  0.10396374E+02  0.97837364E+01
 -0.17677  0.99999998E+00  0.10390674E+02  0.97803659E+01
 -0.16667  0.99999998E+00  0.10385016E+02  0.97770855E+01
 -0.15657  0.99999998E+00  0.10379399E+02  0.97738946E+01
 -0.14646  0.99999998E+00  0.10373823E+02  0.97707926E+01
 -0.13636  0.99999998E+00  0.10368288E+02  0.97677789E+01
 -0.12626  0.99999998E+00  0.10362792E+02  0.97648530E+01
 -0.11616  0.99999998E+00  0.10357335E+02  0.97620141E+01
 -0.10606  0.99999998E+00  0.10351916E+02  0.97592617E+01
 -0.09596  0.99999998E+00  0.10346535E+02  0.97565950E+01
 -0.08586  0.99999998E+00  0.10341191E+02  0.97540135E+01
 -0.07576  0.99999998E+00  0.10335884E+02  0.97515164E+01
 -0.06566  0.99999998E+00  0.10330612E+02  0.97491032E+01
 -0.05556  0.99999997E+00  0.10325375E+02  0.97467731E+01
 -0.04545  0.99999997E+00  0.10320174E+02  0.97445254E+01
 -0.03535  0.99999997E+00  0.10315006E+02  0.97423595E+01
 -0.02525  0.99999997E+00  0.10309871E+02  0.97402746E+01
 -0.01515  0.99999997E+00  0.10304770E+02  0.97382701E+01
 -0.00505  0.99999997E+00  0.10299700E+02  0.97363452E+01
  0.00505  0.99999997E+00  0.10294663E+02  0.97344993E+01
  0.01515  0.99999997E+00  0.10289656E+02  0.97327315E+01
  0.02525  0.99999997E+00  0.10284680E+02  0.97310412E+01
  0.03535  0.99999997E+00  0.10279733E+02  0.97294276E+01
  0.04545  0.99999997E+00  0.10274816E+02  0.97278899E+01
  0.05556  0.99999997E+00  0.10269928E+02  0.97264275E+01
  0.06566  0.99999996E+00  0.10265067E+02  0.97250395E+01
  0.07576  0.99999996E+00  0.10260235E+02  0.97237252E+01
  0.08586  0.99999996E+00  0.10255429E+02  0.97224838E+01
  0.09596  0.99999996E+00  0.10250650E+02  0.97213146E+01
  0.10606  0.99999996E+00  0.10245896E+02  0.97202167E+01
  0.11616  0.99999996E+00  0.10241168E+02  0.97191894E+01
  0.12626  0.99999996E+00  0.10236465E+02  0.97182319E+01
  0.13636  0.99999996E+00  0.10231786E+02  0.97173434E+01
  0.14646  0.99999996E+00  0.10227131E+02  0.97165231E+01
  0.15657  0.99999996E+00  0.10222499E+02  0.97157702E+01
  0.16667  0.99999996E+00  0.10217890E+02  0.97150838E+01
  0.17677  0.99999995E+00  0.10213303E+02  0.97144632E+01
  0.18687  0.99999995E+00  0.10208737E+02  0.97139076E+01
  0.19697  0.99999995E+00  0.10204193E+02  0.97134161E+01
  0.20707  0.99999995E+00  0.10199669E+02  0.97129880E+01
  0.21717  0.99999995E+00  0.10195165E+02  0.97126223E+01
  0.22727  0.99999995E+00  0.10190681E+02  0.97123183E+01
  0.23737  0.99999995E+00  0.10186216E+02  0.97120752E+01
  0.24747  0.99999995E+00  0.10181769E+02  0.97118921E+01
  0.25758  0.99999995E+00  0.10177340E+02  0.97117681E+01
  0.26768  0.99999995E+00  0.10172929E+02  0.97117026E+01
  0.27778  0.99999994E+00  0.10168535E+02  0.97116945E+01
  0.28788  0.99999994E+00  0.10164157E+02  0.97117431E+01
  0.29798  0.99999994E+00  0.10159795E+02  0.97118476E+01
  0.30808  0.99999994E+00  0.10155448E+02  0.97120071E+01
  0.31818  0.99999994E+00  0.10151115E+02  0.97122208E+01
  0.32828  0.99999994E+00  0.10146794E+02  0.97124879E+01
  0.33838  0.99999994E+00  0.10142481E+02  0.97128077E+01
  0.34848  0.99999994E+00  0.10138167E+02  0.97131796E+01
  0.35859  0.99999994E+00  0.10133791E+02  0.97136046E+01
  0.36869  0.99999993E+00  0.10130690E+02  0.97140425E+01
  0.37879  0.99999993E+00  0.10125623E+02  0.97145870E+01
  0.38889  0.99999993E+00  0.10121329E+02  0.97151581E+01
  0.39899  0.99999993E+00  0.10117088E+02  0.97157754E+01
  0.40909  0.99999993E+00  0.10112869E+02  0.97164389E+01
  0.41919  0.99999993E+00  0.10108667E+02  0.97171482E+01
  0.42929  0.99999993E+00  0.10104479E+02  0.97179023E+01
  0.43939  0.99999993E+00  0.10100303E+02  0.97187005E+01
  0.44949  0.99999993E+00  0.10096138E+02  0.97195419E+01
  0.45960  0.99999993E+00  0.10091985E+02  0.97204259E+01
  0.46970  0.99999992E+00  0.10087841E+02  0.97213515E+01
  0.47980  0.99999992E+00  0.10083708E+02  0.97223179E+01
  0.48990  0.99999992E+00  0.10079584E+02  0.97233244E+01
  0.50000  0.99999992E+00  0.10075469E+02  0.97243701E+01
 Transport for spin ->  1  , kxy-point ->   1, of Node     1
           kxy=(-.142 0.246 0.000 ),w= 0.0313
    E           T(E)            TotDOS         PDOS
 -0.50000  0.99999991E+00  0.11276965E+02  0.14220923E+02
 -0.48990  0.99999991E+00  0.11249464E+02  0.14191138E+02
 -0.47980  0.99999991E+00  0.11222116E+02  0.14161497E+02
 -0.46970  0.99999991E+00  0.11194921E+02  0.14132001E+02
 -0.45960  0.99999991E+00  0.11167878E+02  0.14102649E+02
 -0.44949  0.99999991E+00  0.11140989E+02  0.14073443E+02
 -0.43939  0.99999991E+00  0.11114253E+02  0.14044383E+02
 -0.42929  0.99999991E+00  0.11087669E+02  0.14015471E+02
 -0.41919  0.99999990E+00  0.11061239E+02  0.13986705E+02
 -0.40909  0.99999990E+00  0.11034963E+02  0.13958088E+02
 -0.39899  0.99999990E+00  0.11008839E+02  0.13929619E+02
 -0.38889  0.99999990E+00  0.10982868E+02  0.13901299E+02
 -0.37879  0.99999990E+00  0.10957051E+02  0.13873128E+02
 -0.36869  0.99999990E+00  0.10931387E+02  0.13845106E+02
 -0.35859  0.99999990E+00  0.10905875E+02  0.13817235E+02
 -0.34848  0.99999990E+00  0.10880516E+02  0.13789514E+02
 -0.33838  0.99999990E+00  0.10855310E+02  0.13761943E+02
 -0.32828  0.99999990E+00  0.10830256E+02  0.13734523E+02
 -0.31818  0.99999990E+00  0.10805355E+02  0.13707254E+02
 -0.30808  0.99999990E+00  0.10780605E+02  0.13680136E+02
 -0.29798  0.99999990E+00  0.10756007E+02  0.13653170E+02
 -0.28788  0.99999990E+00  0.10731561E+02  0.13626355E+02
 -0.27778  0.99999990E+00  0.10707266E+02  0.13599691E+02
 -0.26768  0.99999990E+00  0.10683121E+02  0.13573179E+02
 -0.25758  0.99999990E+00  0.10659128E+02  0.13546819E+02
 -0.24747  0.99999990E+00  0.10635284E+02  0.13520610E+02
 -0.23737  0.99999990E+00  0.10611590E+02  0.13494553E+02
 -0.22727  0.99999989E+00  0.10588046E+02  0.13468648E+02
 -0.21717  0.99999989E+00  0.10564650E+02  0.13442893E+02
 -0.20707  0.99999989E+00  0.10541403E+02  0.13417291E+02
 -0.19697  0.99999989E+00  0.10518305E+02  0.13391839E+02
 -0.18687  0.99999989E+00  0.10495354E+02  0.13366539E+02
 -0.17677  0.99999989E+00  0.10472550E+02  0.13341390E+02
 -0.16667  0.99999989E+00  0.10449893E+02  0.13316392E+02
 -0.15657  0.99999989E+00  0.10427383E+02  0.13291544E+02
 -0.14646  0.99999989E+00  0.10405018E+02  0.13266846E+02
 -0.13636  0.99999989E+00  0.10382798E+02  0.13242299E+02
 -0.12626  0.99999989E+00  0.10360723E+02  0.13217902E+02
 -0.11616  0.99999989E+00  0.10338793E+02  0.13193654E+02
 -0.10606  0.99999989E+00  0.10317005E+02  0.13169555E+02
 -0.09596  0.99999989E+00  0.10295361E+02  0.13145606E+02
 -0.08586  0.99999989E+00  0.10273860E+02  0.13121805E+02
 -0.07576  0.99999989E+00  0.10252500E+02  0.13098152E+02
 -0.06566  0.99999989E+00  0.10231281E+02  0.13074647E+02
 -0.05556  0.99999989E+00  0.10210203E+02  0.13051290E+02
 -0.04545  0.99999989E+00  0.10189265E+02  0.13028079E+02
 -0.03535  0.99999989E+00  0.10168467E+02  0.13005016E+02
 -0.02525  0.99999989E+00  0.10147807E+02  0.12982098E+02
 -0.01515  0.99999989E+00  0.10127285E+02  0.12959327E+02
 -0.00505  0.99999989E+00  0.10106901E+02  0.12936701E+02
  0.00505  0.99999989E+00  0.10086653E+02  0.12914219E+02
  0.01515  0.99999989E+00  0.10066542E+02  0.12891882E+02
  0.02525  0.99999989E+00  0.10046566E+02  0.12869689E+02
  0.03535  0.99999989E+00  0.10026725E+02  0.12847639E+02
  0.04545  0.99999989E+00  0.10007018E+02  0.12825732E+02
  0.05556  0.99999989E+00  0.99874439E+01  0.12803967E+02
  0.06566  0.99999989E+00  0.99680027E+01  0.12782344E+02
  0.07576  0.99999989E+00  0.99486935E+01  0.12760862E+02
  0.08586  0.99999989E+00  0.99295156E+01  0.12739521E+02
  0.09596  0.99999989E+00  0.99104682E+01  0.12718320E+02
  0.10606  0.99999989E+00  0.98915506E+01  0.12697258E+02
  0.11616  0.99999989E+00  0.98727621E+01  0.12676335E+02
  0.12626  0.99999989E+00  0.98541019E+01  0.12655550E+02
  0.13636  0.99999989E+00  0.98355695E+01  0.12634903E+02
  0.14646  0.99999989E+00  0.98171639E+01  0.12614393E+02
  0.15657  0.99999989E+00  0.97988845E+01  0.12594020E+02
  0.16667  0.99999989E+00  0.97807305E+01  0.12573782E+02
  0.17677  0.99999989E+00  0.97627013E+01  0.12553680E+02
  0.18687  0.99999989E+00  0.97447960E+01  0.12533712E+02
  0.19697  0.99999989E+00  0.97270139E+01  0.12513878E+02
  0.20707  0.99999989E+00  0.97093544E+01  0.12494177E+02
  0.21717  0.99999990E+00  0.96918165E+01  0.12474609E+02
  0.22727  0.99999990E+00  0.96743997E+01  0.12455172E+02
  0.23737  0.99999990E+00  0.96571031E+01  0.12435867E+02
  0.24747  0.99999990E+00  0.96399261E+01  0.12416693E+02
  0.25758  0.99999990E+00  0.96228678E+01  0.12397648E+02
  0.26768  0.99999990E+00  0.96059275E+01  0.12378733E+02
  0.27778  0.99999990E+00  0.95891044E+01  0.12359946E+02
  0.28788  0.99999990E+00  0.95723980E+01  0.12341287E+02
  0.29798  0.99999990E+00  0.95558072E+01  0.12322755E+02
  0.30808  0.99999990E+00  0.95393316E+01  0.12304350E+02
  0.31818  0.99999990E+00  0.95229702E+01  0.12286071E+02
  0.32828  0.99999990E+00  0.95067224E+01  0.12267917E+02
  0.33838  0.99999990E+00  0.94905874E+01  0.12249887E+02
  0.34848  0.99999990E+00  0.94745645E+01  0.12231981E+02
  0.35859  0.99999990E+00  0.94586529E+01  0.12214198E+02
  0.36869  0.99999990E+00  0.94428519E+01  0.12196537E+02
  0.37879  0.99999990E+00  0.94271607E+01  0.12178998E+02
[...]
  0.17677  0.99999986E+00  0.24138690E+02  0.18704747E+02
  0.18687  0.99999986E+00  0.23554822E+02  0.18251788E+02
  0.19697  0.99999986E+00  0.23001903E+02  0.17823255E+02
  0.20707  0.99999986E+00  0.22477986E+02  0.17417570E+02
  0.21717  0.99999986E+00  0.21981235E+02  0.17033248E+02
  0.22727  0.99999986E+00  0.21509921E+02  0.16668897E+02
  0.23737  0.99999986E+00  0.21062424E+02  0.16323214E+02
  0.24747  0.99999986E+00  0.20637227E+02  0.15994985E+02
  0.25758  0.99999986E+00  0.20232917E+02  0.15683079E+02
  0.26768  0.99999986E+00  0.19848174E+02  0.15386444E+02
  0.27778  0.99999986E+00  0.19481773E+02  0.15104105E+02
  0.28788  0.99999986E+00  0.19132572E+02  0.14835155E+02
  0.29798  0.99999986E+00  0.18799509E+02  0.14578753E+02
  0.30808  0.99999987E+00  0.18481599E+02  0.14334118E+02
  0.31818  0.99999987E+00  0.18177924E+02  0.14100526E+02
  0.32828  0.99999987E+00  0.17887633E+02  0.13877306E+02
  0.33838  0.99999987E+00  0.17609935E+02  0.13663833E+02
  0.34848  0.99999987E+00  0.17344092E+02  0.13459529E+02
  0.35859  0.99999987E+00  0.17089420E+02  0.13263855E+02
  0.36869  0.99999988E+00  0.16845282E+02  0.13076313E+02
  0.37879  0.99999988E+00  0.16611084E+02  0.12896436E+02
  0.38889  0.99999988E+00  0.16386273E+02  0.12723793E+02
  0.39899  0.99999988E+00  0.16170333E+02  0.12557980E+02
  0.40909  0.99999988E+00  0.15962784E+02  0.12398621E+02
  0.41919  0.99999988E+00  0.15763177E+02  0.12245368E+02
  0.42929  0.99999989E+00  0.15571093E+02  0.12097893E+02
  0.43939  0.99999989E+00  0.15386138E+02  0.11955892E+02
  0.44949  0.99999989E+00  0.15207948E+02  0.11819078E+02
  0.45960  0.99999989E+00  0.15036177E+02  0.11687186E+02
  0.46970  0.99999989E+00  0.14870506E+02  0.11559966E+02
  0.47980  0.99999990E+00  0.14710632E+02  0.11437184E+02
  0.48990  0.99999990E+00  0.14556272E+02  0.11318621E+02
  0.50000  0.99999990E+00  0.14407161E+02  0.11204072E+02
 Transport for spin ->  1  , kxy-point ->   8, of Node     3
           kxy=(0.284 0.493 0.000 ),w= 0.0156
    E           T(E)            TotDOS         PDOS
 -0.50000  0.22559759E-11  0.57784571E-03  0.52464292E-03
 -0.48990  0.29593152E-11  0.63653016E-03  0.57512394E-03
 -0.47980  0.40430345E-11  0.70633674E-03  0.63500576E-03
 -0.46970  0.57115869E-11  0.79026771E-03  0.70679560E-03
 -0.45960  0.82919347E-11  0.89241759E-03  0.79390585E-03
 -0.44949  0.12318657E-10  0.10184884E-02  0.90107875E-03
 -0.43939  0.18688820E-10  0.11766131E-02  0.10350641E-02
 -0.42929  0.28954753E-10  0.13787176E-02  0.12057386E-02
 -0.41919  0.45902701E-10  0.16428670E-02  0.14280307E-02
 -0.40909  0.74758496E-10  0.19975008E-02  0.17253909E-02
 -0.39899  0.12586409E-09  0.24895273E-02  0.21364122E-02
 -0.38889  0.22109980E-09  0.32009004E-02  0.27283695E-02
 -0.37879  0.41087632E-09  0.42856447E-02  0.36274106E-02
 -0.36869  0.82517895E-09  0.60623683E-02  0.50938741E-02
 -0.35859  0.18558326E-08  0.92833282E-02  0.77409901E-02
 -0.34848  0.49941410E-08  0.16109466E-01  0.13326091E-01
 -0.33838  0.18666913E-07  0.35161344E-01  0.28842201E-01
 -0.32828  0.15851615E-06  0.13689695E+00  0.11129074E+00
 -0.31818  0.99838820E+00  0.82239936E+03  0.66269252E+03
 -0.30808  0.99984687E+00  0.25453279E+03  0.20464928E+03
 -0.29798  0.99993815E+00  0.17507732E+03  0.14047026E+03
 -0.28788  0.99996782E+00  0.13739726E+03  0.11001845E+03
 -0.27778  0.99998122E+00  0.11440410E+03  0.91432816E+02
 -0.26768  0.99998828E+00  0.98606529E+02  0.78663853E+02
 -0.25758  0.99999236E+00  0.86966135E+02  0.69256610E+02
 -0.24747  0.99999487E+00  0.77980493E+02  0.61996612E+02
 -0.23737  0.99999648E+00  0.70808907E+02  0.56204037E+02
 -0.22727  0.99999755E+00  0.64939169E+02  0.51464570E+02
 -0.21717  0.99999827E+00  0.60039122E+02  0.47509473E+02
 -0.20707  0.99999877E+00  0.55882821E+02  0.44155914E+02
 -0.19697  0.99999913E+00  0.52310646E+02  0.41274712E+02
 -0.18687  0.99999937E+00  0.49206312E+02  0.38771751E+02
 -0.17677  0.99999955E+00  0.46482910E+02  0.36576691E+02
 -0.16667  0.99999968E+00  0.44074077E+02  0.34635819E+02
 -0.15657  0.99999977E+00  0.41928194E+02  0.32907360E+02
 -0.14646  0.99999984E+00  0.40004467E+02  0.31358298E+02
 -0.13636  0.99999988E+00  0.38270201E+02  0.29962176E+02
 -0.12626  0.99999991E+00  0.36698867E+02  0.28697531E+02
 -0.11616  0.99999994E+00  0.35268703E+02  0.27546758E+02
 -0.10606  0.99999995E+00  0.33961680E+02  0.26495273E+02
 -0.09596  0.99999996E+00  0.32762731E+02  0.25530890E+02
 -0.08586  0.99999996E+00  0.31659158E+02  0.24643343E+02
 -0.07576  0.99999996E+00  0.30640187E+02  0.23823920E+02
 -0.06566  0.99999996E+00  0.29696608E+02  0.23065181E+02
 -0.05556  0.99999996E+00  0.28820506E+02  0.22360728E+02
 -0.04545  0.99999996E+00  0.28005036E+02  0.21705032E+02
 -0.03535  0.99999995E+00  0.27244250E+02  0.21093289E+02
 -0.02525  0.99999995E+00  0.26532950E+02  0.20521303E+02
 -0.01515  0.99999994E+00  0.25866577E+02  0.19985396E+02
 -0.00505  0.99999994E+00  0.25241113E+02  0.19482326E+02
  0.00505  0.99999993E+00  0.24653000E+02  0.19009227E+02
  0.01515  0.99999993E+00  0.24099080E+02  0.18563555E+02
  0.02525  0.99999992E+00  0.23576531E+02  0.18143044E+02
  0.03535  0.99999992E+00  0.23082826E+02  0.17745671E+02
  0.04545  0.99999991E+00  0.22615679E+02  0.17369620E+02
  0.05556  0.99999991E+00  0.22172989E+02  0.17013262E+02
  0.06566  0.99999990E+00  0.21752730E+02  0.16675131E+02
  0.07576  0.99999990E+00  0.21352455E+02  0.16353931E+02
  0.08586  0.99999987E+00  0.20960840E+02  0.16049541E+02
  0.09596  0.99999989E+00  0.20627331E+02  0.15757553E+02
  0.10606  0.99999989E+00  0.20278258E+02  0.15479958E+02
  0.11616  0.99999989E+00  0.19949407E+02  0.15215244E+02
  0.12626  0.99999989E+00  0.19636210E+02  0.14962406E+02
  0.13636  0.99999988E+00  0.19337225E+02  0.14720670E+02
  0.14646  0.99999988E+00  0.19051440E+02  0.14489338E+02
  0.15657  0.99999988E+00  0.18777999E+02  0.14267766E+02
  0.16667  0.99999988E+00  0.18516139E+02  0.14055366E+02
  0.17677  0.99999988E+00  0.18265168E+02  0.13851592E+02
  0.18687  0.99999987E+00  0.18024449E+02  0.13655942E+02
  0.19697  0.99999987E+00  0.17793399E+02  0.13467951E+02
  0.20707  0.99999987E+00  0.17571476E+02  0.13287187E+02
  0.21717  0.99999987E+00  0.17358180E+02  0.13113253E+02
  0.22727  0.99999987E+00  0.17153045E+02  0.12945776E+02
  0.23737  0.99999987E+00  0.16955639E+02  0.12784411E+02
  0.24747  0.99999987E+00  0.16765559E+02  0.12628837E+02
  0.25758  0.99999987E+00  0.16582431E+02  0.12478755E+02
  0.26768  0.99999987E+00  0.16405905E+02  0.12333883E+02
  0.27778  0.99999987E+00  0.16235652E+02  0.12193962E+02
  0.28788  0.99999987E+00  0.16071367E+02  0.12058746E+02
  0.29798  0.99999987E+00  0.15912762E+02  0.11928007E+02
  0.30808  0.99999987E+00  0.15759568E+02  0.11801529E+02
  0.31818  0.99999987E+00  0.15611534E+02  0.11679111E+02
  0.32828  0.99999987E+00  0.15468422E+02  0.11560564E+02
  0.33838  0.99999987E+00  0.15330008E+02  0.11445710E+02
  0.34848  0.99999987E+00  0.15196083E+02  0.11334382E+02
  0.35859  0.99999987E+00  0.15066448E+02  0.11226422E+02
  0.36869  0.99999987E+00  0.14940918E+02  0.11121682E+02
  0.37879  0.99999987E+00  0.14819316E+02  0.11020021E+02
  0.38889  0.99999987E+00  0.14701476E+02  0.10921307E+02
  0.39899  0.99999987E+00  0.14587241E+02  0.10825415E+02
  0.40909  0.99999988E+00  0.14476462E+02  0.10732227E+02
  0.41919  0.99999988E+00  0.14368998E+02  0.10641631E+02
  0.42929  0.99999988E+00  0.14264717E+02  0.10553521E+02
  0.43939  0.99999988E+00  0.14163491E+02  0.10467797E+02
  0.44949  0.99999988E+00  0.14065202E+02  0.10384365E+02
  0.45960  0.99999988E+00  0.13969735E+02  0.10303132E+02
  0.46970  0.99999988E+00  0.13876982E+02  0.10224015E+02
  0.47980  0.99999988E+00  0.13786841E+02  0.10146931E+02
  0.48990  0.99999988E+00  0.13699214E+02  0.10071803E+02
  0.50000  0.99999988E+00  0.13614008E+02  0.99985583E+01
 Transport for spin ->  1  , kxy-point ->   9, of Node     3
           kxy=(0.427 0.410 0.000 ),w= 0.0156
    E           T(E)            TotDOS         PDOS
 -0.50000  0.12667919E-09  0.55010100E-03  0.50328554E-03
 -0.48990  0.15037682E-09  0.60597105E-03  0.55173730E-03
 -0.47980  0.18067220E-09  0.67281991E-03  0.60955941E-03
 -0.46970  0.22003229E-09  0.75375761E-03  0.67937855E-03
 -0.45960  0.27211625E-09  0.85309330E-03  0.76482777E-03
 -0.44949  0.34250409E-09  0.97694021E-03  0.87105207E-03
 -0.43939  0.43998194E-09  0.11342112E-02  0.10055395E-02
 -0.42929  0.57891219E-09  0.13383242E-02  0.11795429E-02
 -0.41919  0.78383984E-09  0.16102637E-02  0.14106298E-02
 -0.40909  0.10990265E-08  0.19843970E-02  0.17275207E-02
 -0.39899  0.16097623E-08  0.25203139E-02  0.21799264E-02
 -0.38889  0.24948413E-08  0.33291118E-02  0.28603643E-02
 -0.37879  0.41730638E-08  0.46386988E-02  0.39582969E-02
 -0.36869  0.77886398E-08  0.69828589E-02  0.59166984E-02
 -0.35859  0.17278395E-07  0.11885354E-01  0.99979318E-02
 -0.34848  0.52738675E-07  0.25431211E-01  0.21234456E-01
 -0.33838  0.37010269E-06  0.99498815E-01  0.82452811E-01
 -0.32828  0.99972891E+00  0.32246306E+03  0.26549931E+03
 -0.31818  0.99994533E+00  0.13507754E+03  0.11101402E+03
 -0.30808  0.99997019E+00  0.10258249E+03  0.84156509E+02
 -0.29798  0.99997999E+00  0.87484428E+02  0.71642830E+02
 -0.28788  0.99998526E+00  0.78553024E+02  0.64215423E+02
 -0.27778  0.99998856E+00  0.72628523E+02  0.59268544E+02
 -0.26768  0.99999084E+00  0.68431401E+02  0.55746608E+02
 -0.25758  0.99999251E+00  0.65332258E+02  0.53130167E+02
 -0.24747  0.99999378E+00  0.62980307E+02  0.51129610E+02
 -0.23737  0.99999479E+00  0.61161769E+02  0.49568390E+02
 -0.22727  0.99999561E+00  0.59736982E+02  0.48331156E+02
 -0.21717  0.99999628E+00  0.58609224E+02  0.47338043E+02
 -0.20707  0.99999685E+00  0.57707907E+02  0.46530813E+02
 -0.19697  0.99999733E+00  0.56978909E+02  0.45864894E+02
 -0.18687  0.99999775E+00  0.56378718E+02  0.45304558E+02
 -0.17677  0.99999811E+00  0.55870769E+02  0.44819910E+02
 -0.16667  0.99999842E+00  0.55423112E+02  0.44384978E+02
 -0.15657  0.99999869E+00  0.55006979E+02  0.43976539E+02
 -0.14646  0.99999893E+00  0.54595986E+02  0.43573466E+02
 -0.13636  0.99999913E+00  0.54165840E+02  0.43156480E+02
 -0.12626  0.99999930E+00  0.53694438E+02  0.42708216E+02
 -0.11616  0.99999945E+00  0.53162292E+02  0.42213545E+02
 -0.10606  0.99999958E+00  0.52553156E+02  0.41660046E+02
 -0.09596  0.99999968E+00  0.51854744E+02  0.41038540E+02
 -0.08586  0.99999976E+00  0.51059380E+02  0.40343562E+02
 -0.07576  0.99999983E+00  0.50164423E+02  0.39573651E+02
 -0.06566  0.99999988E+00  0.49172361E+02  0.38731360E+02
 -0.05556  0.99999992E+00  0.48090479E+02  0.37822957E+02
 -0.04545  0.99999994E+00  0.46930137E+02  0.36857802E+02
 -0.03535  0.99999996E+00  0.45705740E+02  0.35847514E+02
 -0.02525  0.99999997E+00  0.44433528E+02  0.34805001E+02
 -0.01515  0.99999997E+00  0.43130377E+02  0.33743524E+02
 -0.00505  0.99999997E+00  0.41812722E+02  0.32675857E+02
  0.00505  0.99999997E+00  0.40495714E+02  0.31613659E+02
  0.01515  0.99999996E+00  0.39192653E+02  0.30567045E+02
  0.02525  0.99999995E+00  0.37914672E+02  0.29544376E+02
  0.03535  0.99999994E+00  0.36670662E+02  0.28552222E+02
  0.04545  0.99999993E+00  0.35467354E+02  0.27595452E+02
  0.05556  0.99999992E+00  0.34309517E+02  0.26677403E+02
  0.06566  0.99999992E+00  0.33200206E+02  0.25800096E+02
  0.07576  0.99999991E+00  0.32141026E+02  0.24964460E+02
  0.08586  0.99999990E+00  0.31132332E+02  0.24170524E+02
  0.09596  0.99999989E+00  0.30173101E+02  0.23417511E+02
  0.10606  0.99999987E+00  0.29255295E+02  0.22702463E+02
  0.11616  0.99999988E+00  0.28418229E+02  0.22035868E+02
  0.12626  0.99999988E+00  0.27597888E+02  0.21397226E+02
  0.13636  0.99999987E+00  0.26826174E+02  0.20795428E+02
  0.14646  0.99999987E+00  0.26096981E+02  0.20227267E+02
  0.15657  0.99999987E+00  0.25407566E+02  0.19690693E+02
  0.16667  0.99999986E+00  0.24755551E+02  0.19183795E+02
  0.17677  0.99999986E+00  0.24138685E+02  0.18704744E+02
  0.18687  0.99999986E+00  0.23554818E+02  0.18251786E+02
  0.19697  0.99999986E+00  0.23001900E+02  0.17823253E+02
  0.20707  0.99999986E+00  0.22477984E+02  0.17417569E+02
  0.21717  0.99999986E+00  0.21981233E+02  0.17033247E+02
  0.22727  0.99999986E+00  0.21509919E+02  0.16668896E+02
  0.23737  0.99999986E+00  0.21062422E+02  0.16323213E+02
  0.24747  0.99999986E+00  0.20637226E+02  0.15994984E+02
  0.25758  0.99999986E+00  0.20232916E+02  0.15683079E+02
  0.26768  0.99999986E+00  0.19848174E+02  0.15386444E+02
  0.27778  0.99999986E+00  0.19481773E+02  0.15104106E+02
  0.28788  0.99999986E+00  0.19132572E+02  0.14835156E+02
  0.29798  0.99999986E+00  0.18799509E+02  0.14578754E+02
  0.30808  0.99999987E+00  0.18481599E+02  0.14334119E+02
  0.31818  0.99999987E+00  0.18177924E+02  0.14100527E+02
  0.32828  0.99999987E+00  0.17887634E+02  0.13877306E+02
  0.33838  0.99999987E+00  0.17609935E+02  0.13663834E+02
  0.34848  0.99999987E+00  0.17344093E+02  0.13459530E+02
  0.35859  0.99999987E+00  0.17089421E+02  0.13263856E+02
  0.36869  0.99999988E+00  0.16845283E+02  0.13076314E+02
  0.37879  0.99999988E+00  0.16611085E+02  0.12896437E+02
  0.38889  0.99999988E+00  0.16386274E+02  0.12723794E+02
  0.39899  0.99999988E+00  0.16170334E+02  0.12557981E+02
  0.40909  0.99999988E+00  0.15962786E+02  0.12398623E+02
  0.41919  0.99999988E+00  0.15763179E+02  0.12245370E+02
  0.42929  0.99999989E+00  0.15571094E+02  0.12097895E+02
  0.43939  0.99999989E+00  0.15386140E+02  0.11955893E+02
  0.44949  0.99999989E+00  0.15207949E+02  0.11819080E+02
  0.45960  0.99999989E+00  0.15036179E+02  0.11687188E+02
  0.46970  0.99999989E+00  0.14870508E+02  0.11559968E+02
  0.47980  0.99999990E+00  0.14710633E+02  0.11437186E+02
  0.48990  0.99999990E+00  0.14556274E+02  0.11318623E+02
  0.50000  0.99999990E+00  0.14407163E+02  0.11204074E+02
 Transport for spin ->  1  , kxy-point ->  10, of Node     3
           kxy=(0.569 0.328 0.000 ),w= 0.0156
    E           T(E)            TotDOS         PDOS
 -0.50000  0.99997739E+00  0.65907176E+02  0.65907176E+02
 -0.48990  0.99998925E+00  0.43310783E+02  0.43310783E+02
 -0.47980  0.99999292E+00  0.34948694E+02  0.34948694E+02
 -0.46970  0.99999473E+00  0.30315442E+02  0.30315442E+02
 -0.45960  0.99999581E+00  0.27295603E+02  0.27295603E+02
 -0.44949  0.99999653E+00  0.25143014E+02  0.25143014E+02
 -0.43939  0.99999704E+00  0.23518701E+02  0.23518701E+02
 -0.42929  0.99999743E+00  0.22243746E+02  0.22243746E+02
 -0.41919  0.99999773E+00  0.21213716E+02  0.21213716E+02
 -0.40909  0.99999798E+00  0.20363072E+02  0.20363072E+02
 -0.39899  0.99999817E+00  0.19648361E+02  0.19648361E+02
 -0.38889  0.99999834E+00  0.19039508E+02  0.19039508E+02
 -0.37879  0.99999848E+00  0.18514957E+02  0.18514957E+02
 -0.36869  0.99999860E+00  0.18058812E+02  0.18058812E+02
 -0.35859  0.99999871E+00  0.17659067E+02  0.17659067E+02
 -0.34848  0.99999880E+00  0.17306466E+02  0.17306466E+02
 -0.33838  0.99999888E+00  0.16993746E+02  0.16993746E+02
 -0.32828  0.99999895E+00  0.16715122E+02  0.16715122E+02
 -0.31818  0.99999902E+00  0.16465925E+02  0.16465925E+02
 -0.30808  0.99999908E+00  0.16242337E+02  0.16242337E+02
 -0.29798  0.99999913E+00  0.16041211E+02  0.16041211E+02
 -0.28788  0.99999918E+00  0.15859920E+02  0.15859920E+02
 -0.27778  0.99999923E+00  0.15696259E+02  0.15696259E+02
 -0.26768  0.99999927E+00  0.15548360E+02  0.15548360E+02
 -0.25758  0.99999931E+00  0.15414631E+02  0.15414631E+02
 -0.24747  0.99999934E+00  0.15293705E+02  0.15293705E+02
 -0.23737  0.99999937E+00  0.15184403E+02  0.15184403E+02
 -0.22727  0.99999940E+00  0.15085702E+02  0.15085702E+02
 -0.21717  0.99999943E+00  0.14996712E+02  0.14996712E+02
 -0.20707  0.99999946E+00  0.14916654E+02  0.14916654E+02
 -0.19697  0.99999948E+00  0.14844841E+02  0.14844841E+02
 -0.18687  0.99999951E+00  0.14780671E+02  0.14780671E+02
 -0.17677  0.99999953E+00  0.14723609E+02  0.14723609E+02
 -0.16667  0.99999955E+00  0.14673182E+02  0.14673182E+02
 -0.15657  0.99999957E+00  0.14628969E+02  0.14628969E+02
 -0.14646  0.99999959E+00  0.14590594E+02  0.14590594E+02
 -0.13636  0.99999960E+00  0.14557722E+02  0.14557722E+02
 -0.12626  0.99999962E+00  0.14530055E+02  0.14530055E+02
 -0.11616  0.99999964E+00  0.14507323E+02  0.14507323E+02
 -0.10606  0.99999965E+00  0.14489286E+02  0.14489286E+02
 -0.09596  0.99999967E+00  0.14475728E+02  0.14475728E+02
 -0.08586  0.99999968E+00  0.14466457E+02  0.14466457E+02
 -0.07576  0.99999969E+00  0.14461298E+02  0.14461298E+02
 -0.06566  0.99999971E+00  0.14460095E+02  0.14460095E+02
 -0.05556  0.99999972E+00  0.14462709E+02  0.14462709E+02
 -0.04545  0.99999973E+00  0.14469015E+02  0.14469015E+02
 -0.03535  0.99999974E+00  0.14478902E+02  0.14478902E+02
 -0.02525  0.99999975E+00  0.14492271E+02  0.14492271E+02
 -0.01515  0.99999976E+00  0.14509034E+02  0.14509034E+02
 -0.00505  0.99999977E+00  0.14529112E+02  0.14529112E+02
  0.00505  0.99999978E+00  0.14552439E+02  0.14552439E+02
  0.01515  0.99999979E+00  0.14578955E+02  0.14578955E+02
  0.02525  0.99999980E+00  0.14608608E+02  0.14608608E+02
  0.03535  0.99999981E+00  0.14641357E+02  0.14641357E+02
  0.04545  0.99999982E+00  0.14677164E+02  0.14677164E+02
  0.05556  0.99999983E+00  0.14716001E+02  0.14716001E+02
  0.06566  0.99999983E+00  0.14757845E+02  0.14757845E+02
  0.07576  0.99999984E+00  0.14802680E+02  0.14802680E+02
  0.08586  0.99999985E+00  0.14850494E+02  0.14850494E+02
  0.09596  0.99999985E+00  0.14901283E+02  0.14901283E+02
  0.10606  0.99999986E+00  0.14955048E+02  0.14955048E+02
  0.11616  0.99999987E+00  0.15011792E+02  0.15011792E+02
  0.12626  0.99999987E+00  0.15071528E+02  0.15071528E+02
  0.13636  0.99999988E+00  0.15134271E+02  0.15134271E+02
  0.14646  0.99999989E+00  0.15200041E+02  0.15200041E+02
  0.15657  0.99999989E+00  0.15268863E+02  0.15268863E+02
  0.16667  0.99999990E+00  0.15340768E+02  0.15340768E+02
  0.17677  0.99999990E+00  0.15415789E+02  0.15415789E+02
  0.18687  0.99999991E+00  0.15493966E+02  0.15493966E+02
  0.19697  0.99999991E+00  0.15575343E+02  0.15575343E+02
  0.20707  0.99999992E+00  0.15659968E+02  0.15659968E+02
  0.21717  0.99999992E+00  0.15747895E+02  0.15747895E+02
  0.22727  0.99999993E+00  0.15839182E+02  0.15839182E+02
  0.23737  0.99999993E+00  0.15933890E+02  0.15933890E+02
  0.24747  0.99999993E+00  0.16032089E+02  0.16032089E+02
  0.25758  0.99999994E+00  0.16133849E+02  0.16133849E+02
  0.26768  0.99999994E+00  0.16239250E+02  0.16239250E+02
  0.27778  0.99999995E+00  0.16348374E+02  0.16348374E+02
  0.28788  0.99999995E+00  0.16461309E+02  0.16461309E+02
  0.29798  0.99999995E+00  0.16578149E+02  0.16578149E+02
  0.30808  0.99999996E+00  0.16698994E+02  0.16698994E+02
  0.31818  0.99999996E+00  0.16823948E+02  0.16823948E+02
  0.32828  0.99999996E+00  0.16953123E+02  0.16953123E+02
  0.33838  0.99999996E+00  0.17086638E+02  0.17086638E+02
  0.34848  0.99999997E+00  0.17224616E+02  0.17224616E+02
  0.35859  0.99999997E+00  0.17367188E+02  0.17367188E+02
  0.36869  0.99999997E+00  0.17514492E+02  0.17514492E+02
  0.37879  0.99999997E+00  0.17666675E+02  0.17666675E+02
  0.38889  0.99999998E+00  0.17823889E+02  0.17823889E+02
  0.39899  0.99999998E+00  0.17986296E+02  0.17986296E+02
  0.40909  0.99999998E+00  0.18154066E+02  0.18154066E+02
  0.41919  0.99999998E+00  0.18327377E+02  0.18327377E+02
  0.42929  0.99999998E+00  0.18506418E+02  0.18506418E+02
  0.43939  0.99999998E+00  0.18691386E+02  0.18691386E+02
  0.44949  0.99999999E+00  0.18882490E+02  0.18882490E+02
  0.45960  0.99999999E+00  0.19079947E+02  0.19079947E+02
  0.46970  0.99999999E+00  0.19283987E+02  0.19283987E+02
  0.47980  0.99999999E+00  0.19494853E+02  0.19494853E+02
  0.48990  0.99999999E+00  0.19712799E+02  0.19712799E+02
  0.50000  0.99999999E+00  0.19938091E+02  0.19938091E+02
 ==============================================================
 
 Results:
 
 Voltage, Current(A) =   0.00000000E+00  0.00000000E+00
 
 ==============================================================
