Siesta Version  : trunk-755
Architecture    : unknown
Compiler version: GNU Fortran (Ubuntu 5.4.0-6ubuntu1~16.04.10) 5.4.0 20160609
Compiler flags  : mpif90 -O2 -fPIC -ftree-vectorize
PP flags        : -DFC_HAVE_ABORT -DMPI -DFC_HAVE_FLUSH -DFC_HAVE_ABORT -DGRID_DP -DPHI_GRID_SP -DSIESTA__HAS__SPGLIB  -DSIESTA__DIAG_2STAGE
Libraries       : libsiestaLAPACK.a libsiestaBLAS.a libfdict.a  /usr/lib/libscalapack-openmpi.so   libsiestaLAPACK.a libsiestaBLAS.a libfdict.a /usr/lib/libblacsF77init-openmpi.so /usr/lib/libblacsCinit-openmpi.so /usr/lib/libblacs-openmpi.so
Directory       : /home/ICN2/aakhtar/Projects/spglib-inclusion/Obj-spg/Tests/Space_Group/06-cubic-cF.32-spg226/work
PARALLEL version

* Running on 8 nodes in parallel
>> Start of run:   2-APR-2019  17:13:50

                           ***********************       
                           *  WELCOME TO SIESTA  *       
                           ***********************       

reinit: Reading from ../06-cubic-cF.32-spg226.fdf

reinit: -----------------------------------------------------------------------
reinit: System Name: 
reinit: -----------------------------------------------------------------------
reinit: System Label: 06-cubic-cF.32-spg226.inp
reinit: -----------------------------------------------------------------------

initatom: Reading input for the pseudopotentials and atomic orbitals ----------
Species number:   1 Atomic number:    1 Label: H

Ground state valence configuration:   1s01
Reading pseudopotential information in formatted form from H.psf

Valence configuration for pseudopotential generation:
1s( 1.00) rc: 1.25
2p( 0.00) rc: 1.25
3d( 0.00) rc: 1.25
4f( 0.00) rc: 1.25
For H, standard SIESTA heuristics set lmxkb to 2
 (one more than the basis l, including polarization orbitals).
Use PS.lmax or PS.KBprojectors blocks to override.

<basis_specs>
===============================================================================
H                    Z=   1    Mass=  1.0100        Charge= 0.17977+309
Lmxo=0 Lmxkb= 2    BasisType=split      Semic=F
L=0  Nsemic=0  Cnfigmx=1
          n=1  nzeta=2  polorb=1
            splnorm:   0.15000    
               vcte:    0.0000    
               rinn:    0.0000    
               qcoe:    0.0000    
               qyuk:    0.0000    
               qwid:   0.10000E-01
                rcs:    0.0000      0.0000    
            lambdas:    1.0000      1.0000    
-------------------------------------------------------------------------------
L=0  Nkbl=1  erefs: 0.17977+309
L=1  Nkbl=1  erefs: 0.17977+309
L=2  Nkbl=1  erefs: 0.17977+309
===============================================================================
</basis_specs>

atom: Called for H                     (Z =   1)

read_vps: Pseudopotential generation method:
read_vps: ATM3      Troullier-Martins                       
Total valence charge:    1.00000

xc_check: Exchange-correlation functional:
xc_check: Ceperley-Alder
V l=0 = -2*Zval/r beyond r=  1.2343
V l=1 = -2*Zval/r beyond r=  1.2189
V l=2 = -2*Zval/r beyond r=  1.2189
All V_l potentials equal beyond r=  1.2343
This should be close to max(r_c) in ps generation
All pots = -2*Zval/r beyond r=  1.2343

VLOCAL1: 99.0% of the norm of Vloc inside     28.493 Ry
VLOCAL1: 99.9% of the norm of Vloc inside     64.935 Ry
atom: Maximum radius for 4*pi*r*r*local-pseudopot. charge    1.45251
atom: Maximum radius for r*vlocal+2*Zval:    1.21892

KBgen: Kleinman-Bylander projectors: 
GHOST: No ghost state for L =  0
   l= 0   rc=  1.364359   el= -0.467325   Ekb= -2.005361   kbcos= -0.336422
GHOST: No ghost state for L =  1
   l= 1   rc=  1.434438   el=  0.001430   Ekb= -0.501708   kbcos= -0.021697
GHOST: No ghost state for L =  2
   l= 2   rc=  1.470814   el=  0.002365   Ekb= -0.190555   kbcos= -0.002281

KBgen: Total number of  Kleinman-Bylander projectors:    9
atom: -------------------------------------------------------------------------

atom: SANKEY-TYPE ORBITALS:
atom: Selected multiple-zeta basis: split     

SPLIT: Orbitals with angular momentum L= 0

SPLIT: Basis orbitals for state 1s

SPLIT: PAO cut-off radius determined from an
SPLIT: energy shift=  0.020000 Ry

   izeta = 1
                 lambda =    1.000000
                     rc =    4.828263
                 energy =   -0.449375
                kinetic =    0.929372
    potential(screened) =   -1.378747
       potential(ionic) =   -1.915047

   izeta = 2
                 rmatch =    3.854947
              splitnorm =    0.150000
                 energy =   -0.336153
                kinetic =    1.505294
    potential(screened) =   -1.841447
       potential(ionic) =   -2.413582

POLgen: Perturbative polarization orbital with L=  1

POLgen: Polarization orbital for state 1s

   izeta = 1
                     rc =    4.828263
                 energy =    0.706972
                kinetic =    1.396397
    potential(screened) =   -0.689424
       potential(ionic) =   -1.169792
atom: Total number of Sankey-type orbitals:  5

atm_pop: Valence configuration (for local Pseudopot. screening):
 1s( 1.00)                                                            
Vna: chval, zval:    1.00000   1.00000

Vna:  Cut-off radius for the neutral-atom potential:   4.828263

atom: _________________________________________________________________________

prinput: Basis input ----------------------------------------------------------

PAO.BasisType split     

%block ChemicalSpeciesLabel
    1    1 H                       # Species index, atomic number, species label
%endblock ChemicalSpeciesLabel

%block PAO.Basis                 # Define Basis set
H                     1                    # Species label, number of l-shells
 n=1   0   2 P   1                   # n, l, Nzeta, Polarization, NzetaPol
   4.828      3.855   
   1.000      1.000   
%endblock PAO.Basis

prinput: ----------------------------------------------------------------------

coor:   Atomic-coordinates input format  =     Fractional

siesta: Atomic coordinates (Bohr) and species
siesta:      2.57003   2.26767   1.66296  1        1
siesta:      1.66296   2.57003   2.26767  1        2
siesta:      4.98888   5.29124   1.66296  1        3
siesta:      4.98888   2.26767   5.89595  1        4
siesta:      9.82658  10.12894   5.89595  1        5
siesta:      2.26767   1.66296   2.57003  1        6
siesta:      1.66296   4.98888   5.29124  1        7
siesta:      5.89595   4.98888   2.26767  1        8
siesta:      5.89595   9.82658  10.12894  1        9
siesta:      2.57003   5.29124   5.89595  1       10
siesta:      5.29124   4.98888   5.89595  1       11
siesta:      5.89595   2.57003   5.29124  1       12
siesta:      5.29124  10.12894   9.22187  1       13
siesta:     10.12894   9.22187   5.29124  1       14
siesta:      9.82658   4.98888   9.22187  1       15
siesta:      5.29124   1.66296   4.98888  1       16
siesta:      2.26767   5.89595   4.98888  1       17
siesta:     10.12894   5.89595   9.82658  1       18
siesta:      5.89595   5.29124   4.98888  1       19
siesta:      5.29124   5.89595   2.57003  1       20
siesta:      9.22187   5.29124  10.12894  1       21
siesta:      9.22187   9.82658   4.98888  1       22
siesta:      4.98888   5.89595   5.29124  1       23
siesta:      4.98888   9.22187   9.82658  1       24
siesta:     12.54779  12.85014  13.45486  1       25
siesta:     13.45486  12.54779  12.85014  1       26
siesta:     10.12894   9.82658  13.45486  1       27
siesta:     10.12894  12.85014   9.22187  1       28
siesta:      5.29124   4.98888   9.22187  1       29
siesta:     12.85014  13.45486  12.54779  1       30
siesta:     13.45486  10.12894   9.82658  1       31
siesta:      9.22187  10.12894  12.85014  1       32
siesta:      9.22187   5.29124   4.98888  1       33
siesta:     12.54779   9.82658   9.22187  1       34
siesta:      9.82658  10.12894   9.22187  1       35
siesta:      9.22187  12.54779   9.82658  1       36
siesta:      9.82658   4.98888   5.89595  1       37
siesta:      4.98888   5.89595   9.82658  1       38
siesta:      5.29124  10.12894   5.89595  1       39
siesta:      9.82658  13.45486  10.12894  1       40
siesta:     12.85014   9.22187  10.12894  1       41
siesta:      4.98888   9.22187   5.29124  1       42
siesta:      9.22187   9.82658  10.12894  1       43
siesta:      9.82658   9.22187  12.54779  1       44
siesta:      5.89595   9.82658   4.98888  1       45
siesta:      5.89595   5.29124  10.12894  1       46
siesta:     10.12894   9.22187   9.82658  1       47
siesta:     10.12894   5.89595   5.29124  1       48

siesta: System type = bulk      

initatomlists: Number of atoms, orbitals, and projectors:     48   240   432

----------------------------------------------------------------------
 Output of crystal symmetries 

 Int Sp Group number =    226
 Int Sp Group symbol = Fm-3c      
 Bravais lattice is    225  Fm-3m      
 Hall number =    524

 number of symops =     48
 symops and translations in reduced coordinates = 
     1     0     0
     0     1     0
     0     0     1
    0.0000000000E+00      0.0000000000E+00      0.0000000000E+00

    -1     0     0
     0    -1     0
     0     0    -1
    0.1000000000E+01      0.1000000000E+01      0.4440892099E-15

     0     0     1
    -1     0     1
     0    -1     1
    0.5000000000E+00      0.5000000000E+00      0.5000000000E+00

     0     0    -1
     1     0    -1
     0     1    -1
    0.5000000000E+00      0.5000000000E+00      0.5000000000E+00

     0    -1     1
     0    -1     0
     1    -1     0
    0.1000000000E+01      0.0000000000E+00      0.2220446049E-15

     0     1    -1
     0     1     0
    -1     1     0
    0.1110223025E-15      0.1000000000E+01      0.1110223025E-15

     1    -1     0
     1     0    -1
     1     0     0
    0.5000000000E+00      0.5000000000E+00      0.5000000000E+00

    -1     1     0
    -1     0     1
    -1     0     0
    0.5000000000E+00      0.5000000000E+00      0.5000000000E+00

    -1     0     0
    -1     0     1
    -1     1     0
    0.0000000000E+00      0.1000000000E+01      0.2220446049E-15

     1     0     0
     1     0    -1
     1    -1     0
    0.1000000000E+01      0.1110223025E-15      0.1110223025E-15

    -1     1     0
     0     1     0
     0     1    -1
    0.5000000000E+00      0.5000000000E+00      0.5000000000E+00

     1    -1     0
     0    -1     0
     0    -1     1
    0.5000000000E+00      0.5000000000E+00      0.5000000000E+00

     0     1    -1
     1     0    -1
     0     0    -1
    0.0000000000E+00      0.0000000000E+00      0.2220446049E-15

     0    -1     1
    -1     0     1
     0     0     1
    0.1000000000E+01      0.1000000000E+01      0.1110223025E-15

     0     0    -1
     0    -1     0
    -1     0     0
    0.5000000000E+00      0.5000000000E+00      0.5000000000E+00

     0     0     1
     0     1     0
     1     0     0
    0.5000000000E+00      0.5000000000E+00      0.5000000000E+00

    -1     1     0
    -1     0     0
    -1     0     1
    0.0000000000E+00      0.0000000000E+00      0.0000000000E+00

     1    -1     0
     1     0     0
     1     0    -1
    0.1000000000E+01      0.1000000000E+01      0.4440892099E-15

    -1     0     1
     0    -1     1
     0     0     1
    0.5000000000E+00      0.5000000000E+00      0.5000000000E+00

     1     0    -1
     0     1    -1
     0     0    -1
    0.5000000000E+00      0.5000000000E+00      0.5000000000E+00

     0     0     1
     1     0     0
     0     1     0
    0.0000000000E+00      0.1000000000E+01      0.2220446049E-15

     0     0    -1
    -1     0     0
     0    -1     0
    0.1000000000E+01      0.1110223025E-15      0.1110223025E-15

     0     1     0
     0     1    -1
    -1     1     0
    0.5000000000E+00      0.5000000000E+00      0.5000000000E+00

     0    -1     0
     0    -1     1
     1    -1     0
    0.5000000000E+00      0.5000000000E+00      0.5000000000E+00

     1    -1     0
     0    -1     1
     0    -1     0
    0.0000000000E+00      0.0000000000E+00      0.2220446049E-15

    -1     1     0
     0     1    -1
     0     1     0
    0.1000000000E+01      0.1000000000E+01      0.1110223025E-15

     0    -1     0
    -1     0     0
     0     0    -1
    0.5000000000E+00      0.5000000000E+00      0.5000000000E+00

     0     1     0
     1     0     0
     0     0     1
    0.5000000000E+00      0.5000000000E+00      0.5000000000E+00

     0     0    -1
     0     1    -1
     1     0    -1
    0.1000000000E+01      0.0000000000E+00      0.2220446049E-15

     0     0     1
     0    -1     1
    -1     0     1
    0.1110223025E-15      0.1000000000E+01      0.1110223025E-15

     1     0    -1
     1     0     0
     1    -1     0
    0.5000000000E+00      0.5000000000E+00      0.5000000000E+00

    -1     0     1
    -1     0     0
    -1     1     0
    0.5000000000E+00      0.5000000000E+00      0.5000000000E+00

     0    -1     0
     1    -1     0
     0    -1     1
    0.0000000000E+00      0.0000000000E+00      0.0000000000E+00

     0     1     0
    -1     1     0
     0     1    -1
    0.1000000000E+01      0.1000000000E+01      0.4440892099E-15

     0    -1     1
     0     0     1
    -1     0     1
    0.5000000000E+00      0.5000000000E+00      0.5000000000E+00

     0     1    -1
     0     0    -1
     1     0    -1
    0.5000000000E+00      0.5000000000E+00      0.5000000000E+00

    -1     0     1
    -1     1     0
    -1     0     0
    0.0000000000E+00      0.0000000000E+00      0.2220446049E-15

     1     0    -1
     1    -1     0
     1     0     0
    0.1000000000E+01      0.1000000000E+01      0.1110223025E-15

    -1     0     0
     0     0    -1
     0    -1     0
    0.5000000000E+00      0.5000000000E+00      0.5000000000E+00

     1     0     0
     0     0     1
     0     1     0
    0.5000000000E+00      0.5000000000E+00      0.5000000000E+00

     0     1     0
     0     0     1
     1     0     0
    0.1000000000E+01      0.0000000000E+00      0.2220446049E-15

     0    -1     0
     0     0    -1
    -1     0     0
    0.1110223025E-15      0.1000000000E+01      0.1110223025E-15

     1     0     0
     1    -1     0
     1     0    -1
    0.5000000000E+00      0.5000000000E+00      0.5000000000E+00

    -1     0     0
    -1     1     0
    -1     0     1
    0.5000000000E+00      0.5000000000E+00      0.5000000000E+00

     1     0    -1
     0     0    -1
     0     1    -1
    0.0000000000E+00      0.1000000000E+01      0.2220446049E-15

    -1     0     1
     0     0     1
     0    -1     1
    0.1000000000E+01      0.1110223025E-15      0.1110223025E-15

     0     1    -1
    -1     1     0
     0     1     0
    0.5000000000E+00      0.5000000000E+00      0.5000000000E+00

     0    -1     1
     1    -1     0
     0    -1     0
    0.5000000000E+00      0.5000000000E+00      0.5000000000E+00

 symops and translations in cartesian coordinates = 
    0.1000000000E+01    0.0000000000E+00    0.0000000000E+00
    0.0000000000E+00    0.1000000000E+01    0.0000000000E+00
    0.0000000000E+00    0.0000000000E+00    0.1000000000E+01
    0.0000000000E+00      0.0000000000E+00      0.0000000000E+00

   -0.1000000000E+01    0.0000000000E+00    0.0000000000E+00
    0.0000000000E+00   -0.1000000000E+01    0.0000000000E+00
    0.0000000000E+00    0.0000000000E+00   -0.1000000000E+01
    0.7558907511E+01      0.7558907511E+01      0.1511781502E+02

    0.0000000000E+00    0.0000000000E+00   -0.1000000000E+01
    0.0000000000E+00    0.1000000000E+01    0.0000000000E+00
    0.1000000000E+01    0.0000000000E+00    0.0000000000E+00
    0.7558907511E+01      0.7558907511E+01      0.7558907511E+01

    0.0000000000E+00    0.0000000000E+00    0.1000000000E+01
    0.0000000000E+00   -0.1000000000E+01    0.0000000000E+00
   -0.1000000000E+01    0.0000000000E+00    0.0000000000E+00
    0.7558907511E+01      0.7558907511E+01      0.7558907511E+01

   -0.1000000000E+01    0.0000000000E+00    0.0000000000E+00
    0.0000000000E+00    0.1000000000E+01    0.0000000000E+00
    0.0000000000E+00    0.0000000000E+00   -0.1000000000E+01
    0.1678414632E-14      0.7558907511E+01      0.7558907511E+01

    0.1000000000E+01    0.0000000000E+00    0.0000000000E+00
    0.0000000000E+00   -0.1000000000E+01    0.0000000000E+00
    0.0000000000E+00    0.0000000000E+00    0.1000000000E+01
    0.7558907511E+01      0.1678414632E-14      0.7558907511E+01

    0.0000000000E+00    0.0000000000E+00    0.1000000000E+01
    0.0000000000E+00    0.1000000000E+01    0.0000000000E+00
   -0.1000000000E+01    0.0000000000E+00    0.0000000000E+00
    0.7558907511E+01      0.7558907511E+01      0.7558907511E+01

    0.0000000000E+00    0.0000000000E+00   -0.1000000000E+01
    0.0000000000E+00   -0.1000000000E+01    0.0000000000E+00
    0.1000000000E+01    0.0000000000E+00    0.0000000000E+00
    0.7558907511E+01      0.7558907511E+01      0.7558907511E+01

    0.1000000000E+01    0.0000000000E+00    0.0000000000E+00
    0.0000000000E+00   -0.1000000000E+01    0.0000000000E+00
    0.0000000000E+00    0.0000000000E+00   -0.1000000000E+01
    0.7558907511E+01      0.1678414632E-14      0.7558907511E+01

   -0.1000000000E+01    0.0000000000E+00    0.0000000000E+00
    0.0000000000E+00    0.1000000000E+01    0.0000000000E+00
    0.0000000000E+00    0.0000000000E+00    0.1000000000E+01
    0.1678414632E-14      0.7558907511E+01      0.7558907511E+01

    0.0000000000E+00    0.0000000000E+00    0.1000000000E+01
    0.0000000000E+00   -0.1000000000E+01    0.0000000000E+00
    0.1000000000E+01    0.0000000000E+00    0.0000000000E+00
    0.7558907511E+01      0.7558907511E+01      0.7558907511E+01

    0.0000000000E+00    0.0000000000E+00   -0.1000000000E+01
    0.0000000000E+00    0.1000000000E+01    0.0000000000E+00
   -0.1000000000E+01    0.0000000000E+00    0.0000000000E+00
    0.7558907511E+01      0.7558907511E+01      0.7558907511E+01

   -0.1000000000E+01    0.0000000000E+00    0.0000000000E+00
    0.0000000000E+00   -0.1000000000E+01    0.0000000000E+00
    0.0000000000E+00    0.0000000000E+00    0.1000000000E+01
    0.1678414632E-14      0.1678414632E-14      0.0000000000E+00

    0.1000000000E+01    0.0000000000E+00    0.0000000000E+00
    0.0000000000E+00    0.1000000000E+01    0.0000000000E+00
    0.0000000000E+00    0.0000000000E+00   -0.1000000000E+01
    0.7558907511E+01      0.7558907511E+01      0.1511781502E+02

    0.0000000000E+00    0.0000000000E+00   -0.1000000000E+01
    0.0000000000E+00   -0.1000000000E+01    0.0000000000E+00
   -0.1000000000E+01    0.0000000000E+00    0.0000000000E+00
    0.7558907511E+01      0.7558907511E+01      0.7558907511E+01

    0.0000000000E+00    0.0000000000E+00    0.1000000000E+01
    0.0000000000E+00    0.1000000000E+01    0.0000000000E+00
    0.1000000000E+01    0.0000000000E+00    0.0000000000E+00
    0.7558907511E+01      0.7558907511E+01      0.7558907511E+01

    0.0000000000E+00    0.0000000000E+00   -0.1000000000E+01
    0.1000000000E+01    0.0000000000E+00    0.0000000000E+00
    0.0000000000E+00   -0.1000000000E+01    0.0000000000E+00
    0.0000000000E+00      0.0000000000E+00      0.0000000000E+00

    0.0000000000E+00    0.0000000000E+00    0.1000000000E+01
   -0.1000000000E+01    0.0000000000E+00    0.0000000000E+00
    0.0000000000E+00    0.1000000000E+01    0.0000000000E+00
    0.7558907511E+01      0.7558907511E+01      0.1511781502E+02

    0.0000000000E+00    0.1000000000E+01    0.0000000000E+00
    0.1000000000E+01    0.0000000000E+00    0.0000000000E+00
    0.0000000000E+00    0.0000000000E+00   -0.1000000000E+01
    0.7558907511E+01      0.7558907511E+01      0.7558907511E+01

    0.0000000000E+00   -0.1000000000E+01    0.0000000000E+00
   -0.1000000000E+01    0.0000000000E+00    0.0000000000E+00
    0.0000000000E+00    0.0000000000E+00    0.1000000000E+01
    0.7558907511E+01      0.7558907511E+01      0.7558907511E+01

    0.0000000000E+00    0.0000000000E+00    0.1000000000E+01
    0.1000000000E+01    0.0000000000E+00    0.0000000000E+00
    0.0000000000E+00    0.1000000000E+01    0.0000000000E+00
    0.7558907511E+01      0.1678414632E-14      0.7558907511E+01

    0.0000000000E+00    0.0000000000E+00   -0.1000000000E+01
   -0.1000000000E+01    0.0000000000E+00    0.0000000000E+00
    0.0000000000E+00   -0.1000000000E+01    0.0000000000E+00
    0.1678414632E-14      0.7558907511E+01      0.7558907511E+01

    0.0000000000E+00   -0.1000000000E+01    0.0000000000E+00
    0.1000000000E+01    0.0000000000E+00    0.0000000000E+00
    0.0000000000E+00    0.0000000000E+00    0.1000000000E+01
    0.7558907511E+01      0.7558907511E+01      0.7558907511E+01

    0.0000000000E+00    0.1000000000E+01    0.0000000000E+00
   -0.1000000000E+01    0.0000000000E+00    0.0000000000E+00
    0.0000000000E+00    0.0000000000E+00   -0.1000000000E+01
    0.7558907511E+01      0.7558907511E+01      0.7558907511E+01

    0.0000000000E+00    0.0000000000E+00   -0.1000000000E+01
   -0.1000000000E+01    0.0000000000E+00    0.0000000000E+00
    0.0000000000E+00    0.1000000000E+01    0.0000000000E+00
    0.1678414632E-14      0.1678414632E-14      0.0000000000E+00

    0.0000000000E+00    0.0000000000E+00    0.1000000000E+01
    0.1000000000E+01    0.0000000000E+00    0.0000000000E+00
    0.0000000000E+00   -0.1000000000E+01    0.0000000000E+00
    0.7558907511E+01      0.7558907511E+01      0.1511781502E+02

    0.0000000000E+00   -0.1000000000E+01    0.0000000000E+00
   -0.1000000000E+01    0.0000000000E+00    0.0000000000E+00
    0.0000000000E+00    0.0000000000E+00   -0.1000000000E+01
    0.7558907511E+01      0.7558907511E+01      0.7558907511E+01

    0.0000000000E+00    0.1000000000E+01    0.0000000000E+00
    0.1000000000E+01    0.0000000000E+00    0.0000000000E+00
    0.0000000000E+00    0.0000000000E+00    0.1000000000E+01
    0.7558907511E+01      0.7558907511E+01      0.7558907511E+01

    0.0000000000E+00    0.0000000000E+00    0.1000000000E+01
   -0.1000000000E+01    0.0000000000E+00    0.0000000000E+00
    0.0000000000E+00   -0.1000000000E+01    0.0000000000E+00
    0.1678414632E-14      0.7558907511E+01      0.7558907511E+01

    0.0000000000E+00    0.0000000000E+00   -0.1000000000E+01
    0.1000000000E+01    0.0000000000E+00    0.0000000000E+00
    0.0000000000E+00    0.1000000000E+01    0.0000000000E+00
    0.7558907511E+01      0.1678414632E-14      0.7558907511E+01

    0.0000000000E+00    0.1000000000E+01    0.0000000000E+00
   -0.1000000000E+01    0.0000000000E+00    0.0000000000E+00
    0.0000000000E+00    0.0000000000E+00    0.1000000000E+01
    0.7558907511E+01      0.7558907511E+01      0.7558907511E+01

    0.0000000000E+00   -0.1000000000E+01    0.0000000000E+00
    0.1000000000E+01    0.0000000000E+00    0.0000000000E+00
    0.0000000000E+00    0.0000000000E+00   -0.1000000000E+01
    0.7558907511E+01      0.7558907511E+01      0.7558907511E+01

    0.0000000000E+00    0.1000000000E+01    0.0000000000E+00
    0.0000000000E+00    0.0000000000E+00   -0.1000000000E+01
   -0.1000000000E+01    0.0000000000E+00    0.0000000000E+00
    0.0000000000E+00      0.0000000000E+00      0.0000000000E+00

    0.0000000000E+00   -0.1000000000E+01    0.0000000000E+00
    0.0000000000E+00    0.0000000000E+00    0.1000000000E+01
    0.1000000000E+01    0.0000000000E+00    0.0000000000E+00
    0.7558907511E+01      0.7558907511E+01      0.1511781502E+02

    0.1000000000E+01    0.0000000000E+00    0.0000000000E+00
    0.0000000000E+00    0.0000000000E+00   -0.1000000000E+01
    0.0000000000E+00    0.1000000000E+01    0.0000000000E+00
    0.7558907511E+01      0.7558907511E+01      0.7558907511E+01

   -0.1000000000E+01    0.0000000000E+00    0.0000000000E+00
    0.0000000000E+00    0.0000000000E+00    0.1000000000E+01
    0.0000000000E+00   -0.1000000000E+01    0.0000000000E+00
    0.7558907511E+01      0.7558907511E+01      0.7558907511E+01

    0.0000000000E+00   -0.1000000000E+01    0.0000000000E+00
    0.0000000000E+00    0.0000000000E+00   -0.1000000000E+01
    0.1000000000E+01    0.0000000000E+00    0.0000000000E+00
    0.1678414632E-14      0.1678414632E-14      0.0000000000E+00

    0.0000000000E+00    0.1000000000E+01    0.0000000000E+00
    0.0000000000E+00    0.0000000000E+00    0.1000000000E+01
   -0.1000000000E+01    0.0000000000E+00    0.0000000000E+00
    0.7558907511E+01      0.7558907511E+01      0.1511781502E+02

   -0.1000000000E+01    0.0000000000E+00    0.0000000000E+00
    0.0000000000E+00    0.0000000000E+00   -0.1000000000E+01
    0.0000000000E+00   -0.1000000000E+01    0.0000000000E+00
    0.7558907511E+01      0.7558907511E+01      0.7558907511E+01

    0.1000000000E+01    0.0000000000E+00    0.0000000000E+00
    0.0000000000E+00    0.0000000000E+00    0.1000000000E+01
    0.0000000000E+00    0.1000000000E+01    0.0000000000E+00
    0.7558907511E+01      0.7558907511E+01      0.7558907511E+01

    0.0000000000E+00    0.1000000000E+01    0.0000000000E+00
    0.0000000000E+00    0.0000000000E+00    0.1000000000E+01
    0.1000000000E+01    0.0000000000E+00    0.0000000000E+00
    0.1678414632E-14      0.7558907511E+01      0.7558907511E+01

    0.0000000000E+00   -0.1000000000E+01    0.0000000000E+00
    0.0000000000E+00    0.0000000000E+00   -0.1000000000E+01
   -0.1000000000E+01    0.0000000000E+00    0.0000000000E+00
    0.7558907511E+01      0.1678414632E-14      0.7558907511E+01

   -0.1000000000E+01    0.0000000000E+00    0.0000000000E+00
    0.0000000000E+00    0.0000000000E+00    0.1000000000E+01
    0.0000000000E+00    0.1000000000E+01    0.0000000000E+00
    0.7558907511E+01      0.7558907511E+01      0.7558907511E+01

    0.1000000000E+01    0.0000000000E+00    0.0000000000E+00
    0.0000000000E+00    0.0000000000E+00   -0.1000000000E+01
    0.0000000000E+00   -0.1000000000E+01    0.0000000000E+00
    0.7558907511E+01      0.7558907511E+01      0.7558907511E+01

    0.0000000000E+00   -0.1000000000E+01    0.0000000000E+00
    0.0000000000E+00    0.0000000000E+00    0.1000000000E+01
   -0.1000000000E+01    0.0000000000E+00    0.0000000000E+00
    0.7558907511E+01      0.1678414632E-14      0.7558907511E+01

    0.0000000000E+00    0.1000000000E+01    0.0000000000E+00
    0.0000000000E+00    0.0000000000E+00   -0.1000000000E+01
    0.1000000000E+01    0.0000000000E+00    0.0000000000E+00
    0.1678414632E-14      0.7558907511E+01      0.7558907511E+01

    0.1000000000E+01    0.0000000000E+00    0.0000000000E+00
    0.0000000000E+00    0.0000000000E+00    0.1000000000E+01
    0.0000000000E+00   -0.1000000000E+01    0.0000000000E+00
    0.7558907511E+01      0.7558907511E+01      0.7558907511E+01

   -0.1000000000E+01    0.0000000000E+00    0.0000000000E+00
    0.0000000000E+00    0.0000000000E+00   -0.1000000000E+01
    0.0000000000E+00    0.1000000000E+01    0.0000000000E+00
    0.7558907511E+01      0.7558907511E+01      0.7558907511E+01

----------------------------------------------------------------------


siesta: ******************** Simulation parameters ****************************
siesta:
siesta: The following are some of the parameters of the simulation.
siesta: A complete list of the parameters used, including default values,
siesta: can be found in file out.fdf
siesta:
redata: Spin configuration                          = none
redata: Number of spin components                   = 1
redata: Time-Reversal Symmetry                      = T
redata: Spin-spiral                                 = F
redata: Long output                                 =   F
redata: Number of Atomic Species                    =        1
redata: Charge density info will appear in .RHO file
redata: Write Mulliken Pop.                         = NO
redata: Matel table size (NRTAB)                    =     1024
redata: Mesh Cutoff                                 =   300.0000 Ry
redata: Net charge of the system                    =     0.0000 |e|
redata: Min. number of SCF Iter                     =        0
redata: Max. number of SCF Iter                     =        0
redata: SCF mix quantity                            = Hamiltonian
redata: Mix DM or H after convergence               =   F
redata: Recompute H after scf cycle                 =   F
redata: Mix DM in first SCF step                    =   T
redata: Write Pulay info on disk                    =   F
redata: New DM Mixing Weight                        =     0.2500
redata: New DM Occupancy tolerance                  = 0.000000000001
redata: No kicks to SCF
redata: DM Mixing Weight for Kicks                  =     0.5000
redata: Require Harris convergence for SCF          =   F
redata: Harris energy tolerance for SCF             =     0.000100 eV
redata: Require DM convergence for SCF              =   T
redata: DM tolerance for SCF                        =     0.000100
redata: Require EDM convergence for SCF             =   F
redata: EDM tolerance for SCF                       =     0.001000 eV
redata: Require H convergence for SCF               =   T
redata: Hamiltonian tolerance for SCF               =     0.001000 eV
redata: Require (free) Energy convergence for SCF   =   F
redata: (free) Energy tolerance for SCF             =     0.000100 eV
redata: Using Saved Data (generic)                  =   F
redata: Use continuation files for DM               =   F
redata: Neglect nonoverlap interactions             =   F
redata: Method of Calculation                       = Diagonalization
redata: Electronic Temperature                      =   299.9869 K
redata: Fix the spin of the system                  =   F
redata: Max. number of TDED Iter                    =        1
redata: Number of TDED substeps                     =        3
redata: Dynamics option                             = Single-point calculation
mix.SCF: Pulay mixing                            = Pulay
mix.SCF:    Variant                              = stable
mix.SCF:    History steps                        = 2
mix.SCF:    Linear mixing weight                 =     0.250000
mix.SCF:    Mixing weight                        =     0.250000
mix.SCF:    SVD condition                        = 0.1000E-07
redata: ***********************************************************************

%block SCF.Mixers
  Pulay
%endblock SCF.Mixers

%block SCF.Mixer.Pulay
  # Mixing method
  method pulay
  variant stable

  # Mixing options
  weight 0.2500
  weight.linear 0.2500
  history 2
%endblock SCF.Mixer.Pulay

DM_history_depth set to one: no extrapolation allowed by default for geometry relaxation
Size of DM history Fstack: 1
Total number of electrons:    48.000000
Total ionic charge:    48.000000

* ProcessorY, Blocksize:    2  24


* Orbital distribution balance (max,min):    48    24


siesta: k-grid: Number of k-points =         1
siesta: k-point is Gamma-only

diag: Algorithm                                     = D&C
diag: Parallel over k                               =   F
diag: Use parallel 2D distribution                  =   T
diag: Parallel block-size                           = 24
diag: Parallel distribution                         =     2 x     4
diag: Used triangular part                          = Lower
diag: Absolute tolerance                            =  0.100E-15
diag: Orthogonalization factor                      =  0.100E-05
diag: Memory factor                                 =  1.0000


ts: **************************************************************
ts: Save H and S matrices                           =    F
ts: Save DM and EDM matrices                        =    F
ts: Fix Hartree potential                           =    F
ts: Only save the overlap matrix S                  =    F
ts: **************************************************************

************************ Begin: TS CHECKS AND WARNINGS ************************
************************ End: TS CHECKS AND WARNINGS **************************


                     ====================================
                        Single-point calculation
                     ====================================

outcell: Unit cell vectors (Ang):
        0.000000    4.000000    4.000000
        4.000000    0.000000    4.000000
        4.000000    4.000000    0.000000

outcell: Cell vector modules (Ang)   :    5.656854    5.656854    5.656854
outcell: Cell angles (23,13,12) (deg):     60.0000     60.0000     60.0000
outcell: Cell volume (Ang**3)        :    128.0000
Gamma-point calculation with interaction between periodic images
Some features might not work optimally:
e.g. DM initialization from atomic data
<dSpData1D:S at geom step 0
  <sparsity:sparsity for geom step 0
    nrows_g=240 nrows=48 sparsity=.2000 nnzs=11520, refcount: 7>
  <dData1D:(new from dSpData1D) n=11520, refcount: 1>
refcount: 1>
new_DM -- step:     1
Initializing Density Matrix...
DM filled with atomic data:
<dSpData2D:DM initialized from atoms
  <sparsity:sparsity for geom step 0
    nrows_g=240 nrows=48 sparsity=.2000 nnzs=11520, refcount: 8>
  <dData2D:DM n=11520 m=1, refcount: 1>
refcount: 1>
No. of atoms with KB's overlaping orbs in proc 0. Max # of overlaps:      48     273
New grid distribution:   1
           1       1:   25    1:   13    1:    7
           2       1:   25    1:   13    8:   13
           3       1:   25    1:   13   14:   19
           4       1:   25    1:   13   20:   25
           5       1:   25   14:   25    1:    7
           6       1:   25   14:   25    8:   13
           7       1:   25   14:   25   14:   19
           8       1:   25   14:   25   20:   25

InitMesh: MESH =    50 x    50 x    50 =      125000
InitMesh: (bp) =    25 x    25 x    25 =       15625
InitMesh: Mesh cutoff (required, used) =   300.000   323.879 Ry
ExtMesh (bp) on 0 =    81 x    69 x    63 =      352107
New grid distribution:   2
           1       1:   13   14:   25   13:   25
           2      13:   25    1:   12    1:   12
           3      13:   25    1:   13   13:   25
           4       1:   12   13:   25    1:   12
           5       1:   12    1:   13   13:   25
           6      13:   25   13:   25    1:   12
           7      14:   25   14:   25   13:   25
           8       1:   12    1:   12    1:   12
New grid distribution:   3
           1       1:   13    1:   13    1:   13
           2      14:   25   14:   25    1:   13
           3       1:   13    1:   13   14:   25
           4      14:   25    1:   13   14:   25
           5       1:   13   14:   25    1:   13
           6      14:   25    1:   13    1:   13
           7       1:   13   14:   25   14:   25
           8      14:   25   14:   25   14:   25
Setting up quadratic distribution...
ExtMesh (bp) on 0 =    69 x    68 x    69 =      323748
PhiOnMesh: Number of (b)points on node 0 =                 2028
PhiOnMesh: nlist on node 0 =               261199
SCF_NOT_CONV: SCF did not converge  in maximum number of steps.
Geom step, scf iteration, dmax:    0     0     0.000000

Using DM_out to compute the final energy and forces
No. of atoms with KB's overlaping orbs in proc 0. Max # of overlaps:      48     273

siesta: E_KS(eV) =             -715.6200
change in fa due to symmetrization =    -0.40523140398818213725E-13   -0.12251311076738602424E-12   -0.66169292267659329809E-13
change in fa due to symmetrization =     0.39857006584043119801E-13    0.12342904476270177838E-12    0.64837024638109141961E-13
change in fa due to symmetrization =     0.10846878950587779400E-12    0.62533311862011942139E-13   -0.17652546091539988993E-13
change in fa due to symmetrization =    -0.99253938401488994714E-13   -0.59480198544292761653E-13    0.24646951146678475197E-13
change in fa due to symmetrization =     0.42188474935755948536E-13   -0.12329026688462363381E-12    0.61950444774083734956E-13
change in fa due to symmetrization =    -0.26867397195928788278E-13    0.12137513216714523878E-12   -0.75273121069585613441E-13
change in fa due to symmetrization =    -0.10325074129013955826E-12    0.61950444774083734956E-13    0.17874590696465020301E-13
change in fa due to symmetrization =    -0.40523140398818213725E-13   -0.12251311076738602424E-12   -0.66169292267659329809E-13
change in fa due to symmetrization =    -0.40523140398818213725E-13   -0.12251311076738602424E-12   -0.66169292267659329809E-13
change in fa due to symmetrization =     0.39857006584043119801E-13    0.12342904476270177838E-12    0.64837024638109141961E-13
change in fa due to symmetrization =     0.10846878950587779400E-12    0.62533311862011942139E-13   -0.17652546091539988993E-13
change in fa due to symmetrization =    -0.99253938401488994714E-13   -0.59480198544292761653E-13    0.24646951146678475197E-13
change in fa due to symmetrization =     0.42188474935755948536E-13   -0.12329026688462363381E-12    0.61950444774083734956E-13
change in fa due to symmetrization =    -0.26867397195928788278E-13    0.12137513216714523878E-12   -0.75273121069585613441E-13
change in fa due to symmetrization =    -0.40523140398818213725E-13   -0.12251311076738602424E-12   -0.66169292267659329809E-13
change in fa due to symmetrization =     0.39857006584043119801E-13    0.12342904476270177838E-12    0.64837024638109141961E-13
change in fa due to symmetrization =     0.10846878950587779400E-12    0.62533311862011942139E-13   -0.17652546091539988993E-13
change in fa due to symmetrization =    -0.99253938401488994714E-13   -0.59480198544292761653E-13    0.24646951146678475197E-13
change in fa due to symmetrization =     0.42188474935755948536E-13   -0.12329026688462363381E-12    0.61950444774083734956E-13
change in fa due to symmetrization =    -0.26867397195928788278E-13    0.12137513216714523878E-12   -0.75273121069585613441E-13
change in fa due to symmetrization =    -0.10325074129013955826E-12    0.61950444774083734956E-13    0.17874590696465020301E-13
change in fa due to symmetrization =    -0.40523140398818213725E-13   -0.12251311076738602424E-12   -0.66169292267659329809E-13
change in fa due to symmetrization =     0.39857006584043119801E-13    0.12342904476270177838E-12    0.64837024638109141961E-13
change in fa due to symmetrization =     0.10846878950587779400E-12    0.62533311862011942139E-13   -0.17652546091539988993E-13
change in fa due to symmetrization =    -0.99253938401488994714E-13   -0.59480198544292761653E-13    0.24646951146678475197E-13
change in fa due to symmetrization =     0.42188474935755948536E-13   -0.12329026688462363381E-12    0.61950444774083734956E-13
change in fa due to symmetrization =    -0.26867397195928788278E-13    0.12137513216714523878E-12   -0.75273121069585613441E-13
change in fa due to symmetrization =    -0.40523140398818213725E-13   -0.12251311076738602424E-12   -0.66169292267659329809E-13
change in fa due to symmetrization =     0.39857006584043119801E-13    0.12342904476270177838E-12    0.64837024638109141961E-13
change in fa due to symmetrization =     0.10846878950587779400E-12    0.62533311862011942139E-13   -0.17652546091539988993E-13
change in fa due to symmetrization =    -0.99253938401488994714E-13   -0.59480198544292761653E-13    0.24646951146678475197E-13
change in fa due to symmetrization =     0.42188474935755948536E-13   -0.12329026688462363381E-12    0.61950444774083734956E-13
change in fa due to symmetrization =    -0.26867397195928788278E-13    0.12137513216714523878E-12   -0.75273121069585613441E-13
change in fa due to symmetrization =    -0.40523140398818213725E-13   -0.12251311076738602424E-12   -0.66169292267659329809E-13
change in fa due to symmetrization =     0.39857006584043119801E-13    0.12342904476270177838E-12    0.64837024638109141961E-13
change in fa due to symmetrization =     0.10846878950587779400E-12    0.62533311862011942139E-13   -0.17652546091539988993E-13
change in fa due to symmetrization =    -0.10325074129013955826E-12    0.61950444774083734956E-13    0.17874590696465020301E-13
change in fa due to symmetrization =     0.10436096431476471480E-12   -0.60479399266455402540E-13   -0.24646951146678475197E-13
change in fa due to symmetrization =    -0.99253938401488994714E-13   -0.59480198544292761653E-13    0.24646951146678475197E-13
change in fa due to symmetrization =     0.42188474935755948536E-13   -0.12329026688462363381E-12    0.61950444774083734956E-13
change in fa due to symmetrization =    -0.26867397195928788278E-13    0.12137513216714523878E-12   -0.75273121069585613441E-13
change in fa due to symmetrization =    -0.10325074129013955826E-12    0.61950444774083734956E-13    0.17874590696465020301E-13
change in fa due to symmetrization =     0.10436096431476471480E-12   -0.60479399266455402540E-13   -0.24646951146678475197E-13
change in fa due to symmetrization =    -0.42077452633293432882E-13    0.12484457911909885297E-12    0.63726801613483985420E-13
change in fa due to symmetrization =     0.33972824553529790137E-13   -0.11943224187405121484E-12   -0.73496764230185362976E-13
change in fa due to symmetrization =     0.98365759981788869482E-13   -0.63948846218409016728E-13    0.18540724511240114225E-13
change in fa due to symmetrization =    -0.10325074129013955826E-12    0.59174887212520843605E-13   -0.23536728122053318657E-13
change in fa due to symmetrization =     0.41522341120980854612E-13    0.12195799925507344597E-12   -0.62394533983933797572E-13
change in fa due to symmetrization =    -0.33306690738754696213E-13   -0.12631562462672718539E-12    0.75273121069585613441E-13
change in fa due to symmetrization =    -0.10780265569110270008E-12   -0.60118576783452226664E-13   -0.17097434579227410723E-13
change in fa due to symmetrization =    -0.10325074129013955826E-12    0.61950444774083734956E-13    0.17874590696465020301E-13
change in fa due to symmetrization =     0.10436096431476471480E-12   -0.60479399266455402540E-13   -0.24646951146678475197E-13
change in fa due to symmetrization =    -0.42077452633293432882E-13    0.12484457911909885297E-12    0.63726801613483985420E-13
change in fa due to symmetrization =     0.10436096431476471480E-12   -0.60479399266455402540E-13   -0.24646951146678475197E-13
change in fa due to symmetrization =    -0.42077452633293432882E-13    0.12484457911909885297E-12    0.63726801613483985420E-13
change in fa due to symmetrization =     0.33972824553529790137E-13   -0.11943224187405121484E-12   -0.73496764230185362976E-13
change in fa due to symmetrization =     0.98365759981788869482E-13   -0.63948846218409016728E-13    0.18540724511240114225E-13
change in fa due to symmetrization =    -0.10325074129013955826E-12    0.59174887212520843605E-13   -0.23536728122053318657E-13
change in fa due to symmetrization =     0.41522341120980854612E-13    0.12195799925507344597E-12   -0.62394533983933797572E-13
change in fa due to symmetrization =    -0.33306690738754696213E-13   -0.12631562462672718539E-12    0.75273121069585613441E-13
change in fa due to symmetrization =    -0.10780265569110270008E-12   -0.60118576783452226664E-13   -0.17097434579227410723E-13
change in fa due to symmetrization =     0.95257135512838431168E-13    0.60507154842071031453E-13    0.30198066269804257900E-13
change in fa due to symmetrization =     0.61617377866696187994E-13   -0.11046719095020307577E-12   -0.13988810110276972409E-13
change in fa due to symmetrization =    -0.61284310959308641031E-13    0.94591001698063337244E-13    0.27311486405778850894E-13
change in fa due to symmetrization =     0.10436096431476471480E-12   -0.60479399266455402540E-13   -0.24646951146678475197E-13
change in fa due to symmetrization =    -0.42077452633293432882E-13    0.12484457911909885297E-12    0.63726801613483985420E-13
change in fa due to symmetrization =     0.95257135512838431168E-13    0.60507154842071031453E-13    0.30198066269804257900E-13
change in fa due to symmetrization =     0.61617377866696187994E-13   -0.11046719095020307577E-12   -0.13988810110276972409E-13
change in fa due to symmetrization =    -0.61284310959308641031E-13    0.94591001698063337244E-13    0.27311486405778850894E-13
change in fa due to symmetrization =    -0.12051470932306074246E-12   -0.39523939676655572839E-13    0.69277916736609768122E-13
change in fa due to symmetrization =     0.11904366381543241005E-12    0.29087843245179101359E-13   -0.77271522513910895213E-13
change in fa due to symmetrization =     0.33972824553529790137E-13   -0.11943224187405121484E-12   -0.73496764230185362976E-13
change in fa due to symmetrization =     0.98365759981788869482E-13   -0.63948846218409016728E-13    0.18540724511240114225E-13
change in fa due to symmetrization =    -0.10325074129013955826E-12    0.59174887212520843605E-13   -0.23536728122053318657E-13
change in fa due to symmetrization =     0.41522341120980854612E-13    0.12195799925507344597E-12   -0.62394533983933797572E-13
change in fa due to symmetrization =    -0.10325074129013955826E-12    0.61950444774083734956E-13    0.17874590696465020301E-13
change in fa due to symmetrization =     0.10436096431476471480E-12   -0.60479399266455402540E-13   -0.24646951146678475197E-13
change in fa due to symmetrization =    -0.42077452633293432882E-13    0.12484457911909885297E-12    0.63726801613483985420E-13
change in fa due to symmetrization =     0.33972824553529790137E-13   -0.11943224187405121484E-12   -0.73496764230185362976E-13
change in fa due to symmetrization =     0.98365759981788869482E-13   -0.63948846218409016728E-13    0.18540724511240114225E-13
change in fa due to symmetrization =    -0.10325074129013955826E-12    0.59174887212520843605E-13   -0.23536728122053318657E-13
change in fa due to symmetrization =     0.41522341120980854612E-13    0.12195799925507344597E-12   -0.62394533983933797572E-13
change in fa due to symmetrization =    -0.42077452633293432882E-13    0.12484457911909885297E-12    0.63726801613483985420E-13
change in fa due to symmetrization =     0.33972824553529790137E-13   -0.11943224187405121484E-12   -0.73496764230185362976E-13
change in fa due to symmetrization =     0.98365759981788869482E-13   -0.63948846218409016728E-13    0.18540724511240114225E-13
change in fa due to symmetrization =    -0.10325074129013955826E-12    0.59174887212520843605E-13   -0.23536728122053318657E-13
change in fa due to symmetrization =     0.41522341120980854612E-13    0.12195799925507344597E-12   -0.62394533983933797572E-13
change in fa due to symmetrization =    -0.33306690738754696213E-13   -0.12631562462672718539E-12    0.75273121069585613441E-13
change in fa due to symmetrization =    -0.10780265569110270008E-12   -0.60118576783452226664E-13   -0.17097434579227410723E-13
change in fa due to symmetrization =     0.33972824553529790137E-13   -0.11943224187405121484E-12   -0.73496764230185362976E-13
change in fa due to symmetrization =     0.98365759981788869482E-13   -0.63948846218409016728E-13    0.18540724511240114225E-13
change in fa due to symmetrization =     0.64143135247718419123E-13    0.10191847366058937041E-12    0.18096635301390051609E-13
change in fa due to symmetrization =    -0.61894933622852477129E-13   -0.10569323194431490265E-12   -0.16986412276764895068E-13
change in fa due to symmetrization =    -0.12159717677207027009E-12    0.36082248300317587564E-13   -0.70721206668622471625E-13
change in fa due to symmetrization =    -0.33306690738754696213E-13   -0.12631562462672718539E-12    0.75273121069585613441E-13
change in fa due to symmetrization =    -0.10780265569110270008E-12   -0.60118576783452226664E-13   -0.17097434579227410723E-13
change in fa due to symmetrization =     0.95257135512838431168E-13    0.60507154842071031453E-13    0.30198066269804257900E-13
change in fa due to symmetrization =    -0.33306690738754696213E-13   -0.12631562462672718539E-12    0.75273121069585613441E-13
change in fa due to symmetrization =     0.95257135512838431168E-13    0.60507154842071031453E-13    0.30198066269804257900E-13
change in fa due to symmetrization =     0.61617377866696187994E-13   -0.11046719095020307577E-12   -0.13988810110276972409E-13
change in fa due to symmetrization =    -0.61284310959308641031E-13    0.94591001698063337244E-13    0.27311486405778850894E-13
change in fa due to symmetrization =    -0.12051470932306074246E-12   -0.39523939676655572839E-13    0.69277916736609768122E-13
change in fa due to symmetrization =     0.12045919817182948464E-12   -0.32751579226442117942E-13    0.79714013168086239602E-13
change in fa due to symmetrization =    -0.62505556286396313226E-13    0.10846878950587779400E-12   -0.14210854715202003717E-13
change in fa due to symmetrization =     0.64309668701412192604E-13   -0.91482377229112898931E-13    0.27977620220553944819E-13
change in fa due to symmetrization =     0.12376211167008932534E-12    0.39301895071730541531E-13    0.64392935428259079345E-13
change in fa due to symmetrization =    -0.11937673072281995701E-12   -0.25202062658991053468E-13   -0.84821039081361959688E-13
change in fa due to symmetrization =     0.61617377866696187994E-13   -0.11046719095020307577E-12   -0.13988810110276972409E-13
change in fa due to symmetrization =     0.11904366381543241005E-12    0.29087843245179101359E-13   -0.77271522513910895213E-13
change in fa due to symmetrization =     0.64143135247718419123E-13    0.10191847366058937041E-12    0.18096635301390051609E-13
change in fa due to symmetrization =    -0.12051470932306074246E-12   -0.39523939676655572839E-13    0.69277916736609768122E-13
change in fa due to symmetrization =     0.11904366381543241005E-12    0.29087843245179101359E-13   -0.77271522513910895213E-13
change in fa due to symmetrization =     0.64143135247718419123E-13    0.10191847366058937041E-12    0.18096635301390051609E-13
change in fa due to symmetrization =    -0.10780265569110270008E-12   -0.60118576783452226664E-13   -0.17097434579227410723E-13
change in fa due to symmetrization =     0.95257135512838431168E-13    0.60507154842071031453E-13    0.30198066269804257900E-13
change in fa due to symmetrization =     0.61617377866696187994E-13   -0.11046719095020307577E-12   -0.13988810110276972409E-13
change in fa due to symmetrization =    -0.61284310959308641031E-13    0.94591001698063337244E-13    0.27311486405778850894E-13
change in fa due to symmetrization =    -0.12051470932306074246E-12   -0.39523939676655572839E-13    0.69277916736609768122E-13
change in fa due to symmetrization =     0.11904366381543241005E-12    0.29087843245179101359E-13   -0.77271522513910895213E-13
change in fa due to symmetrization =    -0.10325074129013955826E-12    0.59174887212520843605E-13   -0.23536728122053318657E-13
change in fa due to symmetrization =     0.41522341120980854612E-13    0.12195799925507344597E-12   -0.62394533983933797572E-13
change in fa due to symmetrization =    -0.33306690738754696213E-13   -0.12631562462672718539E-12    0.75273121069585613441E-13
change in fa due to symmetrization =    -0.10780265569110270008E-12   -0.60118576783452226664E-13   -0.17097434579227410723E-13
change in fa due to symmetrization =     0.95257135512838431168E-13    0.60507154842071031453E-13    0.30198066269804257900E-13
change in fa due to symmetrization =     0.61617377866696187994E-13   -0.11046719095020307577E-12   -0.13988810110276972409E-13
change in fa due to symmetrization =    -0.61284310959308641031E-13    0.94591001698063337244E-13    0.27311486405778850894E-13
change in fa due to symmetrization =    -0.12051470932306074246E-12   -0.39523939676655572839E-13    0.69277916736609768122E-13
change in fa due to symmetrization =     0.11904366381543241005E-12    0.29087843245179101359E-13   -0.77271522513910895213E-13
change in fa due to symmetrization =     0.64143135247718419123E-13    0.10191847366058937041E-12    0.18096635301390051609E-13
change in fa due to symmetrization =    -0.61894933622852477129E-13   -0.10569323194431490265E-12   -0.16986412276764895068E-13
change in fa due to symmetrization =    -0.61894933622852477129E-13   -0.10569323194431490265E-12   -0.16986412276764895068E-13
change in fa due to symmetrization =    -0.12159717677207027009E-12    0.36082248300317587564E-13   -0.70721206668622471625E-13
change in fa due to symmetrization =     0.12045919817182948464E-12   -0.32751579226442117942E-13    0.79714013168086239602E-13
change in fa due to symmetrization =    -0.62505556286396313226E-13    0.10846878950587779400E-12   -0.14210854715202003717E-13
change in fa due to symmetrization =     0.64309668701412192604E-13   -0.91482377229112898931E-13    0.27977620220553944819E-13
change in fa due to symmetrization =     0.12376211167008932534E-12    0.39301895071730541531E-13    0.64392935428259079345E-13
change in fa due to symmetrization =    -0.11937673072281995701E-12   -0.25202062658991053468E-13   -0.84821039081361959688E-13
change in fa due to symmetrization =    -0.61894933622852477129E-13   -0.10569323194431490265E-12   -0.16986412276764895068E-13
change in fa due to symmetrization =    -0.12159717677207027009E-12    0.36082248300317587564E-13   -0.70721206668622471625E-13
change in fa due to symmetrization =     0.12045919817182948464E-12   -0.32751579226442117942E-13    0.79714013168086239602E-13
change in fa due to symmetrization =    -0.62505556286396313226E-13    0.10846878950587779400E-12   -0.14210854715202003717E-13
change in fa due to symmetrization =     0.64309668701412192604E-13   -0.91482377229112898931E-13    0.27977620220553944819E-13
change in fa due to symmetrization =     0.12376211167008932534E-12    0.39301895071730541531E-13    0.64392935428259079345E-13
change in fa due to symmetrization =    -0.11937673072281995701E-12   -0.25202062658991053468E-13   -0.84821039081361959688E-13
change in fa due to symmetrization =    -0.60451643690839773626E-13   -0.10857981180834030965E-12    0.15099033134902128950E-13
change in fa due to symmetrization =     0.64143135247718419123E-13    0.10191847366058937041E-12    0.18096635301390051609E-13
change in fa due to symmetrization =    -0.61894933622852477129E-13   -0.10569323194431490265E-12   -0.16986412276764895068E-13
change in fa due to symmetrization =    -0.12159717677207027009E-12    0.36082248300317587564E-13   -0.70721206668622471625E-13
change in fa due to symmetrization =     0.12045919817182948464E-12   -0.32751579226442117942E-13    0.79714013168086239602E-13
change in fa due to symmetrization =    -0.62505556286396313226E-13    0.10846878950587779400E-12   -0.14210854715202003717E-13
change in fa due to symmetrization =     0.64309668701412192604E-13   -0.91482377229112898931E-13    0.27977620220553944819E-13
change in fa due to symmetrization =    -0.61284310959308641031E-13    0.94591001698063337244E-13    0.27311486405778850894E-13
change in fa due to symmetrization =    -0.12051470932306074246E-12   -0.39523939676655572839E-13    0.69277916736609768122E-13
change in fa due to symmetrization =     0.11904366381543241005E-12    0.29087843245179101359E-13   -0.77271522513910895213E-13
change in fa due to symmetrization =     0.64143135247718419123E-13    0.10191847366058937041E-12    0.18096635301390051609E-13
change in fa due to symmetrization =    -0.61894933622852477129E-13   -0.10569323194431490265E-12   -0.16986412276764895068E-13
change in fa due to symmetrization =    -0.12159717677207027009E-12    0.36082248300317587564E-13   -0.70721206668622471625E-13
change in fa due to symmetrization =     0.12045919817182948464E-12   -0.32751579226442117942E-13    0.79714013168086239602E-13
change in fa due to symmetrization =    -0.62505556286396313226E-13    0.10846878950587779400E-12   -0.14210854715202003717E-13
change in fa due to symmetrization =    -0.60451643690839773626E-13   -0.10857981180834030965E-12    0.15099033134902128950E-13
change in fa due to symmetrization =     0.65447647301652978058E-13    0.95923269327613525093E-13   -0.24868995751603506505E-13
change in fa due to symmetrization =     0.12231882173807662184E-12   -0.36415315207705134526E-13   -0.71165295878472534241E-13

siesta: E_KS - E_eggbox =      -715.6200
change in fa due to symmetrization =     0.64309668701412192604E-13   -0.91482377229112898931E-13    0.27977620220553944819E-13
change in fa due to symmetrization =     0.12376211167008932534E-12    0.39301895071730541531E-13    0.64392935428259079345E-13
change in fa due to symmetrization =    -0.11937673072281995701E-12   -0.25202062658991053468E-13   -0.84821039081361959688E-13
change in fa due to symmetrization =    -0.60451643690839773626E-13   -0.10857981180834030965E-12    0.15099033134902128950E-13
change in fa due to symmetrization =     0.65447647301652978058E-13    0.95923269327613525093E-13   -0.24868995751603506505E-13
change in fa due to symmetrization =     0.12231882173807662184E-12   -0.36415315207705134526E-13   -0.71165295878472534241E-13
change in fa due to symmetrization =    -0.12020939799128882441E-12    0.35083047578154946677E-13    0.77160500211448379559E-13
change in fa due to symmetrization =    -0.40523140398818213725E-13   -0.12251311076738602424E-12   -0.66169292267659329809E-13
change in fa due to symmetrization =     0.39857006584043119801E-13    0.12342904476270177838E-12    0.64837024638109141961E-13
change in fa due to symmetrization =     0.10846878950587779400E-12    0.62533311862011942139E-13   -0.17652546091539988993E-13
change in fa due to symmetrization =    -0.99253938401488994714E-13   -0.59480198544292761653E-13    0.24646951146678475197E-13
change in fa due to symmetrization =     0.42188474935755948536E-13   -0.12329026688462363381E-12    0.61950444774083734956E-13
change in fa due to symmetrization =    -0.12159717677207027009E-12    0.36082248300317587564E-13   -0.70721206668622471625E-13
change in fa due to symmetrization =     0.12045919817182948464E-12   -0.32751579226442117942E-13    0.79714013168086239602E-13
change in fa due to symmetrization =    -0.62505556286396313226E-13    0.10846878950587779400E-12   -0.14210854715202003717E-13
change in fa due to symmetrization =     0.64309668701412192604E-13   -0.91482377229112898931E-13    0.27977620220553944819E-13
change in fa due to symmetrization =     0.39857006584043119801E-13    0.12342904476270177838E-12    0.64837024638109141961E-13
change in fa due to symmetrization =     0.10846878950587779400E-12    0.62533311862011942139E-13   -0.17652546091539988993E-13
change in fa due to symmetrization =    -0.99253938401488994714E-13   -0.59480198544292761653E-13    0.24646951146678475197E-13
change in fa due to symmetrization =     0.42188474935755948536E-13   -0.12329026688462363381E-12    0.61950444774083734956E-13
change in fa due to symmetrization =    -0.26867397195928788278E-13    0.12137513216714523878E-12   -0.75273121069585613441E-13
change in fa due to symmetrization =    -0.10325074129013955826E-12    0.61950444774083734956E-13    0.17874590696465020301E-13
change in fa due to symmetrization =     0.10436096431476471480E-12   -0.60479399266455402540E-13   -0.24646951146678475197E-13
change in fa due to symmetrization =    -0.42077452633293432882E-13    0.12484457911909885297E-12    0.63726801613483985420E-13
change in fa due to symmetrization =     0.33972824553529790137E-13   -0.11943224187405121484E-12   -0.73496764230185362976E-13
change in fa due to symmetrization =     0.98365759981788869482E-13   -0.63948846218409016728E-13    0.18540724511240114225E-13
change in fa due to symmetrization =    -0.60451643690839773626E-13   -0.10857981180834030965E-12    0.15099033134902128950E-13
change in fa due to symmetrization =     0.65447647301652978058E-13    0.95923269327613525093E-13   -0.24868995751603506505E-13
change in fa due to symmetrization =     0.12231882173807662184E-12   -0.36415315207705134526E-13   -0.71165295878472534241E-13
change in fa due to symmetrization =    -0.12020939799128882441E-12    0.35083047578154946677E-13    0.77160500211448379559E-13
change in fa due to symmetrization =     0.27533531010703882203E-13    0.11657341758564143674E-13   -0.57426285948736222053E-13
change in fa due to symmetrization =    -0.44297898682543745963E-13   -0.27755575615628913511E-13    0.61090021929999238637E-13
change in fa due to symmetrization =     0.76605388699135801289E-14   -0.26312285683616210008E-13   -0.61062266354383609723E-13
change in fa due to symmetrization =     0.65447647301652978058E-13    0.95923269327613525093E-13   -0.24868995751603506505E-13
change in fa due to symmetrization =     0.12231882173807662184E-12   -0.36415315207705134526E-13   -0.71165295878472534241E-13
change in fa due to symmetrization =    -0.12020939799128882441E-12    0.35083047578154946677E-13    0.77160500211448379559E-13
change in fa due to symmetrization =     0.27533531010703882203E-13    0.11657341758564143674E-13   -0.57426285948736222053E-13
change in fa due to symmetrization =    -0.44297898682543745963E-13   -0.27755575615628913511E-13    0.61090021929999238637E-13
change in fa due to symmetrization =     0.12376211167008932534E-12    0.39301895071730541531E-13    0.64392935428259079345E-13
change in fa due to symmetrization =    -0.11937673072281995701E-12   -0.25202062658991053468E-13   -0.84821039081361959688E-13
change in fa due to symmetrization =    -0.60451643690839773626E-13   -0.10857981180834030965E-12    0.15099033134902128950E-13
change in fa due to symmetrization =     0.65447647301652978058E-13    0.95923269327613525093E-13   -0.24868995751603506505E-13
change in fa due to symmetrization =     0.12231882173807662184E-12   -0.36415315207705134526E-13   -0.71165295878472534241E-13
change in fa due to symmetrization =    -0.26867397195928788278E-13    0.12137513216714523878E-12   -0.75273121069585613441E-13
change in fa due to symmetrization =    -0.10325074129013955826E-12    0.61950444774083734956E-13    0.17874590696465020301E-13
change in fa due to symmetrization =     0.10436096431476471480E-12   -0.60479399266455402540E-13   -0.24646951146678475197E-13
change in fa due to symmetrization =    -0.42077452633293432882E-13    0.12484457911909885297E-12    0.63726801613483985420E-13
change in fa due to symmetrization =     0.33972824553529790137E-13   -0.11943224187405121484E-12   -0.73496764230185362976E-13
change in fa due to symmetrization =     0.12376211167008932534E-12    0.39301895071730541531E-13    0.64392935428259079345E-13
change in fa due to symmetrization =    -0.11937673072281995701E-12   -0.25202062658991053468E-13   -0.84821039081361959688E-13
change in fa due to symmetrization =    -0.60451643690839773626E-13   -0.10857981180834030965E-12    0.15099033134902128950E-13
change in fa due to symmetrization =     0.65447647301652978058E-13    0.95923269327613525093E-13   -0.24868995751603506505E-13
change in fa due to symmetrization =    -0.17985612998927535955E-13    0.37747582837255322374E-13    0.61284310959308641031E-13
change in fa due to symmetrization =    -0.20650148258027911652E-13   -0.12989609388114331523E-13   -0.59285909514983359259E-13
change in fa due to symmetrization =     0.28976820942716585705E-13    0.20872192862952942960E-13    0.53235194030776256113E-13
change in fa due to symmetrization =     0.76605388699135801289E-14   -0.26312285683616210008E-13   -0.61062266354383609723E-13
change in fa due to symmetrization =    -0.17985612998927535955E-13    0.37747582837255322374E-13    0.61284310959308641031E-13
change in fa due to symmetrization =    -0.20650148258027911652E-13   -0.12989609388114331523E-13   -0.59285909514983359259E-13
change in fa due to symmetrization =     0.28976820942716585705E-13    0.20872192862952942960E-13    0.53235194030776256113E-13
change in fa due to symmetrization =    -0.75495165674510644749E-14    0.22093438190040615154E-13   -0.60396132539608515799E-13
change in fa due to symmetrization =     0.27533531010703882203E-13    0.11657341758564143674E-13   -0.57426285948736222053E-13
change in fa due to symmetrization =    -0.44297898682543745963E-13   -0.27755575615628913511E-13    0.61090021929999238637E-13
change in fa due to symmetrization =     0.76605388699135801289E-14   -0.26312285683616210008E-13   -0.61062266354383609723E-13
change in fa due to symmetrization =     0.23536728122053318657E-13   -0.41966430330830917228E-13    0.62283511681471281918E-13
change in fa due to symmetrization =    -0.27422508708241366548E-13    0.15099033134902128950E-13    0.58619775700208265334E-13
change in fa due to symmetrization =     0.29976021664879226591E-13   -0.11879386363489174983E-13   -0.59091620485673956864E-13
change in fa due to symmetrization =    -0.17985612998927535955E-13    0.37747582837255322374E-13    0.61284310959308641031E-13
change in fa due to symmetrization =    -0.20650148258027911652E-13   -0.12989609388114331523E-13   -0.59285909514983359259E-13
change in fa due to symmetrization =     0.28976820942716585705E-13    0.20872192862952942960E-13    0.53235194030776256113E-13
change in fa due to symmetrization =    -0.75495165674510644749E-14    0.22093438190040615154E-13   -0.60396132539608515799E-13
change in fa due to symmetrization =    -0.12020939799128882441E-12    0.35083047578154946677E-13    0.77160500211448379559E-13
change in fa due to symmetrization =     0.27533531010703882203E-13    0.11657341758564143674E-13   -0.57426285948736222053E-13
change in fa due to symmetrization =    -0.44297898682543745963E-13   -0.27755575615628913511E-13    0.61090021929999238637E-13
change in fa due to symmetrization =     0.76605388699135801289E-14   -0.26312285683616210008E-13   -0.61062266354383609723E-13
change in fa due to symmetrization =    -0.17985612998927535955E-13    0.37747582837255322374E-13    0.61284310959308641031E-13
change in fa due to symmetrization =    -0.20650148258027911652E-13   -0.12989609388114331523E-13   -0.59285909514983359259E-13
change in fa due to symmetrization =     0.98365759981788869482E-13   -0.63948846218409016728E-13    0.18540724511240114225E-13
change in fa due to symmetrization =    -0.10325074129013955826E-12    0.59174887212520843605E-13   -0.23536728122053318657E-13
change in fa due to symmetrization =     0.41522341120980854612E-13    0.12195799925507344597E-12   -0.62394533983933797572E-13
change in fa due to symmetrization =    -0.33306690738754696213E-13   -0.12631562462672718539E-12    0.75273121069585613441E-13
change in fa due to symmetrization =    -0.10780265569110270008E-12   -0.60118576783452226664E-13   -0.17097434579227410723E-13
change in fa due to symmetrization =     0.95257135512838431168E-13    0.60507154842071031453E-13    0.30198066269804257900E-13
change in fa due to symmetrization =     0.61617377866696187994E-13   -0.11046719095020307577E-12   -0.13988810110276972409E-13
change in fa due to symmetrization =    -0.61284310959308641031E-13    0.94591001698063337244E-13    0.27311486405778850894E-13
change in fa due to symmetrization =    -0.10325074129013955826E-12    0.59174887212520843605E-13   -0.23536728122053318657E-13
change in fa due to symmetrization =     0.41522341120980854612E-13    0.12195799925507344597E-12   -0.62394533983933797572E-13
change in fa due to symmetrization =     0.12231882173807662184E-12   -0.36415315207705134526E-13   -0.71165295878472534241E-13
change in fa due to symmetrization =    -0.12020939799128882441E-12    0.35083047578154946677E-13    0.77160500211448379559E-13
change in fa due to symmetrization =     0.27533531010703882203E-13    0.11657341758564143674E-13   -0.57426285948736222053E-13
change in fa due to symmetrization =    -0.44297898682543745963E-13   -0.27755575615628913511E-13    0.61090021929999238637E-13
change in fa due to symmetrization =    -0.75495165674510644749E-14    0.22093438190040615154E-13   -0.60396132539608515799E-13
change in fa due to symmetrization =     0.23536728122053318657E-13   -0.41966430330830917228E-13    0.62283511681471281918E-13
change in fa due to symmetrization =    -0.27422508708241366548E-13    0.15099033134902128950E-13    0.58619775700208265334E-13
change in fa due to symmetrization =     0.29976021664879226591E-13   -0.11879386363489174983E-13   -0.59091620485673956864E-13
change in fa due to symmetrization =    -0.14432899320127035026E-13   -0.32307490016592055326E-13    0.64448446579490337172E-13
change in fa due to symmetrization =     0.14876988529977097642E-13    0.31197266991966898786E-13   -0.59313665090598988172E-13
change in fa due to symmetrization =     0.23980817331903381273E-13   -0.12323475573339237599E-13    0.59729998724833421875E-13
change in fa due to symmetrization =    -0.39523939676655572839E-13    0.23758772726978349965E-13   -0.59174887212520843605E-13
change in fa due to symmetrization =     0.23536728122053318657E-13   -0.41966430330830917228E-13    0.62283511681471281918E-13
change in fa due to symmetrization =    -0.27422508708241366548E-13    0.15099033134902128950E-13    0.58619775700208265334E-13
change in fa due to symmetrization =     0.29976021664879226591E-13   -0.11879386363489174983E-13   -0.59091620485673956864E-13
change in fa due to symmetrization =     0.28976820942716585705E-13    0.20872192862952942960E-13    0.53235194030776256113E-13
change in fa due to symmetrization =    -0.75495165674510644749E-14    0.22093438190040615154E-13   -0.60396132539608515799E-13
change in fa due to symmetrization =     0.23536728122053318657E-13   -0.41966430330830917228E-13    0.62283511681471281918E-13
change in fa due to symmetrization =    -0.12051470932306074246E-12   -0.39523939676655572839E-13    0.69277916736609768122E-13
change in fa due to symmetrization =     0.11904366381543241005E-12    0.29087843245179101359E-13   -0.77271522513910895213E-13
change in fa due to symmetrization =     0.64143135247718419123E-13    0.10191847366058937041E-12    0.18096635301390051609E-13
change in fa due to symmetrization =     0.76605388699135801289E-14   -0.26312285683616210008E-13   -0.61062266354383609723E-13
change in fa due to symmetrization =    -0.17985612998927535955E-13    0.37747582837255322374E-13    0.61284310959308641031E-13
change in fa due to symmetrization =    -0.20650148258027911652E-13   -0.12989609388114331523E-13   -0.59285909514983359259E-13
change in fa due to symmetrization =    -0.14432899320127035026E-13   -0.32307490016592055326E-13    0.64448446579490337172E-13
change in fa due to symmetrization =     0.14876988529977097642E-13    0.31197266991966898786E-13   -0.59313665090598988172E-13
change in fa due to symmetrization =     0.23980817331903381273E-13   -0.12323475573339237599E-13    0.59729998724833421875E-13
change in fa due to symmetrization =    -0.39523939676655572839E-13    0.23758772726978349965E-13   -0.59174887212520843605E-13
change in fa due to symmetrization =    -0.12020939799128882441E-12    0.35083047578154946677E-13    0.77160500211448379559E-13
change in fa due to symmetrization =     0.27533531010703882203E-13    0.11657341758564143674E-13   -0.57426285948736222053E-13
change in fa due to symmetrization =    -0.44297898682543745963E-13   -0.27755575615628913511E-13    0.61090021929999238637E-13
change in fa due to symmetrization =     0.76605388699135801289E-14   -0.26312285683616210008E-13   -0.61062266354383609723E-13
change in fa due to symmetrization =     0.28976820942716585705E-13    0.20872192862952942960E-13    0.53235194030776256113E-13
change in fa due to symmetrization =    -0.75495165674510644749E-14    0.22093438190040615154E-13   -0.60396132539608515799E-13
change in fa due to symmetrization =     0.23536728122053318657E-13   -0.41966430330830917228E-13    0.62283511681471281918E-13
change in fa due to symmetrization =    -0.27422508708241366548E-13    0.15099033134902128950E-13    0.58619775700208265334E-13
change in fa due to symmetrization =     0.29976021664879226591E-13   -0.11879386363489174983E-13   -0.59091620485673956864E-13
change in fa due to symmetrization =     0.12434497875801753253E-13    0.33195668436292180559E-13    0.63005156647477633669E-13
change in fa due to symmetrization =    -0.17208456881689926377E-13   -0.34416913763379852753E-13   -0.65530914028499864799E-13
change in fa due to symmetrization =    -0.17985612998927535955E-13    0.37747582837255322374E-13    0.61284310959308641031E-13
change in fa due to symmetrization =    -0.20650148258027911652E-13   -0.12989609388114331523E-13   -0.59285909514983359259E-13
change in fa due to symmetrization =     0.28976820942716585705E-13    0.20872192862952942960E-13    0.53235194030776256113E-13
change in fa due to symmetrization =    -0.75495165674510644749E-14    0.22093438190040615154E-13   -0.60396132539608515799E-13
change in fa due to symmetrization =     0.23536728122053318657E-13   -0.41966430330830917228E-13    0.62283511681471281918E-13
change in fa due to symmetrization =     0.12434497875801753253E-13    0.33195668436292180559E-13    0.63005156647477633669E-13
change in fa due to symmetrization =    -0.17208456881689926377E-13   -0.34416913763379852753E-13   -0.65530914028499864799E-13
Max change in any component of fa due to symmetrization =     0.1263156246E-12
Max relative change =     0.5481825906E-12
old  stress = 
change in fa due to symmetrization =    -0.14432899320127035026E-13   -0.32307490016592055326E-13    0.64448446579490337172E-13
change in fa due to symmetrization =     0.14876988529977097642E-13    0.31197266991966898786E-13   -0.59313665090598988172E-13
change in fa due to symmetrization =     0.23980817331903381273E-13   -0.12323475573339237599E-13    0.59729998724833421875E-13
change in fa due to symmetrization =    -0.39523939676655572839E-13    0.23758772726978349965E-13   -0.59174887212520843605E-13
change in fa due to symmetrization =     0.12434497875801753253E-13    0.33195668436292180559E-13    0.63005156647477633669E-13
change in fa due to symmetrization =    -0.17208456881689926377E-13   -0.34416913763379852753E-13   -0.65530914028499864799E-13
Max change in any component of fa due to symmetrization =     0.1263156246E-12
Max relative change =     0.5481825906E-12
change in fa due to symmetrization =    -0.27422508708241366548E-13    0.15099033134902128950E-13    0.58619775700208265334E-13
change in fa due to symmetrization =     0.29976021664879226591E-13   -0.11879386363489174983E-13   -0.59091620485673956864E-13
change in fa due to symmetrization =    -0.14432899320127035026E-13   -0.32307490016592055326E-13    0.64448446579490337172E-13
change in fa due to symmetrization =     0.14876988529977097642E-13    0.31197266991966898786E-13   -0.59313665090598988172E-13
change in fa due to symmetrization =     0.23980817331903381273E-13   -0.12323475573339237599E-13    0.59729998724833421875E-13
change in fa due to symmetrization =    -0.39523939676655572839E-13    0.23758772726978349965E-13   -0.59174887212520843605E-13
change in fa due to symmetrization =     0.12434497875801753253E-13    0.33195668436292180559E-13    0.63005156647477633669E-13
change in fa due to symmetrization =    -0.61894933622852477129E-13   -0.10569323194431490265E-12   -0.16986412276764895068E-13
change in fa due to symmetrization =    -0.12159717677207027009E-12    0.36082248300317587564E-13   -0.70721206668622471625E-13
change in fa due to symmetrization =     0.12045919817182948464E-12   -0.32751579226442117942E-13    0.79714013168086239602E-13
change in fa due to symmetrization =    -0.62505556286396313226E-13    0.10846878950587779400E-12   -0.14210854715202003717E-13
change in fa due to symmetrization =     0.64309668701412192604E-13   -0.91482377229112898931E-13    0.27977620220553944819E-13
change in fa due to symmetrization =     0.12376211167008932534E-12    0.39301895071730541531E-13    0.64392935428259079345E-13
change in fa due to symmetrization =    -0.11937673072281995701E-12   -0.25202062658991053468E-13   -0.84821039081361959688E-13
change in fa due to symmetrization =    -0.17208456881689926377E-13   -0.34416913763379852753E-13   -0.65530914028499864799E-13
Max change in any component of fa due to symmetrization =     0.1263156246E-12
Max change in any component of fa due to symmetrization =     0.1263156246E-12
Max relative change =     0.5481825906E-12
change in fa due to symmetrization =    -0.60451643690839773626E-13   -0.10857981180834030965E-12    0.15099033134902128950E-13
change in fa due to symmetrization =     0.65447647301652978058E-13    0.95923269327613525093E-13   -0.24868995751603506505E-13
change in fa due to symmetrization =     0.12231882173807662184E-12   -0.36415315207705134526E-13   -0.71165295878472534241E-13
change in fa due to symmetrization =    -0.12020939799128882441E-12    0.35083047578154946677E-13    0.77160500211448379559E-13
change in fa due to symmetrization =     0.27533531010703882203E-13    0.11657341758564143674E-13   -0.57426285948736222053E-13
change in fa due to symmetrization =    -0.27422508708241366548E-13    0.15099033134902128950E-13    0.58619775700208265334E-13
change in fa due to symmetrization =     0.29976021664879226591E-13   -0.11879386363489174983E-13   -0.59091620485673956864E-13
change in fa due to symmetrization =    -0.14432899320127035026E-13   -0.32307490016592055326E-13    0.64448446579490337172E-13
change in fa due to symmetrization =     0.14876988529977097642E-13    0.31197266991966898786E-13   -0.59313665090598988172E-13
    0.2859308988E-02    0.2371692252E-17    0.5576864925E-17
    0.1572093150E-17    0.2859308988E-02   -0.1712361806E-16
    0.5895349313E-17   -0.1603941589E-16    0.2859308988E-02
stress with symmetrization = 
    0.2859308988E-02    0.0000000000E+00    0.0000000000E+00
    0.0000000000E+00    0.2859308988E-02    0.0000000000E+00
    0.0000000000E+00    0.0000000000E+00    0.2859308988E-02
change in components of stress due to symmetrization = 
   -0.2706168623E-15   -0.2371692252E-17   -0.5576864925E-17
   -0.1572093150E-17   -0.2762547135E-15    0.1712361806E-16
   -0.5895349313E-17    0.1603941589E-16    0.5481726184E-15
Max change in any component of stress due to symmetrization =     0.5481726184E-15
change in fa due to symmetrization =    -0.44297898682543745963E-13   -0.27755575615628913511E-13    0.61090021929999238637E-13
change in fa due to symmetrization =     0.76605388699135801289E-14   -0.26312285683616210008E-13   -0.61062266354383609723E-13
change in fa due to symmetrization =    -0.17985612998927535955E-13    0.37747582837255322374E-13    0.61284310959308641031E-13
change in fa due to symmetrization =    -0.20650148258027911652E-13   -0.12989609388114331523E-13   -0.59285909514983359259E-13
change in fa due to symmetrization =     0.28976820942716585705E-13    0.20872192862952942960E-13    0.53235194030776256113E-13
change in fa due to symmetrization =    -0.75495165674510644749E-14    0.22093438190040615154E-13   -0.60396132539608515799E-13
change in fa due to symmetrization =     0.23536728122053318657E-13   -0.41966430330830917228E-13    0.62283511681471281918E-13
change in fa due to symmetrization =    -0.27422508708241366548E-13    0.15099033134902128950E-13    0.58619775700208265334E-13
change in fa due to symmetrization =     0.23980817331903381273E-13   -0.12323475573339237599E-13    0.59729998724833421875E-13
change in fa due to symmetrization =    -0.39523939676655572839E-13    0.23758772726978349965E-13   -0.59174887212520843605E-13
change in fa due to symmetrization =     0.12434497875801753253E-13    0.33195668436292180559E-13    0.63005156647477633669E-13
change in fa due to symmetrization =    -0.17208456881689926377E-13   -0.34416913763379852753E-13   -0.65530914028499864799E-13
Max change in any component of fa due to symmetrization =     0.1263156246E-12
Max relative change =     0.5481825906E-12
old  stress = 
old  stress = 
    0.2859308988E-02    0.2371692252E-17    0.5576864925E-17
    0.1572093150E-17    0.2859308988E-02   -0.1712361806E-16
    0.5895349313E-17   -0.1603941589E-16    0.2859308988E-02
stress with symmetrization = 
    0.2859308988E-02    0.0000000000E+00    0.0000000000E+00
    0.0000000000E+00    0.2859308988E-02    0.0000000000E+00
    0.0000000000E+00    0.0000000000E+00    0.2859308988E-02
change in components of stress due to symmetrization = 
   -0.2706168623E-15   -0.2371692252E-17   -0.5576864925E-17
   -0.1572093150E-17   -0.2762547135E-15    0.1712361806E-16
   -0.5895349313E-17    0.1603941589E-16    0.5481726184E-15
Max change in any component of stress due to symmetrization =     0.5481726184E-15
change in fa due to symmetrization =    -0.33306690738754696213E-13   -0.12631562462672718539E-12    0.75273121069585613441E-13
change in fa due to symmetrization =    -0.10780265569110270008E-12   -0.60118576783452226664E-13   -0.17097434579227410723E-13
change in fa due to symmetrization =     0.95257135512838431168E-13    0.60507154842071031453E-13    0.30198066269804257900E-13
change in fa due to symmetrization =     0.61617377866696187994E-13   -0.11046719095020307577E-12   -0.13988810110276972409E-13
change in fa due to symmetrization =    -0.61284310959308641031E-13    0.94591001698063337244E-13    0.27311486405778850894E-13
change in fa due to symmetrization =    -0.12051470932306074246E-12   -0.39523939676655572839E-13    0.69277916736609768122E-13
change in fa due to symmetrization =     0.11904366381543241005E-12    0.29087843245179101359E-13   -0.77271522513910895213E-13
old  stress = 
Max relative change =     0.5481825906E-12
old  stress = 
    0.2859308988E-02    0.2371692252E-17    0.5576864925E-17
    0.1572093150E-17    0.2859308988E-02   -0.1712361806E-16
    0.5895349313E-17   -0.1603941589E-16    0.2859308988E-02
stress with symmetrization = 
    0.2859308988E-02    0.0000000000E+00    0.0000000000E+00
    0.0000000000E+00    0.2859308988E-02    0.0000000000E+00
    0.0000000000E+00    0.0000000000E+00    0.2859308988E-02
change in components of stress due to symmetrization = 
change in fa due to symmetrization =    -0.14432899320127035026E-13   -0.32307490016592055326E-13    0.64448446579490337172E-13
change in fa due to symmetrization =     0.14876988529977097642E-13    0.31197266991966898786E-13   -0.59313665090598988172E-13
change in fa due to symmetrization =     0.23980817331903381273E-13   -0.12323475573339237599E-13    0.59729998724833421875E-13
change in fa due to symmetrization =    -0.39523939676655572839E-13    0.23758772726978349965E-13   -0.59174887212520843605E-13
change in fa due to symmetrization =     0.12434497875801753253E-13    0.33195668436292180559E-13    0.63005156647477633669E-13
change in fa due to symmetrization =    -0.17208456881689926377E-13   -0.34416913763379852753E-13   -0.65530914028499864799E-13
Max change in any component of fa due to symmetrization =     0.1263156246E-12
Max relative change =     0.5481825906E-12
old  stress = 
    0.2859308988E-02    0.2371692252E-17    0.5576864925E-17
change in fa due to symmetrization =     0.29976021664879226591E-13   -0.11879386363489174983E-13   -0.59091620485673956864E-13
change in fa due to symmetrization =    -0.14432899320127035026E-13   -0.32307490016592055326E-13    0.64448446579490337172E-13
change in fa due to symmetrization =     0.14876988529977097642E-13    0.31197266991966898786E-13   -0.59313665090598988172E-13
change in fa due to symmetrization =     0.23980817331903381273E-13   -0.12323475573339237599E-13    0.59729998724833421875E-13
change in fa due to symmetrization =    -0.39523939676655572839E-13    0.23758772726978349965E-13   -0.59174887212520843605E-13
change in fa due to symmetrization =     0.12434497875801753253E-13    0.33195668436292180559E-13    0.63005156647477633669E-13
change in fa due to symmetrization =    -0.17208456881689926377E-13   -0.34416913763379852753E-13   -0.65530914028499864799E-13
    0.2859308988E-02    0.2371692252E-17    0.5576864925E-17
    0.1572093150E-17    0.2859308988E-02   -0.1712361806E-16
    0.5895349313E-17   -0.1603941589E-16    0.2859308988E-02
stress with symmetrization = 
    0.2859308988E-02    0.0000000000E+00    0.0000000000E+00
    0.0000000000E+00    0.2859308988E-02    0.0000000000E+00
    0.0000000000E+00    0.0000000000E+00    0.2859308988E-02
change in fa due to symmetrization =     0.64143135247718419123E-13    0.10191847366058937041E-12    0.18096635301390051609E-13
change in fa due to symmetrization =    -0.61894933622852477129E-13   -0.10569323194431490265E-12   -0.16986412276764895068E-13
change in fa due to symmetrization =    -0.12159717677207027009E-12    0.36082248300317587564E-13   -0.70721206668622471625E-13
change in fa due to symmetrization =     0.12045919817182948464E-12   -0.32751579226442117942E-13    0.79714013168086239602E-13
change in fa due to symmetrization =    -0.62505556286396313226E-13    0.10846878950587779400E-12   -0.14210854715202003717E-13
change in fa due to symmetrization =     0.64309668701412192604E-13   -0.91482377229112898931E-13    0.27977620220553944819E-13
   -0.2706168623E-15   -0.2371692252E-17   -0.5576864925E-17
   -0.1572093150E-17   -0.2762547135E-15    0.1712361806E-16
   -0.5895349313E-17    0.1603941589E-16    0.5481726184E-15
Max change in any component of stress due to symmetrization =     0.5481726184E-15
    0.1572093150E-17    0.2859308988E-02   -0.1712361806E-16
    0.5895349313E-17   -0.1603941589E-16    0.2859308988E-02
stress with symmetrization = 
    0.2859308988E-02    0.0000000000E+00    0.0000000000E+00
    0.0000000000E+00    0.2859308988E-02    0.0000000000E+00
    0.0000000000E+00    0.0000000000E+00    0.2859308988E-02
change in components of stress due to symmetrization = 
   -0.2706168623E-15   -0.2371692252E-17   -0.5576864925E-17
   -0.1572093150E-17   -0.2762547135E-15    0.1712361806E-16
change in components of stress due to symmetrization = 
   -0.2706168623E-15   -0.2371692252E-17   -0.5576864925E-17
   -0.1572093150E-17   -0.2762547135E-15    0.1712361806E-16
   -0.5895349313E-17    0.1603941589E-16    0.5481726184E-15
Max change in any component of stress due to symmetrization =     0.5481726184E-15
Max change in any component of fa due to symmetrization =     0.1263156246E-12
Max relative change =     0.5481825906E-12
old  stress = 
    0.2859308988E-02    0.2371692252E-17    0.5576864925E-17
   -0.5895349313E-17    0.1603941589E-16    0.5481726184E-15
Max change in any component of stress due to symmetrization =     0.5481726184E-15
change in fa due to symmetrization =     0.12376211167008932534E-12    0.39301895071730541531E-13    0.64392935428259079345E-13
change in fa due to symmetrization =    -0.11937673072281995701E-12   -0.25202062658991053468E-13   -0.84821039081361959688E-13
change in fa due to symmetrization =    -0.60451643690839773626E-13   -0.10857981180834030965E-12    0.15099033134902128950E-13
change in fa due to symmetrization =     0.65447647301652978058E-13    0.95923269327613525093E-13   -0.24868995751603506505E-13
change in fa due to symmetrization =     0.12231882173807662184E-12   -0.36415315207705134526E-13   -0.71165295878472534241E-13
change in fa due to symmetrization =    -0.12020939799128882441E-12    0.35083047578154946677E-13    0.77160500211448379559E-13
    0.1572093150E-17    0.2859308988E-02   -0.1712361806E-16
change in fa due to symmetrization =     0.27533531010703882203E-13    0.11657341758564143674E-13   -0.57426285948736222053E-13
change in fa due to symmetrization =    -0.44297898682543745963E-13   -0.27755575615628913511E-13    0.61090021929999238637E-13
change in fa due to symmetrization =     0.76605388699135801289E-14   -0.26312285683616210008E-13   -0.61062266354383609723E-13
change in fa due to symmetrization =    -0.17985612998927535955E-13    0.37747582837255322374E-13    0.61284310959308641031E-13
    0.2859308988E-02    0.2371692252E-17    0.5576864925E-17
    0.1572093150E-17    0.2859308988E-02   -0.1712361806E-16
    0.5895349313E-17   -0.1603941589E-16    0.2859308988E-02
stress with symmetrization = 
change in fa due to symmetrization =    -0.20650148258027911652E-13   -0.12989609388114331523E-13   -0.59285909514983359259E-13
change in fa due to symmetrization =     0.28976820942716585705E-13    0.20872192862952942960E-13    0.53235194030776256113E-13
    0.2859308988E-02    0.0000000000E+00    0.0000000000E+00
    0.0000000000E+00    0.2859308988E-02    0.0000000000E+00
    0.0000000000E+00    0.0000000000E+00    0.2859308988E-02
change in fa due to symmetrization =    -0.75495165674510644749E-14    0.22093438190040615154E-13   -0.60396132539608515799E-13
change in components of stress due to symmetrization = 
   -0.2706168623E-15   -0.2371692252E-17   -0.5576864925E-17
change in fa due to symmetrization =     0.23536728122053318657E-13   -0.41966430330830917228E-13    0.62283511681471281918E-13
change in fa due to symmetrization =    -0.27422508708241366548E-13    0.15099033134902128950E-13    0.58619775700208265334E-13
   -0.1572093150E-17   -0.2762547135E-15    0.1712361806E-16
   -0.5895349313E-17    0.1603941589E-16    0.5481726184E-15
Max change in any component of stress due to symmetrization =     0.5481726184E-15
change in fa due to symmetrization =     0.29976021664879226591E-13   -0.11879386363489174983E-13   -0.59091620485673956864E-13
change in fa due to symmetrization =    -0.14432899320127035026E-13   -0.32307490016592055326E-13    0.64448446579490337172E-13
change in fa due to symmetrization =     0.14876988529977097642E-13    0.31197266991966898786E-13   -0.59313665090598988172E-13
change in fa due to symmetrization =     0.23980817331903381273E-13   -0.12323475573339237599E-13    0.59729998724833421875E-13
change in fa due to symmetrization =    -0.39523939676655572839E-13    0.23758772726978349965E-13   -0.59174887212520843605E-13
change in fa due to symmetrization =     0.12434497875801753253E-13    0.33195668436292180559E-13    0.63005156647477633669E-13
change in fa due to symmetrization =    -0.17208456881689926377E-13   -0.34416913763379852753E-13   -0.65530914028499864799E-13
Max change in any component of fa due to symmetrization =     0.1263156246E-12
Max relative change =     0.5481825906E-12
old  stress = 
    0.2859308988E-02    0.2371692252E-17    0.5576864925E-17
    0.1572093150E-17    0.2859308988E-02   -0.1712361806E-16
    0.5895349313E-17   -0.1603941589E-16    0.2859308988E-02
stress with symmetrization = 
    0.2859308988E-02    0.0000000000E+00    0.0000000000E+00
    0.0000000000E+00    0.2859308988E-02    0.0000000000E+00
    0.0000000000E+00    0.0000000000E+00    0.2859308988E-02
change in components of stress due to symmetrization = 
   -0.2706168623E-15   -0.2371692252E-17   -0.5576864925E-17
   -0.1572093150E-17   -0.2762547135E-15    0.1712361806E-16
   -0.5895349313E-17    0.1603941589E-16    0.5481726184E-15
Max change in any component of stress due to symmetrization =     0.5481726184E-15
    0.5895349313E-17   -0.1603941589E-16    0.2859308988E-02
stress with symmetrization = 
    0.2859308988E-02    0.0000000000E+00    0.0000000000E+00
    0.0000000000E+00    0.2859308988E-02    0.0000000000E+00
    0.0000000000E+00    0.0000000000E+00    0.2859308988E-02
change in components of stress due to symmetrization = 
   -0.2706168623E-15   -0.2371692252E-17   -0.5576864925E-17
   -0.1572093150E-17   -0.2762547135E-15    0.1712361806E-16
   -0.5895349313E-17    0.1603941589E-16    0.5481726184E-15
Max change in any component of stress due to symmetrization =     0.5481726184E-15

siesta: Atomic forces (eV/Ang):
----------------------------------------
   Tot    0.000000    0.000000    0.000000
----------------------------------------
   Max   17.908809
   Res   15.010431    sqrt( Sum f_i^2 / 3N )
----------------------------------------
   Max   17.908809    constrained

Stress-tensor-Voigt (kbar):      420.63      420.63      420.63        0.00        0.00        0.00
(Free)E + p*V (eV/cell)     -749.2241
Target enthalpy (eV/cell)     -715.6200

siesta: Program's energy decomposition (eV):
siesta: Ebs     =         0.000000
siesta: Eions   =       945.951434
siesta: Ena     =       361.467818
siesta: Ekin    =       606.891014
siesta: Enl     =      -253.584200
siesta: Eso     =         0.000000
siesta: Eldau   =         0.000000
siesta: DEna    =         0.000008
siesta: DUscf   =         0.000000
siesta: DUext   =         0.000000
siesta: Enegf   =         0.000000
siesta: Exc     =      -484.443235
siesta: eta*DQ  =         0.000000
siesta: Emadel  =         0.000000
siesta: Emeta   =         0.000000
siesta: Emolmec =         0.000000
siesta: Ekinion =         0.000000
siesta: Eharris =         0.000000
siesta: Etot    =      -715.620028
siesta: FreeEng =      -715.620028

siesta: Final energy (eV):
siesta:  Band Struct. =       0.000000
siesta:       Kinetic =     606.891014
siesta:       Hartree =     172.913483
siesta:       Eldau   =       0.000000
siesta:       Eso     =       0.000000
siesta:    Ext. field =       0.000000
siesta:       Enegf   =       0.000000
siesta:   Exch.-corr. =    -484.443235
siesta:  Ion-electron =   -1324.413264
siesta:       Ion-ion =     313.431973
siesta:       Ekinion =       0.000000
siesta:         Total =    -715.620028
siesta:         Fermi =       0.000000

siesta: Atomic forces (eV/Ang):
siesta:      1   17.908809    5.924544  -17.891714
siesta:      2  -17.891714   17.908809    5.924544
siesta:      3  -17.908809   -5.924544  -17.891714
siesta:      4  -17.908809    5.924544   17.891714
siesta:      5    5.924544   17.908809   17.891714
siesta:      6    5.924544  -17.891714   17.908809
siesta:      7  -17.891714  -17.908809   -5.924544
siesta:      8   17.891714  -17.908809    5.924544
siesta:      9   17.891714    5.924544   17.908809
siesta:     10   17.908809   -5.924544   17.891714
siesta:     11   -5.924544  -17.908809   17.891714
siesta:     12   17.891714   17.908809   -5.924544
siesta:     13   -5.924544   17.908809  -17.891714
siesta:     14   17.908809  -17.891714   -5.924544
siesta:     15    5.924544  -17.908809  -17.891714
siesta:     16   -5.924544  -17.891714  -17.908809
siesta:     17    5.924544   17.891714  -17.908809
siesta:     18   17.908809   17.891714    5.924544
siesta:     19   17.891714   -5.924544  -17.908809
siesta:     20   -5.924544   17.891714   17.908809
siesta:     21  -17.891714   -5.924544   17.908809
siesta:     22  -17.891714    5.924544  -17.908809
siesta:     23  -17.908809   17.891714   -5.924544
siesta:     24  -17.908809  -17.891714    5.924544
siesta:     25  -17.908809   -5.924544   17.891714
siesta:     26   17.891714  -17.908809   -5.924544
siesta:     27   17.908809    5.924544   17.891714
siesta:     28   17.908809   -5.924544  -17.891714
siesta:     29   -5.924544  -17.908809  -17.891714
siesta:     30   -5.924544   17.891714  -17.908809
siesta:     31   17.891714   17.908809    5.924544
siesta:     32  -17.891714   17.908809   -5.924544
siesta:     33  -17.891714   -5.924544  -17.908809
siesta:     34  -17.908809    5.924544  -17.891714
siesta:     35    5.924544   17.908809  -17.891714
siesta:     36  -17.891714  -17.908809    5.924544
siesta:     37    5.924544  -17.908809   17.891714
siesta:     38  -17.908809   17.891714    5.924544
siesta:     39   -5.924544   17.908809   17.891714
siesta:     40    5.924544   17.891714   17.908809
siesta:     41   -5.924544  -17.891714   17.908809
siesta:     42  -17.908809  -17.891714   -5.924544
siesta:     43  -17.891714    5.924544   17.908809
siesta:     44    5.924544  -17.891714  -17.908809
siesta:     45   17.891714    5.924544  -17.908809
siesta:     46   17.891714   -5.924544   17.908809
siesta:     47   17.908809  -17.891714    5.924544
siesta:     48   17.908809   17.891714   -5.924544
siesta: ----------------------------------------
siesta:    Tot    0.000000    0.000000    0.000000

siesta: Stress tensor (static) (eV/Ang**3):
siesta:     0.262532    0.000000    0.000000
siesta:     0.000000    0.262532    0.000000
siesta:     0.000000    0.000000    0.262532

siesta: Cell volume =        128.000000 Ang**3

siesta: Pressure (static):
siesta:                Solid            Molecule  Units
siesta:          -0.00285931         -0.01617265  Ry/Bohr**3
siesta:          -0.26253203         -1.48491773  eV/Ang**3
siesta:        -420.62722666      -2379.12621293  kBar
(Free)E+ p_basis*V_orbitals  =        -705.117017
(Free)Eharris+ p_basis*V_orbitals  =          10.503012

>> End of run:   2-APR-2019  17:13:52
Job completed
