Siesta Version  : siesta-4.0--578
Architecture    : x86_64-linux-n-62-25-35
Compiler version: GNU Fortran (GCC) 7.3.0
Compiler flags  : mpif90 -m64 -fPIC -O3 -march=native -ftree-vectorize -fexpensive-optimizationns -funroll-loops -fprefetch-loop-arrays -fno-second-underscore
PP flags        : -I/zdata/groups/common/nicpa/2018-feb/generic/build-tools/1.0/include -I/zdatta/groups/common/nicpa/2018-feb/generic/gcc/7.3.0/include -I/zdata/groups/common/nicpa/2018-feb/generic/gcc/7.3.0/include -I/zdata/groups/common/nicpa/2018-feb/XeonE5-2660v3/zlib/1.2.11/gnu-7.3.0/include -I/zdata/groups/common/nicpa/2018-feb/generic/numactl/2.0.11/include -I/zdata/groups/common/nicpa/2018-feb/XeonE5-2660v3/libxml2/2.9.7/gnu-7.3.0/include -I/zdata/groups/common/nicpa/2018-feb/XeonE5-2660v3/hwloc/1.11.9/gnu-7.3.0/include -I/zdata/groups/common/nicpa/2018-feb/XeonE5-2660v3/openmpi/3.0.0/gnu-7.3.0/include -I/zdata/groups/common/nicpa/2018-feb/XeonE5-2660v3/szip/2.1.1/gnu-7.3.0/include -I/zdata/groups/common/nicpa/2018-feb/XeonE5-2660v3/hdf5-serial/1.8.18/gnu-7.3.0/include -I/zdata/groups/common/nicpa/2018-feb/XeonE5-2660v3/netcdf-serial/4.6.0/gnu-7.3.0/include -I/zdata/groups/common/nicpa/2018-feb/XeonE5-2660v3/scalapack/204/gnu-7.3.0/include -I/zdata/groups/common/nicpa/2018-feb/XeonE5-2660v3/openblas/0.2.20/gnu-7.3.0/include -I/zdata/groups/common/nicpa/2018-feb/XeonE5-2660v3/elpa/2017.05.003/gnu-7.3.0/include -DSIESTA__ELPA -DMPI -D1 -DFC_HAVE_ABORT -DCDF -DSIESTA__MRRR -DTRANSIESTA  -DTRANSIESTA
PARALLEL version
TRANSIESTA support
NetCDF support

* Running on    8 nodes in parallel
>> Start of run:  13-JUN-2018  21:36:33

                           ***********************       
                           *  WELCOME TO SIESTA  *       
                           ***********************       

reinit: Reading from standard input
************************** Dump of input data file ****************************
SystemName  au_111_capacitor
SystemLabel au_111_capacitor
==================================================
==================================================
# SPECIES AND BASIS
# Number of species
NumberOfSpecies 1
%block ChemicalSpeciesLabel
  1  79 Au
%endblock ChemicalSpeciesLabel
PAO.BasisSize    SZP
PAO.EnergyShift  0.005 Ry
==================================================
==================================================
# K-points
%block kgrid_Monkhorst_Pack
8   0   0   0.0
0   8   0   0.0
0   0   30  0.5
%endblock kgrid_Monkhorst_Pack
==================================================
==================================================
# UNIT CELL
LatticeConstant       2.92311 Ang
%block LatticeVectors
1.000000000   0.00000000000   0.0000000000
0.500000000   0.86602540378   0.0000000000
0.000000000   0.00000000000  10.6144555530
%endblock LatticeVectors
# Atomic coordinates
NumberOfAtoms 10
AtomicCoordinatesFormat ScaledCartesian
%block AtomicCoordinatesAndAtomicSpecies
       0.000000000       0.000000000       0.000000000    1  # A
       0.500000000       0.288675135       0.816496581    1  # B
       0.500000000      -0.288675135       1.632993162    1  # C
       0.000000000       0.000000000       2.449489743    1  # A
       0.500000000       0.288675135       3.265986324    1  # B
       0.500000000       0.288675135       6.531972648    1  # B
       0.500000000      -0.288675135       7.348469229    1  # C
       0.000000000       0.000000000       8.164965810    1  # A
       0.500000000       0.288675135       8.981462391    1  # B
       0.500000000      -0.288675135       9.797958972    1  # C
%endblock AtomicCoordinatesAndAtomicSpecies
==================================================
==================================================
# General variables
ElectronicTemperature  100 K
MeshCutoff           350. Ry
xc.functional         LDA           # Exchange-correlation functional
xc.authors            CA
SpinPolarized .false.
SolutionMethod Transiesta
==================================================
==================================================
# SCF variables
DM.MixSCF1   T
MaxSCFIterations      300           # Maximum number of SCF iter
DM.MixingWeight       0.03          # New DM amount for next SCF cycle
DM.Tolerance          1.d-4         # Tolerance in maximum difference
DM.UseSaveDM          true          # to use continuation files
DM.NumberPulay         5
Diag.DivideAndConquer     no
TS.MixH                  yes
==================================================
==================================================
# MD variables
MD.FinalTimeStep 1
MD.TypeOfRun CG
MD.NumCGsteps     000
MD.UseSaveXV      .true.
==================================================
==================================================
# Output variables
WriteMullikenPop                1
WriteBands                      .false.
SaveRho                         .false.
SaveDeltaRho                    .false.
SaveHS                          .false.
SaveElectrostaticPotential      True
SaveTotalPotential              no
WriteCoorXmol                   .true.
WriteMDXmol                     .true.
WriteMDhistory                  .false.
WriteEigenvalues                yes
==================================================
==================================================
# Parallel variables
Diag.ParallelOverK      yes
==================================================
==================================================
# Transiesta information
# GF OPTIONS
TS.ComplexContour.Emin    -30.0 eV
TS.ComplexContour.NPoles       03
TS.ComplexContour.NCircle      30
TS.ComplexContour.NLine        10
# BIAS OPTIONS
TS.biasContour.NumPoints       15
TS.UpdateDMCROnly        false
# TS OPTIONS
TS.Voltage 1.000000 eV
# TBT OPTIONS
TS.TBT.Emin -0.5 eV
TS.TBT.Emax +0.5 eV
TS.TBT.NPoints 100
TS.TBT.NEigen 3
TS.TBT.Eta        0.000001 Ry
# Write hamiltonian
TS.SaveHS   .true.
# LEFT ELECTRODE
TS.HSFileLeft  ./elec_au_111_abc.TSHS
TS.ReplicateA1Left    1
TS.ReplicateA2Left    1
TS.NumUsedAtomsLeft   03
TS.BufferAtomsLeft    0
# RIGHT ELECTRODE
TS.HSFileRight  ./elec_au_111_abc.TSHS
TS.ReplicateA1Right   1
TS.ReplicateA2Right   1
TS.NumUsedAtomsRight  03
TS.BufferAtomsRight   0
==================================================
==================================================
************************** End of input data file *****************************

reinit: -----------------------------------------------------------------------
reinit: System Name: au_111_capacitor
reinit: -----------------------------------------------------------------------
reinit: System Label: au_111_capacitor                                            
reinit: -----------------------------------------------------------------------

initatom: Reading input for the pseudopotentials and atomic orbitals ----------
 Species number:            1  Label: Au Atomic number:          79
Ground state valence configuration:   6s01  5d10
Reading pseudopotential information in formatted form from Au.psf

Pseudopotential generated from a relativistic atomic calculation
There are spin-orbit pseudopotentials available
Spin-orbit interaction is not included in this calculation

Valence configuration for pseudopotential generation:
6s( 1.00) rc: 2.32
6p( 0.00) rc: 2.32
5d(10.00) rc: 2.32
5f( 0.00) rc: 2.32
For Au, standard SIESTA heuristics set lmxkb to 3
 (one more than the basis l, including polarization orbitals).
Use PS.lmax or PS.KBprojectors blocks to override.

<basis_specs>
===============================================================================
Au                   Z=  79    Mass=  196.97        Charge= 0.17977+309
Lmxo=2 Lmxkb= 3    BasisType=split      Semic=F
L=0  Nsemic=0  Cnfigmx=6
          n=1  nzeta=1  polorb=1
            splnorm:   0.15000    
               vcte:    0.0000    
               rinn:    0.0000    
               qcoe:    0.0000    
               qyuk:    0.0000    
               qwid:   0.10000E-01
                rcs:    0.0000    
            lambdas:    1.0000    
L=1  Nsemic=0  Cnfigmx=6
L=2  Nsemic=0  Cnfigmx=5
          n=1  nzeta=1  polorb=0
            splnorm:   0.15000    
               vcte:    0.0000    
               rinn:    0.0000    
               qcoe:    0.0000    
               qyuk:    0.0000    
               qwid:   0.10000E-01
                rcs:    0.0000    
            lambdas:    1.0000    
-------------------------------------------------------------------------------
L=0  Nkbl=1  erefs: 0.17977+309
L=1  Nkbl=1  erefs: 0.17977+309
L=2  Nkbl=1  erefs: 0.17977+309
L=3  Nkbl=1  erefs: 0.17977+309
===============================================================================
</basis_specs>

atom: Called for Au                    (Z =  79)

read_vps: Pseudopotential generation method:
read_vps: ATM3      Troullier-Martins                       
Total valence charge:   11.00000

xc_check: Exchange-correlation functional:
xc_check: Ceperley-Alder
V l=0 = -2*Zval/r beyond r=  3.7361
V l=1 = -2*Zval/r beyond r=  3.7361
V l=2 = -2*Zval/r beyond r=  3.7361
V l=3 = -2*Zval/r beyond r=  3.7361
All V_l potentials equal beyond r=  2.2946
This should be close to max(r_c) in ps generation
All pots = -2*Zval/r beyond r=  3.7361
Using large-core scheme for Vlocal

atom: Estimated core radius    3.73611

atom: Including non-local core corrections could be a good idea
atom: Maximum radius for 4*pi*r*r*local-pseudopot. charge    4.07775
atom: Maximum radius for r*vlocal+2*Zval:    3.78310
GHOST: No ghost state for L =  0
GHOST: No ghost state for L =  1
GHOST: No ghost state for L =  2
GHOST: No ghost state for L =  3

KBgen: Kleinman-Bylander projectors: 
   l= 0   rc=  2.382235   el= -0.445645   Ekb=  4.511922   kbcos=  0.274440
   l= 1   rc=  2.382235   el= -0.065316   Ekb=  2.560647   kbcos=  0.223707
   l= 2   rc=  2.382235   el= -0.526293   Ekb= -5.024070   kbcos= -0.676934
   l= 3   rc=  2.382235   el=  0.003438   Ekb= -2.070042   kbcos= -0.013117

KBgen: Total number of  Kleinman-Bylander projectors:   16
atom: -------------------------------------------------------------------------

atom: SANKEY-TYPE ORBITALS:

SPLIT: Orbitals with angular momentum L= 0

SPLIT: Basis orbitals for state 6s

SPLIT: PAO cut-off radius determined from an
SPLIT: energy shift=  0.005000 Ry

   izeta = 1
                 lambda =    1.000000
                     rc =    7.246712
                 energy =   -0.441368
                kinetic =    0.367640
    potential(screened) =   -0.809008
       potential(ionic) =   -8.408267

SPLIT: Orbitals with angular momentum L= 2

SPLIT: Basis orbitals for state 5d

SPLIT: PAO cut-off radius determined from an
SPLIT: energy shift=  0.005000 Ry

   izeta = 1
                 lambda =    1.000000
                     rc =    5.106662
                 energy =   -0.521343
                kinetic =    4.852314
    potential(screened) =   -5.373657
       potential(ionic) =  -16.114240

POLgen: Perturbative polarization orbital with L=  1

POLgen: Polarization orbital for state 6s

   izeta = 1
                     rc =    7.246712
                 energy =   -0.107868
                kinetic =    0.647525
    potential(screened) =   -0.755394
       potential(ionic) =   -7.869443
atom: Total number of Sankey-type orbitals:  9

atm_pop: Valence configuration (for local Pseudopot. screening):
 6s( 1.00)                                                            
 6p( 0.00)                                                            
 5d(10.00)                                                            
Vna: chval, zval:   11.00000  11.00000

Vna:  Cut-off radius for the neutral-atom potential:   7.246712

atom: _________________________________________________________________________

prinput: Basis input ----------------------------------------------------------

PAO.BasisType split     

%block ChemicalSpeciesLabel
    1   79 Au                      # Species index, atomic number, species label
%endblock ChemicalSpeciesLabel

%block PAO.Basis                 # Define Basis set
Au                    2                    # Species label, number of l-shells
 n=6   0   1 P   1                   # n, l, Nzeta, Polarization, NzetaPol
   7.247   
   1.000   
 n=5   2   1                         # n, l, Nzeta 
   5.107   
   1.000   
%endblock PAO.Basis

prinput: ----------------------------------------------------------------------

Dumping basis to NetCDF file Au.ion.nc
coor:   Atomic-coordinates input format  =     Cartesian coordinates
coor:                                          (in units of alat)

siesta: WARNING: XV file not found

siesta: Atomic coordinates (Bohr) and species
siesta:      0.00000   0.00000   0.00000  1        1
siesta:      2.76194   1.59461   4.51023  1        2
siesta:      2.76194  -1.59461   9.02046  1        3
siesta:      0.00000   0.00000  13.53069  1        4
siesta:      2.76194   1.59461  18.04092  1        5
siesta:      2.76194   1.59461  36.08183  1        6
siesta:      2.76194  -1.59461  40.59206  1        7
siesta:      0.00000   0.00000  45.10229  1        8
siesta:      2.76194   1.59461  49.61252  1        9
siesta:      2.76194  -1.59461  54.12275  1       10

siesta: System type = bulk      

initatomlists: Number of atoms, orbitals, and projectors:     10    90   160

coxmol: Writing XMOL coordinates into file au_111_capacitor.xyz                                            

siesta: ******************** Simulation parameters ****************************
siesta:
siesta: The following are some of the parameters of the simulation.
siesta: A complete list of the parameters used, including default values,
siesta: can be found in file out.fdf
siesta:
redata: Non-Collinear-spin run           =     F
redata: SpinPolarized (Up/Down) run      =     F
redata: Number of spin components        =     1
redata: Long output                      =     F
redata: Number of Atomic Species         =        1
redata: Charge density info will appear in .RHO file
redata: Write Mulliken Pop.              =     Atomic and Orbital charges
redata: Matel table size (NRTAB)         =     1024
redata: Mesh Cutoff                      =   350.0000 Ry
redata: Net charge of the system         =     0.0000 |e|
redata: Min. number of SCF Iter          =        0
redata: Max. number of SCF Iter          =      300
redata: Mix Hamiltonian instead of DM    =     T
redata: Mix DM or H after convergence    =     F
redata: Recompute H after scf cycle      =     F
redata: Performing Pulay mixing using    =     5 iterations
redata: Mix DM in first SCF step ?       =     T
redata: Write Pulay info on disk?        =     F
redata: Discard 1st Pulay DM after  kick =     F
redata: New DM Mixing Weight             =     0.0300
redata: New DM Occupancy tolerance       = 0.000000000001
redata: No kicks to SCF
redata: DM Mixing Weight for Kicks       =     0.5000
redata: DM Tolerance for SCF             =     0.000100
redata: Require (free) Energy convergence in SCF =     F
redata: DM (free)Energy tolerance for SCF =     0.000010 eV
redata: Require Harris convergence for SCF =     F
redata: DM Harris energy tolerance for SCF =     0.000010 eV
redata: Using Saved Data (generic)   =     F
redata: Use continuation files for DM    =     T
redata: Neglect nonoverlap interactions  =     F
redata: Method of Calculation            =         Transiesta
redata: Fix the spin of the system       =     F
redata: Dynamics option                  =     Single-point calculation
redata: ***********************************************************************
Total number of electrons:   110.000000
Total ionic charge:   110.000000

* ProcessorY, Blocksize:    2  12


* Orbital distribution balance (max,min):    12     6

k-point displ. along   1 input, could be:     0.00    0.50
k-point displ. along   2 input, could be:     0.00    0.50
 Kpoints in:          960 . Kpoints trimmed:          960

siesta: k-grid: Number of k-points =   960
siesta: k-grid: Cutoff (effective) =    11.692 Ang
siesta: k-grid: Supercell and displacements
siesta: k-grid:    8   0   0      0.000
siesta: k-grid:    0   8   0      0.000
siesta: k-grid:    0   0  30      0.500

ts_read_options: **************************************************************
ts_read_options: Save H and S matrices        =    T
ts_read_options: Save S and quit (onlyS)      =    F
ts_read_options: TranSIESTA Voltage           =    1.0000 Volts
ts_read_options: Bulk Values in Electrodes    =    T
ts_read_options: TriDiag                      =    F
ts_read_options: Update DM Contact Reg. only  =    F
ts_read_options: N. Buffer At. Left           =    0
ts_read_options: N. Buffer At. Right          =    0
ts_read_options: N. Pts. Circle               =   30
ts_read_options: N. Pts. Line                 =   10
ts_read_options: N. Poles in Contour          =    3
ts_read_options: N. Pts. Bias Contour         =   15
ts_read_options: Contour E Min.               =   -2.2049 Ry
ts_read_options: GFEta                        =    0.000001 Ry
ts_read_options: Electronic Temperature       =    0.0006 Ry
ts_read_options: Bias Contour Method          =    gaussfermi
ts_read_options: Will not correct charge fluctuations
ts_read_options: Calc. band bottom in elec.   =    F
ts_read_options: GF title                     =    Generated GF file
ts_read_options: Left GF File                 =    au_111_capacitor.TSGFL
ts_read_options: Right GF File                =    au_111_capacitor.TSGFR
ts_read_options: Re-use GF file if exists     =    T
ts_read_options: Left electrode TSHS file     =    ./elec_au_111_abc.TSHS
ts_read_options: # atoms used in left elec.   =     3
ts_read_options: Left elec. repetition A1/A2  =   1 X   1
ts_read_options: Right electrode TSHS file    =    ./elec_au_111_abc.TSHS
ts_read_options: # atoms used in right elec.  =     3
ts_read_options: Right elec. repetition A1/A2 =   1 X   1
ts_read_options: **************************************************************

************************ Begin: TS CHECKS AND WARNINGS ************************
 NOTICE: Equilibrium energy contour points are not
         divisable by the number of nodes.
         Better scalability is achived by changing:
           - TS.ComplexContour.NPoles
           - TS.ComplexContour.NLine
           - TS.ComplexContour.NCircle
         Used equilibrium # of energy points   :   86
         Optimal equilibrium # of energy points:   88 ± i*  8

 NOTICE: Non-equilibrium energy contour points are not
         divisable by the number of nodes.
         Better scalability is achieved by changing:
           - TS.ComplexContour.NVolt
         Used non-equilibrium # of energy points   :   15
         Optimal non-equilibrium # of energy points:   16 ± i*  8

 NOTICE: Total energy contour points are not
         divisable by the number of nodes.
         Used # of energy points   :  101
         Optimal # of energy points:  104 ± i*  8

************************ End: TS CHECKS AND WARNINGS **************************

k-point displ. along   1 input, could be:     0.00    0.50
k-point displ. along   2 input, could be:     0.00    0.50
 Kpoints in:           40 . Kpoints trimmed:           37

transiesta: ts_k-grid: Number of Transport k-points =    37
transiesta: ts_k-grid: Supercell and displacements
transiesta: ts_k-grid:    8   0   0      0.000
transiesta: ts_k-grid:    0   8   0      0.000

transiesta: Atomic coordinates and regions (Ang):
##############################################
#     0.0000000     0.0000000     0.0000000  #
#     1.4615550     0.8438292     2.3867093  #     Left electrode
#     1.4615550    -0.8438292     4.7734186  #
##############################################
      0.0000000     0.0000000     7.1601280
      1.4615550     0.8438292     9.5468373        Device
      1.4615550     0.8438292    19.0936746
      1.4615550    -0.8438292    21.4803839
##############################################
#     0.0000000     0.0000000    23.8670932  #
#     1.4615550     0.8438292    26.2538025  #     Right electrode
#     1.4615550    -0.8438292    28.6405119  #
##############################################

transiesta: contour integration path:
 Type         Re(c)[eV]    Im(c)[eV]     Re(weight)     Im(weight)
 Left equilibrium:
 resi   :       0.50000      0.02707   -0.000000000   -0.003979496
 resi   :       0.50000      0.08122   -0.000000000   -0.003979496
 resi   :       0.50000      0.13536   -0.000000000   -0.003979496
 fermi  :       0.69107      0.16243    0.000000000    0.000000000
 fermi  :       0.62325      0.16243    0.000000003    0.000000000
 fermi  :       0.57467      0.16243    0.000000534    0.000000000
 fermi  :       0.53770      0.16243    0.000029330    0.000000000
 fermi  :       0.50989      0.16243    0.000426928    0.000000000
 fermi  :       0.48712      0.16243    0.001357550    0.000000000
 fermi  :       0.46416      0.16243    0.001649495    0.000000000
 fermi  :       0.44277      0.16243    0.001427686    0.000000000
 fermi  :       0.42611      0.16243    0.000994590    0.000000000
 fermi  :       0.41621      0.16243    0.000447478    0.000000000
 circle :       0.41286      0.23516    0.000215126   -0.013710786
 circle :       0.40479      0.54471    0.001157073   -0.031756715
 circle :       0.37439      1.09749    0.003634542   -0.049401014
 circle :       0.29541      1.88534    0.008415965   -0.066235554
 circle :       0.13211      2.89377    0.016114794   -0.081720641
 circle :      -0.15813      4.09978    0.027118691   -0.095148678
 circle :      -0.62128      5.46974    0.041517660   -0.105668982
 circle :      -1.30213      6.95781    0.059042090   -0.112355286
 circle :      -2.23913      8.50563    0.079026526   -0.114312802
 circle :      -3.45899     10.04365    0.100415832   -0.110813590
 circle :      -4.97173     11.49434    0.121826529   -0.101440259
 circle :      -6.76697     12.77737    0.141667241   -0.086211518
 circle :      -8.81220     13.81608    0.158309667   -0.065661390
 circle :     -11.05362     14.54472    0.170288177   -0.040848962
 circle :     -13.41976     14.91513    0.176495843   -0.013287325
 circle :     -15.82741     14.90206    0.176341138    0.015203238
 circle :     -18.18938     14.50597    0.169834526    0.042695837
 circle :     -20.42277     13.75304    0.157587267    0.067376718
 circle :     -22.45659     12.69217    0.140722653    0.087744902
 circle :     -24.23779     11.38973    0.120717731    0.102757281
 circle :     -25.73469      9.92269    0.099206504    0.111897544
 circle :     -26.93777      8.37152    0.077780459    0.115164267
 circle :     -27.85791      6.81361    0.057818460    0.112989841
 circle :     -28.52256      5.31823    0.040367675    0.106113622
 circle :     -28.97080      3.94333    0.026083803    0.095437569
 circle :     -29.24793      2.73423    0.015226380    0.081890824
 circle :     -29.40027      1.72409    0.007696168    0.066323044
 circle :     -29.47069      0.93543    0.003097869    0.049437567
 circle :     -29.49508      0.38235    0.000812334    0.031767873
 circle :     -29.49979      0.07273    0.000066680    0.013712003
 Right equilibrium:
 resi   :      -0.50000      0.02707   -0.000000000   -0.003979496
 resi   :      -0.50000      0.08122   -0.000000000   -0.003979496
 resi   :      -0.50000      0.13536   -0.000000000   -0.003979496
 fermi  :      -0.30893      0.16243    0.000000000    0.000000000
 fermi  :      -0.37675      0.16243    0.000000003    0.000000000
 fermi  :      -0.42533      0.16243    0.000000534    0.000000000
 fermi  :      -0.46230      0.16243    0.000029330    0.000000000
 fermi  :      -0.49011      0.16243    0.000426928    0.000000000
 fermi  :      -0.51288      0.16243    0.001357550    0.000000000
 fermi  :      -0.53584      0.16243    0.001649495    0.000000000
 fermi  :      -0.55723      0.16243    0.001427686    0.000000000
 fermi  :      -0.57389      0.16243    0.000994590    0.000000000
 fermi  :      -0.58379      0.16243    0.000447478    0.000000000
 circle :      -0.58714      0.23516    0.000215126   -0.013710786
 circle :      -0.59521      0.54471    0.001157073   -0.031756715
 circle :      -0.62561      1.09749    0.003634542   -0.049401014
 circle :      -0.70459      1.88534    0.008415965   -0.066235554
 circle :      -0.86789      2.89377    0.016114794   -0.081720641
 circle :      -1.15813      4.09978    0.027118691   -0.095148678
 circle :      -1.62128      5.46974    0.041517660   -0.105668982
 circle :      -2.30213      6.95781    0.059042090   -0.112355286
 circle :      -3.23913      8.50563    0.079026526   -0.114312802
 circle :      -4.45899     10.04365    0.100415832   -0.110813590
 circle :      -5.97173     11.49434    0.121826529   -0.101440259
 circle :      -7.76697     12.77737    0.141667241   -0.086211518
 circle :      -9.81220     13.81608    0.158309667   -0.065661390
 circle :     -12.05362     14.54472    0.170288177   -0.040848962
 circle :     -14.41976     14.91513    0.176495843   -0.013287325
 circle :     -16.82741     14.90206    0.176341138    0.015203238
 circle :     -19.18938     14.50597    0.169834526    0.042695837
 circle :     -21.42276     13.75304    0.157587267    0.067376718
 circle :     -23.45659     12.69217    0.140722653    0.087744902
 circle :     -25.23779     11.38973    0.120717731    0.102757281
 circle :     -26.73469      9.92269    0.099206504    0.111897544
 circle :     -27.93777      8.37152    0.077780459    0.115164267
 circle :     -28.85791      6.81361    0.057818460    0.112989841
 circle :     -29.52256      5.31823    0.040367675    0.106113622
 circle :     -29.97080      3.94333    0.026083803    0.095437569
 circle :     -30.24793      2.73423    0.015226380    0.081890824
 circle :     -30.40027      1.72409    0.007696168    0.066323044
 circle :     -30.47069      0.93543    0.003097869    0.049437567
 circle :     -30.49508      0.38235    0.000812334    0.031767873
 circle :     -30.49979      0.07273    0.000066680    0.013712003
 Non-equilibrium:
 gaussF :      -0.49660      0.00001    0.001335608    0.000000000
 gaussQ :      -0.48276      0.00001    0.001844777    0.000000000
 gaussQ :      -0.40230      0.00001    0.007268853    0.000000000
 gaussQ :      -0.32184      0.00001    0.005297702    0.000000000
 gaussQ :      -0.24138      0.00001    0.006036916    0.000000000
 gaussQ :      -0.16092      0.00001    0.005913714    0.000000000
 gaussQ :      -0.08046      0.00001    0.005913714    0.000000000
 gaussQ :      -0.00000      0.00001    0.005913714    0.000000000
 gaussQ :       0.08046      0.00001    0.005913714    0.000000000
 gaussQ :       0.16092      0.00001    0.005913714    0.000000000
 gaussQ :       0.24138      0.00001    0.006036916    0.000000000
 gaussQ :       0.32184      0.00001    0.005297702    0.000000000
 gaussQ :       0.40230      0.00001    0.007268853    0.000000000
 gaussQ :       0.48276      0.00001    0.001844777    0.000000000
 gaussF :       0.49660      0.00001    0.001335608    0.000000000


Creating Green's function file for: left 
 Left unit cell (Ang):
  2.9231  0.0000  0.0000
  1.4616  2.5315  0.0000
  0.0000  0.0000  7.1601
 Structure of the Left electrode  | System electrode:
     X (Ang)   Y (Ang)   Z (Ang)  |   X (Ang)   Y (Ang)   Z (Ang)
     0.00000   0.00000   0.00000  |   0.00000   0.00000   0.00000
     1.46156   0.84383   2.38671  |   1.46156   0.84383   2.38671
     1.46156  -0.84383   4.77342  |   1.46156  -0.84383   4.77342
 WARNING: Connections across 2 unit cells or more in the transport direction.
 WARNING: This is inadvisable.
 WARNING: Please increase the electrode size in the transport direction.
 WARNING: Will proceed without further notice.
 Electrodes with transport k-points  (Bohr**-1) and weights:
   1    -0.42655E+00   0.24627E+00   0.31250E-01
   2    -0.28436E+00   0.16418E+00   0.31250E-01
   3    -0.14218E+00   0.82089E-01   0.31250E-01
   4     0.00000E+00   0.00000E+00   0.15625E-01
   5     0.56873E+00  -0.32836E+00   0.15625E-01
   6    -0.42655E+00   0.41045E+00   0.31250E-01
   7    -0.28436E+00   0.32836E+00   0.31250E-01
   8    -0.14218E+00   0.24627E+00   0.31250E-01
   9     0.00000E+00   0.16418E+00   0.31250E-01
  10     0.14218E+00   0.82089E-01   0.31250E-01
  11     0.28436E+00   0.43598E-16   0.31250E-01
  12     0.42655E+00  -0.82089E-01   0.31250E-01
  13     0.56873E+00  -0.16418E+00   0.31250E-01
  14    -0.42655E+00   0.57462E+00   0.31250E-01
  15    -0.28436E+00   0.49253E+00   0.31250E-01
  16    -0.14218E+00   0.41045E+00   0.31250E-01
  17     0.00000E+00   0.32836E+00   0.31250E-01
  18     0.14218E+00   0.24627E+00   0.31250E-01
  19     0.28436E+00   0.16418E+00   0.31250E-01
  20     0.42655E+00   0.82089E-01   0.31250E-01
  21     0.56873E+00   0.87197E-16   0.31250E-01
  22    -0.42655E+00   0.73880E+00   0.31250E-01
  23    -0.28436E+00   0.65671E+00   0.31250E-01
  24    -0.14218E+00   0.57462E+00   0.31250E-01
  25     0.00000E+00   0.49253E+00   0.31250E-01
  26     0.14218E+00   0.41045E+00   0.31250E-01
  27     0.28436E+00   0.32836E+00   0.31250E-01
  28     0.42655E+00   0.24627E+00   0.31250E-01
  29     0.56873E+00   0.16418E+00   0.31250E-01
  30    -0.42655E+00   0.90298E+00   0.15625E-01
  31    -0.28436E+00   0.82089E+00   0.15625E-01
  32    -0.14218E+00   0.73880E+00   0.15625E-01
  33     0.00000E+00   0.65671E+00   0.15625E-01
  34     0.14218E+00   0.57462E+00   0.15625E-01
  35     0.28436E+00   0.49253E+00   0.15625E-01
  36     0.42655E+00   0.41045E+00   0.15625E-01
  37     0.56873E+00   0.32836E+00   0.15625E-01
 Atoms available    / used atoms   :      3 /      3
 Orbitals available / used orbitals:     27 /     27
 q-points for expanding electrode (Bohr**-1):
   1     0.00000E+00   0.00000E+00   0.10000E+01
 Fermi level shift in electrode :        0.50000  eV
Done creating 'au_111_capacitor.TSGFL'.

Creating Green's function file for: right
 Right unit cell (Ang):
  2.9231  0.0000  0.0000
  1.4616  2.5315  0.0000
  0.0000  0.0000  7.1601
 Structure of the Right electrode | System electrode:
     X (Ang)   Y (Ang)   Z (Ang)  |   X (Ang)   Y (Ang)   Z (Ang)
     0.00000   0.00000   0.00000  |   0.00000   0.00000   0.00000
     1.46156   0.84383   2.38671  |   1.46156   0.84383   2.38671
     1.46156  -0.84383   4.77342  |   1.46156  -0.84383   4.77342
 WARNING: Connections across 2 unit cells or more in the transport direction.
 WARNING: This is inadvisable.
 WARNING: Please increase the electrode size in the transport direction.
 WARNING: Will proceed without further notice.
 Electrodes with transport k-points  (Bohr**-1) and weights:
   1    -0.42655E+00   0.24627E+00   0.31250E-01
   2    -0.28436E+00   0.16418E+00   0.31250E-01
   3    -0.14218E+00   0.82089E-01   0.31250E-01
   4     0.00000E+00   0.00000E+00   0.15625E-01
   5     0.56873E+00  -0.32836E+00   0.15625E-01
   6    -0.42655E+00   0.41045E+00   0.31250E-01
   7    -0.28436E+00   0.32836E+00   0.31250E-01
   8    -0.14218E+00   0.24627E+00   0.31250E-01
   9     0.00000E+00   0.16418E+00   0.31250E-01
  10     0.14218E+00   0.82089E-01   0.31250E-01
  11     0.28436E+00   0.43598E-16   0.31250E-01
  12     0.42655E+00  -0.82089E-01   0.31250E-01
  13     0.56873E+00  -0.16418E+00   0.31250E-01
  14    -0.42655E+00   0.57462E+00   0.31250E-01
  15    -0.28436E+00   0.49253E+00   0.31250E-01
  16    -0.14218E+00   0.41045E+00   0.31250E-01
  17     0.00000E+00   0.32836E+00   0.31250E-01
  18     0.14218E+00   0.24627E+00   0.31250E-01
  19     0.28436E+00   0.16418E+00   0.31250E-01
  20     0.42655E+00   0.82089E-01   0.31250E-01
  21     0.56873E+00   0.87197E-16   0.31250E-01
  22    -0.42655E+00   0.73880E+00   0.31250E-01
  23    -0.28436E+00   0.65671E+00   0.31250E-01
  24    -0.14218E+00   0.57462E+00   0.31250E-01
  25     0.00000E+00   0.49253E+00   0.31250E-01
  26     0.14218E+00   0.41045E+00   0.31250E-01
  27     0.28436E+00   0.32836E+00   0.31250E-01
  28     0.42655E+00   0.24627E+00   0.31250E-01
  29     0.56873E+00   0.16418E+00   0.31250E-01
  30    -0.42655E+00   0.90298E+00   0.15625E-01
  31    -0.28436E+00   0.82089E+00   0.15625E-01
  32    -0.14218E+00   0.73880E+00   0.15625E-01
  33     0.00000E+00   0.65671E+00   0.15625E-01
  34     0.14218E+00   0.57462E+00   0.15625E-01
  35     0.28436E+00   0.49253E+00   0.15625E-01
  36     0.42655E+00   0.41045E+00   0.15625E-01
  37     0.56873E+00   0.32836E+00   0.15625E-01
 Atoms available    / used atoms   :      3 /      3
 Orbitals available / used orbitals:     27 /     27
 q-points for expanding electrode (Bohr**-1):
   1     0.00000E+00   0.00000E+00   0.10000E+01
 Fermi level shift in electrode :       -0.50000  eV
Done creating 'au_111_capacitor.TSGFR'.

Left : GF atoms    / Expanded atoms    :      3 /      3
Left : GF orbitals / Expanded orbitals :     27 /     27
Right: GF atoms    / Expanded atoms    :      3 /      3
Right: GF orbitals / Expanded orbitals :     27 /     27

Naive supercell factors:     7    7    1

superc: Internal auxiliary supercell:     7 x     7 x     1  =      49
superc: Number of atoms, orbitals, and projectors:    490   4410   7840

                     ====================================
                        Single-point calculation
                     ====================================

superc: Internal auxiliary supercell:     7 x     7 x     1  =      49
superc: Number of atoms, orbitals, and projectors:    490   4410   7840

outcell: Unit cell vectors (Ang):
        2.923110    0.000000    0.000000
        1.461555    2.531488    0.000000
        0.000000    0.000000   31.027221

outcell: Cell vector modules (Ang)   :    2.923110    2.923110   31.027221
outcell: Cell angles (23,13,12) (deg):     90.0000     90.0000     60.0000
outcell: Cell volume (Ang**3)        :    229.5957
New_DM. Step:     1
Initializing Density Matrix...
TRANSIESTA: No TS-DensityMatrix file found
TRANSIESTA: Initialization runs using diagon
New grid distribution:   1
           1       1:   15    1:    8    1:   45
           2       1:   15    1:    8   46:   90
           3       1:   15    1:    8   91:  135
           4       1:   15    1:    8  136:  180
           5       1:   15    9:   15    1:   45
           6       1:   15    9:   15   46:   90
           7       1:   15    9:   15   91:  135
           8       1:   15    9:   15  136:  180

InitMesh: MESH =    30 x    30 x   360 =      324000
InitMesh: (bp) =    15 x    15 x   180 =       40500
InitMesh: Mesh cutoff (required, used) =   350.000   372.067 Ry
ExtMesh (bp) on 0 =   107 x   100 x   137 =     1465900
New grid distribution:   2
           1       1:   15    1:   15  149:  164
           2       1:   15    1:   15   49:  115
           3       1:   15    1:   15    1:   16
           4       1:   15    1:   15  133:  148
           5       1:   15    1:   15   17:   32
           6       1:   15    1:   15   33:   48
           7       1:   15    1:   15  116:  132
           8       1:   15    1:   15  165:  180
New grid distribution:   3
           1       1:   15    1:   15    1:   21
           2       1:   15    1:   15   64:   96
           3       1:   15    1:   15   97:  117
           4       1:   15    1:   15  139:  159
           5       1:   15    1:   15   22:   42
           6       1:   15    1:   15   43:   63
           7       1:   15    1:   15  118:  138
           8       1:   15    1:   15  160:  180
Setting up quadratic distribution...
ExtMesh (bp) on 0 =   107 x   107 x   108 =     1236492
PhiOnMesh: Number of (b)points on node 0 =                 3600
PhiOnMesh: nlist on node 0 =               294085

ts_voltage: Bias  1.000 V
ts_voltage: In unit cell direction = { 0.000, 0.000, 1.000}

stepf: Fermi-Dirac step function

siesta: Program's energy decomposition (eV):
siesta: Ebs     =       171.391570
siesta: Eions   =     11712.249174
siesta: Ena     =       583.627907
siesta: Ekin    =      6217.756800
siesta: Enl     =     -2860.936589
siesta: DEna    =       117.883869
siesta: DUscf   =        11.594323
siesta: DUext   =         0.000000
siesta: Exc     =     -1398.155629
siesta: eta*DQ  =         0.000000
siesta: Emadel  =         0.000000
siesta: Emeta   =         0.000000
siesta: Emolmec =         0.000000
siesta: Ekinion =         0.000000
siesta: Eharris =     -9025.331666
siesta: Etot    =     -9040.478493
siesta: FreeEng =     -9040.480161

   scf: iscf   Eharris(eV)      E_KS(eV)   FreeEng(eV)    dDmax  Ef(eV)
   scf:    1    -9025.3317    -9040.4785    -9040.4802  1.58639 -2.5840
timer: Routine,Calls,Time,% =    IterSCF     1       3.503  37.80
   scf:    2    -9031.8091    -9040.4694    -9040.4712  1.73846 -2.3429
   scf:    3    -9044.1296    -9043.2301    -9043.2320  0.38074 -2.5153
   scf:    4    -9043.8409    -9043.6578    -9043.6597  0.32057 -2.5637
   scf:    5    -9042.8291    -9043.7822    -9043.7849  0.94262 -2.4740
   scf:    6    -8919.2000    -9006.1740    -9006.1759  6.73769 -3.4190
   scf:    7    -9056.9918    -9041.5216    -9041.5252  1.90689 -2.7051
   scf:    8    -9023.8767    -9034.0761    -9034.0779  3.44580 -3.0333
   scf:    9    -9037.1268    -9035.6533    -9035.6550  3.16724 -3.0721
   scf:   10    -9037.7040    -9044.6471    -9044.6506  0.93229 -2.6061
   scf:   11    -9044.4702    -9045.3328    -9045.3368  0.45846 -2.7740
   scf:   12    -9045.3675    -9045.4120    -9045.4161  0.06685 -2.7028
   scf:   13    -9045.5137    -9045.4664    -9045.4704  0.03420 -2.7264
   scf:   14    -9045.5116    -9045.4896    -9045.4936  0.03643 -2.7381
   scf:   15    -9045.5421    -9045.5166    -9045.5206  0.03998 -2.7546
   scf:   16    -9045.5731    -9045.5486    -9045.5525  0.01698 -2.7787
   scf:   17    -9045.5490    -9045.5500    -9045.5539  0.02887 -2.7904
   scf:   18    -9045.5519    -9045.5513    -9045.5552  0.00827 -2.7881
   scf:   19    -9045.5529    -9045.5522    -9045.5560  0.00796 -2.7886
   scf:   20    -9045.5549    -9045.5536    -9045.5576  0.00859 -2.7889
   scf:   21    -9045.5551    -9045.5545    -9045.5584  0.00609 -2.7912
   scf:   22    -9045.5551    -9045.5548    -9045.5587  0.00465 -2.7960
   scf:   23    -9045.5551    -9045.5550    -9045.5589  0.00186 -2.7980
   scf:   24    -9045.5550    -9045.5550    -9045.5589  0.00163 -2.7982
   scf:   25    -9045.5550    -9045.5550    -9045.5589  0.00134 -2.7985
   scf:   26    -9045.5551    -9045.5550    -9045.5589  0.00104 -2.7998
   scf:   27    -9045.5550    -9045.5550    -9045.5589  0.00109 -2.7998
   scf:   28    -9045.5551    -9045.5551    -9045.5589  0.00106 -2.7989
   scf:   29    -9045.5551    -9045.5551    -9045.5589  0.00082 -2.7989
   scf:   30    -9045.5551    -9045.5551    -9045.5590  0.00083 -2.7993
   scf:   31    -9045.5551    -9045.5551    -9045.5590  0.00058 -2.7991
   scf:   32    -9045.5552    -9045.5551    -9045.5590  0.00020 -2.7997
   scf:   33    -9045.5551    -9045.5551    -9045.5590  0.00009 -2.7998

SCF Convergence by dMax criterion
max |H_out - H_in| (eV):     0.00126184
SCF cycle converged after   33 iterations

                          ************************       
                          *   TRANSIESTA BEGIN   *       
                          ************************       

Creating update lists and calculating SIESTA charge distribution...

transiesta: Total elements / Updated elements :    93430 /    43036

Efermi from SIESTA                   :    -2.79983
Total charge                  [Qt0]  :   110.00000
Charge in update region       [Qc]   :    44.31382
Charge outside update region  [Qcn]  :    65.68618
Left electrode                [L]    :    32.69902
Left electrode/device         [L-C]  :     0.30826
Device                        [C]    :    43.69729
Device/right electrode        [C-R]  :     0.30827
Right electrode               [R]    :    32.69901
Other                         [O]    :     0.28815

 Reading GF file, with title:
   au_111_capacitor.TSGFL
 Title: 'Generated GF file'

 Reading GF file, with title:
   au_111_capacitor.TSGFR
 Title: 'Generated GF file'

ts-charge:        O        L      L-C        C      C-R        R       Qt
ts-charge:    0.288   32.699    0.338   43.650    0.233   32.699  109.907

siesta: Program's energy decomposition (eV):
siesta: Ebs     =     -1255.126359
siesta: Eions   =     11712.249174
siesta: Ena     =       583.627907
siesta: Ekin    =      6362.560164
siesta: Enl     =     -2949.805269
siesta: DEna    =        79.082886
siesta: DUscf   =        11.417907
siesta: DUext   =         0.000000
siesta: Exc     =     -1411.982247
siesta: eta*DQ  =         0.000000
siesta: Emadel  =         0.000000
siesta: Emeta   =         0.000000
siesta: Emolmec =         0.000000
siesta: Ekinion =         0.000000
siesta: Eharris =     -9021.200514
siesta: Etot    =     -9037.347827
siesta: FreeEng =     -9037.351663

transiesta: iscf   Eharris(eV)      E_KS(eV)   FreeEng(eV)    dDmax  Ef(eV)
transiesta:    1    -9021.2005    -9037.3478    -9037.3517  2.20624 -2.7998
timer: Routine,Calls,Time,% =         TS     1       1.131   1.01
timer: Routine,Calls,Time,% =    TS_calc     2       1.130   1.01
ts-charge:        O        L      L-C        C      C-R        R       Qt
ts-charge:    0.288   32.699    0.264   43.814    0.354   32.699  110.118
transiesta:    2    -9000.5283    -9036.4367    -9036.4405  2.68794 -2.7998
ts-charge:        O        L      L-C        C      C-R        R       Qt
ts-charge:    0.288   32.699    0.313   43.674    0.298   32.699  109.971
transiesta:    3    -9045.2180    -9045.3019    -9045.3058  0.13866 -2.7998
ts-charge:        O        L      L-C        C      C-R        R       Qt
ts-charge:    0.288   32.699    0.316   43.703    0.297   32.699  110.002
transiesta:    4    -9045.5397    -9045.4493    -9045.4531  0.04908 -2.7998
ts-charge:        O        L      L-C        C      C-R        R       Qt
ts-charge:    0.288   32.699    0.316   43.699    0.295   32.699  109.997
transiesta:    5    -9045.4093    -9045.4277    -9045.4315  0.03101 -2.7998
ts-charge:        O        L      L-C        C      C-R        R       Qt
ts-charge:    0.288   32.699    0.317   43.694    0.293   32.699  109.991
transiesta:    6    -9045.3653    -9045.3960    -9045.3998  0.01554 -2.7998
ts-charge:        O        L      L-C        C      C-R        R       Qt
ts-charge:    0.288   32.699    0.317   43.699    0.294   32.699  109.997
transiesta:    7    -9045.4504    -9045.4277    -9045.4315  0.01894 -2.7998
ts-charge:        O        L      L-C        C      C-R        R       Qt
ts-charge:    0.288   32.699    0.316   43.697    0.299   32.699  109.998
transiesta:    8    -9045.4813    -9045.4547    -9045.4586  0.00375 -2.7998
ts-charge:        O        L      L-C        C      C-R        R       Qt
ts-charge:    0.288   32.699    0.316   43.695    0.299   32.699  109.996
transiesta:    9    -9045.4457    -9045.4494    -9045.4533  0.00184 -2.7998
ts-charge:        O        L      L-C        C      C-R        R       Qt
ts-charge:    0.288   32.699    0.316   43.695    0.299   32.699  109.996
transiesta:   10    -9045.4490    -9045.4491    -9045.4530  0.00175 -2.7998
ts-charge:        O        L      L-C        C      C-R        R       Qt
ts-charge:    0.288   32.699    0.316   43.695    0.299   32.699  109.996
transiesta:   11    -9045.4459    -9045.4473    -9045.4512  0.00154 -2.7998
ts-charge:        O        L      L-C        C      C-R        R       Qt
ts-charge:    0.288   32.699    0.316   43.695    0.299   32.699  109.996
transiesta:   12    -9045.4465    -9045.4469    -9045.4507  0.00157 -2.7998
ts-charge:        O        L      L-C        C      C-R        R       Qt
ts-charge:    0.288   32.699    0.316   43.694    0.299   32.699  109.996
transiesta:   13    -9045.4468    -9045.4468    -9045.4507  0.00141 -2.7998
ts-charge:        O        L      L-C        C      C-R        R       Qt
ts-charge:    0.288   32.699    0.316   43.694    0.299   32.699  109.995
transiesta:   14    -9045.4477    -9045.4473    -9045.4511  0.00150 -2.7998
ts-charge:        O        L      L-C        C      C-R        R       Qt
ts-charge:    0.288   32.699    0.316   43.694    0.300   32.699  109.996
transiesta:   15    -9045.4523    -9045.4499    -9045.4538  0.00104 -2.7998
ts-charge:        O        L      L-C        C      C-R        R       Qt
ts-charge:    0.288   32.699    0.316   43.694    0.300   32.699  109.996
transiesta:   16    -9045.4520    -9045.4509    -9045.4547  0.00086 -2.7998
ts-charge:        O        L      L-C        C      C-R        R       Qt
ts-charge:    0.288   32.699    0.316   43.694    0.300   32.699  109.996
transiesta:   17    -9045.4677    -9045.4597    -9045.4635  0.00069 -2.7998
ts-charge:        O        L      L-C        C      C-R        R       Qt
ts-charge:    0.288   32.699    0.316   43.694    0.300   32.699  109.996
transiesta:   18    -9045.4569    -9045.4582    -9045.4620  0.00034 -2.7998
ts-charge:        O        L      L-C        C      C-R        R       Qt
ts-charge:    0.288   32.699    0.316   43.694    0.300   32.699  109.996
transiesta:   19    -9045.4583    -9045.4582    -9045.4621  0.00018 -2.7998
ts-charge:        O        L      L-C        C      C-R        R       Qt
ts-charge:    0.288   32.699    0.316   43.694    0.300   32.699  109.996
transiesta:   20    -9045.4578    -9045.4580    -9045.4619  0.00017 -2.7998
ts-charge:        O        L      L-C        C      C-R        R       Qt
ts-charge:    0.288   32.699    0.316   43.694    0.300   32.699  109.996
transiesta:   21    -9045.4572    -9045.4576    -9045.4614  0.00012 -2.7998
ts-charge:        O        L      L-C        C      C-R        R       Qt
ts-charge:    0.288   32.699    0.316   43.694    0.300   32.699  109.996
transiesta:   22    -9045.4573    -9045.4574    -9045.4613  0.00006 -2.7998

SCF Convergence by dMax criterion
max |H_out - H_in| (eV):     0.00084713
SCF cycle converged after   22 iterations

Using DM_out to compute the final energy and forces

siesta: E_KS(eV) =            -9045.4574

siesta: E_KS - E_eggbox =     -9045.4574

siesta: Atomic forces (eV/Ang):
----------------------------------------
   Tot    0.000027   -0.000034    0.167462
----------------------------------------
   Max    0.669083
   Res    0.187866    sqrt( Sum f_i^2 / 3N )
----------------------------------------
   Max    0.669083    constrained

Stress-tensor-Voigt (kbar):       42.43       42.37       27.02       -0.09        0.16        0.09
(Free)E + p*V (eV/cell)    -9050.8024
Target enthalpy (eV/cell)    -9045.4613

mulliken: Atomic and Orbital Populations:

Species: Au                  
Atom  Qatom  Qorb
               6s      5dxy    5dyz    5dz2    5dxz    5dx2-y2 6Ppy    6Ppz    
               6Ppx    
   1 11.002   1.005   1.907   1.918   1.892   1.918   1.907   0.152   0.150
              0.152
   2 10.997   0.996   1.906   1.923   1.889   1.923   1.906   0.151   0.154
              0.151
   3 11.002   1.003   1.909   1.923   1.892   1.923   1.909   0.150   0.144
              0.150
   4 10.972   0.989   1.907   1.930   1.891   1.930   1.907   0.143   0.130
              0.143
   5 11.031   1.059   1.890   1.938   1.926   1.938   1.890   0.138   0.114
              0.138
   6 11.021   1.056   1.891   1.938   1.925   1.938   1.891   0.138   0.106
              0.138
   7 10.978   0.978   1.908   1.925   1.886   1.925   1.908   0.150   0.149
              0.150
   8 10.996   1.004   1.908   1.914   1.889   1.914   1.908   0.153   0.152
              0.153
   9 10.995   0.995   1.906   1.923   1.889   1.923   1.906   0.151   0.153
              0.151
  10 11.002   1.005   1.907   1.918   1.892   1.918   1.907   0.152   0.150
              0.152

mulliken: Qtot =      109.996

coxmol: Writing XMOL coordinates into file au_111_capacitor.xyz                                            

siesta: Program's energy decomposition (eV):
siesta: Ebs     =      -763.796999
siesta: Eions   =     11712.249174
siesta: Ena     =       583.627907
siesta: Ekin    =      6365.955651
siesta: Enl     =     -2950.967770
siesta: DEna    =        77.653227
siesta: DUscf   =         3.823170
siesta: DUext   =         0.000000
siesta: Exc     =     -1413.300441
siesta: eta*DQ  =         0.000000
siesta: Emadel  =         0.000000
siesta: Emeta   =         0.000000
siesta: Emolmec =         0.000000
siesta: Ekinion =         0.000000
siesta: Eharris =     -9045.457265
siesta: Etot    =     -9045.457431
siesta: FreeEng =     -9045.461267

siesta: Final energy (eV):
siesta:  Band Struct. =    -763.796999
siesta:       Kinetic =    6365.955651
siesta:       Hartree =   21681.833513
siesta:    Ext. field =       0.000000
siesta:   Exch.-corr. =   -1413.300441
siesta:  Ion-electron =  -48642.882892
siesta:       Ion-ion =   12962.936739
siesta:       Ekinion =       0.000000
siesta:         Total =   -9045.457431

siesta: Atomic forces (eV/Ang):
siesta:      1    0.000002    0.000007    0.148592
siesta:      2    0.000134    0.000736    0.003835
siesta:      3   -0.001233    0.008761    0.485990
siesta:      4    0.001089   -0.009599   -0.669083
siesta:      5    0.000038    0.000049   -0.020192
siesta:      6   -0.000723    0.000154    0.028915
siesta:      7    0.006228   -0.005515   -0.303932
siesta:      8   -0.005831    0.006265    0.506600
siesta:      9    0.000324   -0.000889    0.026490
siesta:     10   -0.000001   -0.000004   -0.039754
siesta: ----------------------------------------
siesta:    Tot    0.000027   -0.000034    0.167462

siesta: Stress tensor (static) (eV/Ang**3):
siesta:     0.026482   -0.000119    0.000036
siesta:    -0.000054    0.026445    0.000061
siesta:     0.000053    0.000100    0.016863

siesta: Cell volume =        229.595743 Ang**3

siesta: Pressure (static):
siesta:                Solid            Molecule  Units
siesta:          -0.00025337         -0.00026322  Ry/Bohr**3
siesta:          -0.02326333         -0.02416801  eV/Ang**3
siesta:         -37.27236617        -38.72184422  kBar
(Free)E+ p_basis*V_orbitals  =       -9038.532031
(Free)Eharris+ p_basis*V_orbitals  =       -9038.531866

dhscf: Vacuum level (max, mean) =    2.389660    2.206894 eV
>> End of run:  13-JUN-2018  21:38:59
Job completed
