Siesta Version  : siesta-4.1-1033
Architecture    : x86_64-linux-n-62-18-18
Compiler version: GNU Fortran (GCC) 7.3.0
Compiler flags  : mpifort -m64 -fPIC -O3 -march=native -ftree-vectorize -fexpensive-optimizatioons -funroll-loops -fprefetch-loop-arrays -fno-second-underscore  -flto
PP flags        : -I/zdata/groups/common/nicpa/2018-feb/generic/build-tools/1.0/include -I/zdatta/groups/common/nicpa/2018-feb/generic/gcc/7.3.0/include -I/zdata/groups/common/nicpa/2018-feb/generic/gcc/7.3.0/include -I/zdata/groups/common/nicpa/2018-feb/XeonE5-2665/zlib/1.2.11/gnu-7.3.0/include -I/zdata/groups/common/nicpa/2018-feb/generic/numactl/2.0.11/include -I/zdata/groups/common/nicpa/2018-feb/XeonE5-2665/libxml2/2.9.7/gnu-7.3.0/include -I/zdata/groups/common/nicpa/2018-feb/XeonE5-2665/hwloc/1.11.9/gnu-7.3.0/include -I/zdata/groups/common/nicpa/2018-feb/XeonE5-2665/openmpi/3.0.0/gnu-7.3.0/include -I/zdata/groups/common/nicpa/2018-feb/XeonE5-2665/szip/2.1.1/gnu-7.3.0/include -I/zdata/groups/common/nicpa/2018-feb/XeonE5-2665/hdf5/1.8.18/gnu-7.3.0/include -I/zdata/groups/common/nicpa/2018-feb/XeonE5-2665/pnetcdf/1.8.1/gnu-7.3.0/include -I/zdata/groups/common/nicpa/2018-feb/XeonE5-2665/netcdf/4.6.0/gnu-7.3.0/include -I/zdata/groups/common/nicpa/2018-feb/XeonE5-2665/flook/0.7.0/gnu-7.3.0/include -I/zdata/groups/common/nicpa/2018-feb/XeonE5-2665/parmetis/4.0.3/gnu-7.3.0/include -I/zdata/groups/common/nicpa/2018-feb/XeonE5-2665/scalapack/204/gnu-7.3.0/include -I/zdata/groups/common/nicpa/2018-feb/XeonE5-2665/openblas/0.2.20/gnu-7.3.0/include -I/zdata/groups/common/nicpa/2018-feb/XeonE5-2665/scotch/6.0.4/gnu-7.3.0/include -I/zdata/groups/common/nicpa/2018-feb/XeonE5-2665/mumps/5.1.2/gnu-7.3.0/include -I/zdata/groups/common/nicpa/2018-feb/XeonE5-2665/fftw/3.3.7/gnu-7.3.0/include -I/zdata/groups/common/nicpa/2018-feb/XeonE5-2665/elpa/2017.05.003/gnu-7.3.0/include/elpa -DSIESTA__ELPA -DMPI -D1 -DFC_HAVE_ABORT -DCDF -DCDF4 -DSIESTA__FLOOK  -DNCDF -DNCDF_4 -DNCDF_PARALLEL -DSIESTA__METIS -DSIESTA__MUMPS -DTS_NOCHECKS -DSIESTA__MRRR
Libraries       : libncdf.a libfdict.a -lnetcdff -lnetcdf -lpnetcdf -lhdf5_hl -lhdf5 -lz  -lzmuumps -lmumps_common -lesmumps -lscotch -lscotcherr -lpord -lparmetis -lmetis -lelpa -lscalapack -lopenblas  -L/zdata/groups/common/nicpa/2018-feb/XeonE5-2665/flook/0.7.0/gnu-7.3.0/lib -Wl,-rpath=/zdata/groups/common/nicpa/2018-feb/XeonE5-2665/flook/0.7.0/gnu-7.3.0/lib -lflookall -ldl  -flto -fuse-linker-plugin  -lmetis
PARALLEL version
NetCDF support
NetCDF-4 support
NetCDF-4 MPI-IO support
METIS ordering support

* Running on 8 nodes in parallel
>> Start of run:   5-NOV-2018  11:24:09

                           ***********************       
                           *  WELCOME TO SIESTA  *       
                           ***********************       

reinit: Reading from au_111_capacitor.fdf

reinit: -----------------------------------------------------------------------
reinit: System Name: au_111_capacitor
reinit: -----------------------------------------------------------------------
reinit: System Label: au_111_capacitor
reinit: -----------------------------------------------------------------------

initatom: Reading input for the pseudopotentials and atomic orbitals ----------
Species number:   1 Atomic number:   79 Label: Au

Ground state valence configuration:   6s01  5d10
Reading pseudopotential information in formatted form from Au.psf

Pseudopotential generated from a relativistic atomic calculation

Valence configuration for pseudopotential generation:
6s( 1.00) rc: 2.32
6p( 0.00) rc: 2.32
5d(10.00) rc: 2.32
5f( 0.00) rc: 2.32
For Au, standard SIESTA heuristics set lmxkb to 3
 (one more than the basis l, including polarization orbitals).
Use PS.lmax or PS.KBprojectors blocks to override.

<basis_specs>
===============================================================================
Au                   Z=  79    Mass=  196.97        Charge= 0.17977+309
Lmxo=2 Lmxkb= 3    BasisType=split      Semic=F
L=0  Nsemic=0  Cnfigmx=6
          n=1  nzeta=1  polorb=1
            splnorm:   0.15000    
               vcte:    0.0000    
               rinn:    0.0000    
               qcoe:    0.0000    
               qyuk:    0.0000    
               qwid:   0.10000E-01
                rcs:    0.0000    
            lambdas:    1.0000    
L=1  Nsemic=0  Cnfigmx=6
L=2  Nsemic=0  Cnfigmx=5
          n=1  nzeta=1  polorb=0
            splnorm:   0.15000    
               vcte:    0.0000    
               rinn:    0.0000    
               qcoe:    0.0000    
               qyuk:    0.0000    
               qwid:   0.10000E-01
                rcs:    0.0000    
            lambdas:    1.0000    
-------------------------------------------------------------------------------
L=0  Nkbl=1  erefs: 0.17977+309
L=1  Nkbl=1  erefs: 0.17977+309
L=2  Nkbl=1  erefs: 0.17977+309
L=3  Nkbl=1  erefs: 0.17977+309
===============================================================================
</basis_specs>

atom: Called for Au                    (Z =  79)

read_vps: Pseudopotential generation method:
read_vps: ATM3      Troullier-Martins                       
Total valence charge:   11.00000

xc_check: Exchange-correlation functional:
xc_check: Ceperley-Alder
V l=0 = -2*Zval/r beyond r=  3.7361
V l=1 = -2*Zval/r beyond r=  3.7361
V l=2 = -2*Zval/r beyond r=  3.7361
V l=3 = -2*Zval/r beyond r=  3.7361
All V_l potentials equal beyond r=  2.2946
This should be close to max(r_c) in ps generation
All pots = -2*Zval/r beyond r=  3.7361
Using large-core scheme for Vlocal

atom: Estimated core radius    3.73611

atom: Including non-local core corrections could be a good idea
atom: Maximum radius for 4*pi*r*r*local-pseudopot. charge    4.07775
atom: Maximum radius for r*vlocal+2*Zval:    3.78310
GHOST: No ghost state for L =  0
GHOST: No ghost state for L =  1
GHOST: No ghost state for L =  2
GHOST: No ghost state for L =  3

KBgen: Kleinman-Bylander projectors: 
   l= 0   rc=  2.382235   el= -0.445645   Ekb=  4.511922   kbcos=  0.274440
   l= 1   rc=  2.382235   el= -0.065316   Ekb=  2.560647   kbcos=  0.223707
   l= 2   rc=  2.382235   el= -0.526293   Ekb= -5.024070   kbcos= -0.676934
   l= 3   rc=  2.382235   el=  0.003438   Ekb= -2.070042   kbcos= -0.013117

KBgen: Total number of  Kleinman-Bylander projectors:   16
atom: -------------------------------------------------------------------------

atom: SANKEY-TYPE ORBITALS:

SPLIT: Orbitals with angular momentum L= 0

SPLIT: Basis orbitals for state 6s

SPLIT: PAO cut-off radius determined from an
SPLIT: energy shift=  0.005000 Ry

   izeta = 1
                 lambda =    1.000000
                     rc =    7.246712
                 energy =   -0.441368
                kinetic =    0.367640
    potential(screened) =   -0.809008
       potential(ionic) =   -8.408267

SPLIT: Orbitals with angular momentum L= 2

SPLIT: Basis orbitals for state 5d

SPLIT: PAO cut-off radius determined from an
SPLIT: energy shift=  0.005000 Ry

   izeta = 1
                 lambda =    1.000000
                     rc =    5.106662
                 energy =   -0.521343
                kinetic =    4.852314
    potential(screened) =   -5.373657
       potential(ionic) =  -16.114240

POLgen: Perturbative polarization orbital with L=  1

POLgen: Polarization orbital for state 6s

   izeta = 1
                     rc =    7.246712
                 energy =   -0.107868
                kinetic =    0.647525
    potential(screened) =   -0.755394
       potential(ionic) =   -7.869443
atom: Total number of Sankey-type orbitals:  9

atm_pop: Valence configuration (for local Pseudopot. screening):
 6s( 1.00)                                                            
 6p( 0.00)                                                            
 5d(10.00)                                                            
Vna: chval, zval:   11.00000  11.00000

Vna:  Cut-off radius for the neutral-atom potential:   7.246712

atom: _________________________________________________________________________

prinput: Basis input ----------------------------------------------------------

PAO.BasisType split     

%block ChemicalSpeciesLabel
    1   79 Au                      # Species index, atomic number, species label
%endblock ChemicalSpeciesLabel

%block PAO.Basis                 # Define Basis set
Au                    2                    # Species label, number of l-shells
 n=6   0   1 P   1                   # n, l, Nzeta, Polarization, NzetaPol
   7.247   
   1.000   
 n=5   2   1                         # n, l, Nzeta 
   5.107   
   1.000   
%endblock PAO.Basis

prinput: ----------------------------------------------------------------------

Dumping basis to NetCDF file Au.ion.nc
coor:   Atomic-coordinates input format  =     Cartesian coordinates
coor:                                          (in units of alat)

siesta: WARNING: XV file not found

siesta: Atomic coordinates (Bohr) and species
siesta:      0.00000   0.00000   0.00000  1        1
siesta:      2.76194   1.59461   4.51023  1        2
siesta:      2.76194  -1.59461   9.02046  1        3
siesta:      0.00000   0.00000  13.53069  1        4
siesta:      2.76194   1.59461  18.04092  1        5
siesta:      2.76194   1.59461  36.08183  1        6
siesta:      2.76194  -1.59461  40.59206  1        7
siesta:      0.00000   0.00000  45.10229  1        8
siesta:      2.76194   1.59461  49.61252  1        9
siesta:      2.76194  -1.59461  54.12275  1       10

siesta: System type = bulk      

initatomlists: Number of atoms, orbitals, and projectors:     10    90   160

coxmol: Writing XMOL coordinates into file au_111_capacitor.xyz                                                

siesta: ******************** Simulation parameters ****************************
siesta:
siesta: The following are some of the parameters of the simulation.
siesta: A complete list of the parameters used, including default values,
siesta: can be found in file out.fdf
siesta:
redata: Spin configuration                          = none
redata: Number of spin components                   = 1
redata: Time-Reversal Symmetry                      = T
redata: Spin-spiral                                 = F
redata: Long output                                 =   F
redata: Number of Atomic Species                    =        1
redata: Charge density info will appear in .RHO file
redata: Write Mulliken Pop.                         = Atomic and Orbital charges
redata: Matel table size (NRTAB)                    =     1024
redata: Mesh Cutoff                                 =   350.0000 Ry
redata: Net charge of the system                    =     0.0000 |e|
redata: Min. number of SCF Iter                     =        0
redata: Max. number of SCF Iter                     =      300
redata: SCF convergence failure will abort job
redata: SCF mix quantity                            = Hamiltonian
redata: Mix DM or H after convergence               =   F
redata: Recompute H after scf cycle                 =   F
redata: Mix DM in first SCF step                    =   T
redata: Write Pulay info on disk                    =   F
redata: New DM Mixing Weight                        =     0.0300
redata: New DM Occupancy tolerance                  = 0.000000000001
redata: No kicks to SCF
redata: DM Mixing Weight for Kicks                  =     0.5000
redata: Require Harris convergence for SCF          =   F
redata: Harris energy tolerance for SCF             =     0.000100 eV
redata: Require DM convergence for SCF              =   T
redata: DM tolerance for SCF                        =     0.000100
redata: Require EDM convergence for SCF             =   F
redata: EDM tolerance for SCF                       =     0.001000 eV
redata: Require H convergence for SCF               =   T
redata: Hamiltonian tolerance for SCF               =     0.001000 eV
redata: Require (free) Energy convergence for SCF   =   F
redata: (free) Energy tolerance for SCF             =     0.000100 eV
redata: Using Saved Data (generic)                  =   F
redata: Use continuation files for DM               =   T
redata: Neglect nonoverlap interactions             =   F
redata: Method of Calculation                       = Transiesta
redata: Fix the spin of the system                  =   F
redata: Dynamics option                             = Single-point calculation
mix.SCF: Pulay mixing                            = Pulay
mix.SCF:    Variant                              = stable
mix.SCF:    History steps                        = 5
mix.SCF:    Linear mixing weight                 =     0.030000
mix.SCF:    Mixing weight                        =     0.030000
mix.SCF:    SVD condition                        = 0.1000E-07
redata: Save all siesta data in one NC              =   F
redata: ***********************************************************************

%block SCF.Mixers
  Pulay
%endblock SCF.Mixers

%block SCF.Mixer.Pulay
  # Mixing method
  method pulay
  variant stable

  # Mixing options
  weight 0.0300
  weight.linear 0.0300
  history 5
%endblock SCF.Mixer.Pulay

DM_history_depth set to one: no extrapolation allowed by default for geometry relaxation
Size of DM history Fstack: 1
Total number of electrons:   110.000000
Total ionic charge:   110.000000

* ProcessorY, Blocksize:    2  12


* Orbital distribution balance (max,min):    12     6

k-point displ. along   1 input, could be:     0.00    0.50
k-point displ. along   2 input, could be:     0.00    0.50
 Kpoints in:          960 . Kpoints trimmed:          960

siesta: k-grid: Number of k-points =   960
siesta: k-grid: Cutoff (effective) =    11.692 Ang
siesta: k-grid: Supercell and displacements
siesta: k-grid:    8   0   0      0.000
siesta: k-grid:    0   8   0      0.000
siesta: k-grid:    0   0  30      0.500

diag: Algorithm                                     = Expert
diag: Parallel over k                               =   T
diag: Use parallel 2D distribution                  =   T
diag: Parallel block-size                           = 12
diag: Parallel distribution                         =     2 x     4
diag: Used triangular part                          = Lower
diag: Absolute tolerance                            =  0.100E-15
diag: Orthogonalization factor                      =  0.100E-05
diag: Memory factor                                 =  1.0000

superc: Internal auxiliary supercell:     9 x     9 x     3  =     243
superc: Number of atoms, orbitals, and projectors:   2430  21870  38880

k-point displ. along   1 input, could be:     0.00    0.50
k-point displ. along   2 input, could be:     0.00    0.50
 Kpoints in:           40 . Kpoints trimmed:           37

transiesta: k-grid: Number of Green function k-points =    37
transiesta: k-grid: Supercell and displacements
transiesta: k-grid:    8   0   0      0.000
transiesta: k-grid:    0   8   0      0.000
transiesta: k-grid:    0   0   1      0.000

ts: **************************************************************
ts: Voltage                                         =    1.0000 Volts
ts: Save H and S matrices                           =    T
ts: Electronic temperature                          =   99.999269 K
ts: Transport along unit-cell vector                =    A3
ts: Transport along Cartesian vector                =    Z
ts: Fixing Hartree potential at electrode-plane     =    Right
ts: Fix Hartree potential fraction                  =    1.0000
ts: Hartree potential offset                        =    0.000000 eV
ts: Solution method                                 =    BTD
ts: BTD pivoting method                             =    atom+Left
ts: BTD creation algorithm                          =    speed
ts: BTD spectral function algorithm                 =    propagation
ts: SCF.TS DM tolerance                             = 0.100E-03
ts: SCF.TS Hamiltonian tolerance                    =    0.001000 eV
ts: Initialize DM by                                =    diagon
ts: Initial DM for electrodes                       =    this
ts: Hartree potential as linear ramp
ts: Hartree potential ramp across central region
ts: Thermal non-equilibrium in distributions        =    F
ts: Non-equilibrium contour weight method           =    orb-orb
ts: Non-equilibrium contour weight k-method         =    Correlated k-points
ts: Will not correct charge fluctuations
ts: TS.SCF mixing options same as SCF
ts:           >> Electrodes << 
ts: >> Left
ts:   Electrode cell pivoting: E1, E2, E3           = A1, A2, A3
ts:   GF file                                       = au_111_capacitor.TSGFLeft
ts:   Reuse existing GF-file                        =    T
ts:   Electrode TSHS file                           = ./elec_au_111_abc.TSHS
ts:   # atoms used in electrode                     =    3
ts:   Electrode Bloch unity [E1 x E2 x E3]          = 1 x 1 x 1
ts:   Position in geometry                          = 1 -- 3
ts:   Semi-infinite direction for electrode         = negative wrt. E3
ts:   Chemical shift                                =    0.499999 eV
ts:   Electronic temperature                        =   99.999269 K
ts:   Gamma-only electrode                          =    F
ts:   Bulk H, S in electrode region                 =    T
ts:   Cross-terms are not updated
ts:   Hamiltonian E-C Ef fractional shift           =    0.0000
ts:   Electrode self-energy imaginary Eta           =  0.1000E-03  eV
ts:   Electrode self-energy accuracy                =  0.1000E-13  eV
ts:   Electrode inter-layer distance (semi-inf)     =    2.3867  Ang
ts: >> Right
ts:   Electrode cell pivoting: E1, E2, E3           = A1, A2, A3
ts:   GF file                                       = au_111_capacitor.TSGFRight
ts:   Reuse existing GF-file                        =    T
ts:   Electrode TSHS file                           = ./elec_au_111_abc.TSHS
ts:   # atoms used in electrode                     =    3
ts:   Electrode Bloch unity [E1 x E2 x E3]          = 1 x 1 x 1
ts:   Position in geometry                          = 8 -- 10
ts:   Semi-infinite direction for electrode         = positive wrt. E3
ts:   Chemical shift                                =   -0.499999 eV
ts:   Electronic temperature                        =   99.999269 K
ts:   Gamma-only electrode                          =    F
ts:   Bulk H, S in electrode region                 =    T
ts:   Cross-terms are not updated
ts:   Hamiltonian E-C Ef fractional shift           =    0.0000
ts:   Electrode self-energy imaginary Eta           =  0.1000E-03  eV
ts:   Electrode self-energy accuracy                =  0.1000E-13  eV
ts:   Electrode inter-layer distance (semi-inf)     =    2.3867  Ang
ts:  ----------------- Contour ----------------- 
ts:            >> Residual contour << 
ts: Pole chemical potential                         =    0.5000 eV
ts:    Chemical potential temperature               =   99.9993 K
ts:    Number of poles                              =   47
ts:    Top energy point                             =    2.5448 eV
ts: Pole chemical potential                         =   -0.5000 eV
ts:    Chemical potential temperature               =   99.9993 K
ts:    Number of poles                              =   47
ts:    Top energy point                             =    2.5448 eV
ts:          >> Equilibrium contour << 
ts: Contour name                                    =    TS.Contour.c-Left
ts:   circle contour E_min                          =  -39.5000 eV
ts:   circle contour E_max                          =    0.4138 eV
ts:   circle contour points                         =   30
ts:   circle contour method                         =    Gauss-Legendre
ts: Contour name                                    =    TS.Contour.t-Left
ts:   tail contour E_min                            =    0.4138 eV
ts:   tail contour E_max                            =     Infinity
ts:   tail contour points                           =   10
ts:   tail contour method                           =    Gauss-Fermi (0kT)
ts: Contour name                                    =    TS.Contour.c-Right
ts:   circle contour E_min                          =  -40.5000 eV
ts:   circle contour E_max                          =   -0.5862 eV
ts:   circle contour points                         =   30
ts:   circle contour method                         =    Gauss-Legendre
ts: Contour name                                    =    TS.Contour.t-Right
ts:   tail contour E_min                            =   -0.5862 eV
ts:   tail contour E_max                            =     Infinity
ts:   tail contour points                           =   10
ts:   tail contour method                           =    Gauss-Fermi (0kT)
ts:         >> non-Equilibrium contour << 
ts: Device Green function imaginary Eta             =  0.000     eV
ts: Fermi-function cut-off                          =  5.000     kT
ts: Contour name                                    =    TS.Contour.nEq.neq
ts:   line contour E_min                            =   -0.5431 eV
ts:   line contour E_max                            =    0.5431 eV
ts:   line contour points                           =  109
ts:   line contour method                           =    Mid-rule
ts: **************************************************************

************************ Begin: TS CHECKS AND WARNINGS ************************
Without loosing performance you can increase the equilibrium integration precision.
You can add 2 more energy points in the equilibrium contours, for FREE!
This is 1 more energy points per chemical potential.
Without loosing performance you can increase the non-equilibrium integration precision.
You can add 3 more energy points in the non-equilibrium contours, for FREE!
Electrode Left will not update cross-terms or local region.
Electrode Right will not update cross-terms or local region.
************************ End: TS CHECKS AND WARNINGS **************************

                  ****************************************
                   TRANSIESTA REPORTED IMPORTANT WARNINGS
                  ****************************************

>>> TranSiesta block information for FDF-file START <<<

%block TS.ChemPots
  Left
  Right
%endblock TS.ChemPots

%block TS.ChemPot.Left
  mu  V/2
  contour.eq
   begin
    c-Left
    t-Left
   end
%endblock TS.ChemPot.Left
%block TS.ChemPot.Right
  mu  - V/2
  contour.eq
   begin
    c-Right
    t-Right
   end
%endblock TS.ChemPot.Right
%block TS.Contour.c-Left
  part circle
     from -40.00000 eV + V/2 to -10. kT + V/2
      points 30
        method g-legendre
%endblock TS.Contour.c-Left
%block TS.Contour.t-Left
  part tail
     from prev to + inf
      points 10
        method g-fermi
%endblock TS.Contour.t-Left
%block TS.Contour.c-Right
  part circle
     from -40.00000 eV - V/2 to -10. kT - V/2
      points 30
        method g-legendre
%endblock TS.Contour.c-Right
%block TS.Contour.t-Right
  part tail
     from prev to + inf
      points 10
        method g-fermi
%endblock TS.Contour.t-Right
%block TS.Contours.nEq
    neq
%endblock TS.Contours.nEq

%block TS.Contour.nEq.neq
  part line
     from - |V|/2 - 5 kT to |V|/2 + 5 kT
      delta 0.01 eV
        method mid-rule
%endblock TS.Contour.nEq.neq

>>> TranSiesta block information for FDF-file END <<<


transiesta: Regions of atoms:
   ## (3): Elec.Left
     [ 1 -- 3 ]
   ## (3): Elec.Right
     [ 8 -- 10 ]
   -- (4): Device
     [ 4 -- 7 ]

  <sparsity:./elec_au_111_abc.TSHS
    nrows_g=27 nrows=27 sparsity=44.2757 nnzs=32277, refcount: 3>
  <sparsity:(TM [--,--, 0] of: ./elec_au_111_abc.TSHS)
    nrows_g=27 nrows=27 sparsity=25.1152 nnzs=18309, refcount: 3>
  <sparsity:(TM [--,--,-1] of: ./elec_au_111_abc.TSHS)
    nrows_g=27 nrows=27 sparsity=9.4486 nnzs=6888, refcount: 3>
 Left principal cell is extending out with 96 elements:
    Atom 1 connects with atom 3
    Orbital 8 connects with orbital 26
    Hamiltonian value: |H(8,7046)|@R=-2 =  0.899E-20 eV
    Overlap          :  S(8,7046)|@R=-2 =   0.00    

Calculating all surface Green functions for: Left
 Fermi level shift in electrode (chemical potential) :        0.50000  eV
 Atoms available    / used atoms   :      3 /      3
 Orbitals available / used orbitals:     27 /     27
 Total self-energy calculations: 10471
 Saving surface Green functions in: au_111_capacitor.TSGFLeft
 Estimated file size:    117.299 MB
 Lopez Sancho, Lopez Sancho & Rubio recursive surface self-energy calculation...
 Lopez Sancho, Lopez Sancho & Rubio: Mean/std iterations:     8.1694 /     6.0215
 Lopez Sancho, Lopez Sancho & Rubio: Min/Max iterations :          3 /         19
Done creating 'au_111_capacitor.TSGFLeft'.

  <sparsity:./elec_au_111_abc.TSHS
    nrows_g=27 nrows=27 sparsity=44.2757 nnzs=32277, refcount: 3>
  <sparsity:(TM [--,--, 0] of: ./elec_au_111_abc.TSHS)
    nrows_g=27 nrows=27 sparsity=25.1152 nnzs=18309, refcount: 3>
  <sparsity:(TM [--,--, 1] of: ./elec_au_111_abc.TSHS)
    nrows_g=27 nrows=27 sparsity=9.4486 nnzs=6888, refcount: 3>
 Right principal cell is extending out with 96 elements:
    Atom 3 connects with atom 1
    Orbital 26 connects with orbital 8
    Hamiltonian value: |H(26,6353)|@R=2 =  0.899E-20 eV
    Overlap          :  S(26,6353)|@R=2 =   0.00    

Calculating all surface Green functions for: Right
 Fermi level shift in electrode (chemical potential) :       -0.50000  eV
 Atoms available    / used atoms   :      3 /      3
 Orbitals available / used orbitals:     27 /     27
 Total self-energy calculations: 10471
 Saving surface Green functions in: au_111_capacitor.TSGFRight
 Estimated file size:    117.299 MB
 Lopez Sancho, Lopez Sancho & Rubio recursive surface self-energy calculation...
 Lopez Sancho, Lopez Sancho & Rubio: Mean/std iterations:     9.5278 /     6.5436
 Lopez Sancho, Lopez Sancho & Rubio: Min/Max iterations :          3 /         19
Done creating 'au_111_capacitor.TSGFRight'.


                     ====================================
                        Single-point calculation
                     ====================================

superc: Internal auxiliary supercell:     9 x     9 x     3  =     243
superc: Number of atoms, orbitals, and projectors:   2430  21870  38880

outcell: Unit cell vectors (Ang):
        2.923110    0.000000    0.000000
        1.461555    2.531488    0.000000
        0.000000    0.000000   31.027221

outcell: Cell vector modules (Ang)   :    2.923110    2.923110   31.027221
outcell: Cell angles (23,13,12) (deg):     90.0000     90.0000     60.0000
outcell: Cell volume (Ang**3)        :    229.5957
<dSpData1D:S at geom step 0
  <sparsity:sparsity for geom step 0
    nrows_g=90 nrows=12 sparsity=1.7328 nnzs=14036, refcount: 7>
  <dData1D:(new from dSpData1D) n=14036, refcount: 1>
refcount: 1>
new_DM -- step:     1
Initializing Density Matrix...

Attempting to read DM, EDM from TSDE file... Failed...
Attempting to read DM from file... Failed...
DM filled with atomic data:
<dSpData2D:DM initialized from atoms
  <sparsity:sparsity for geom step 0
    nrows_g=90 nrows=12 sparsity=1.7328 nnzs=14036, refcount: 8>
  <dData2D:DM n=14036 m=1, refcount: 1>
refcount: 1>

transiesta: Initialization run using siesta

No. of atoms with KB's overlaping orbs in proc 0. Max # of overlaps:      60     237
New grid distribution:   1
           1       1:   15    1:    8    1:   45
           2       1:   15    1:    8   46:   90
           3       1:   15    1:    8   91:  135
           4       1:   15    1:    8  136:  180
           5       1:   15    9:   15    1:   45
           6       1:   15    9:   15   46:   90
           7       1:   15    9:   15   91:  135
           8       1:   15    9:   15  136:  180

InitMesh: MESH =    30 x    30 x   360 =      324000
InitMesh: (bp) =    15 x    15 x   180 =       40500
InitMesh: Mesh cutoff (required, used) =   350.000   372.067 Ry
ExtMesh (bp) on 0 =   107 x   100 x   137 =     1465900
New grid distribution:   2
           1       1:   15    1:   15  149:  164
           2       1:   15    1:   15   49:  115
           3       1:   15    1:   15    1:   16
           4       1:   15    1:   15  133:  148
           5       1:   15    1:   15   17:   32
           6       1:   15    1:   15   33:   48
           7       1:   15    1:   15  116:  132
           8       1:   15    1:   15  165:  180
New grid distribution:   3
           1       1:   15    1:   15    1:   21
           2       1:   15    1:   15   64:   96
           3       1:   15    1:   15   97:  117
           4       1:   15    1:   15  139:  159
           5       1:   15    1:   15   22:   42
           6       1:   15    1:   15   43:   63
           7       1:   15    1:   15  118:  138
           8       1:   15    1:   15  160:  180
Setting up quadratic distribution...
ExtMesh (bp) on 0 =   107 x   107 x   108 =     1236492
PhiOnMesh: Number of (b)points on node 0 =                 3600
PhiOnMesh: nlist on node 0 =               294085

ts: Using electrode: Right for Hartree correction
ts: Grid fraction plane  0.96154
ts: Grid point plane (Ang):       0.00000       0.00000      29.83387

ts-voltage: Ramp  0.500 eV to -0.500 eV placed between cell coordinates (Ang):
  {    0.000     0.000     5.171 } to {     0.000     0.000    23.357 }
ts-Vha: -0.11474E-05 eV

stepf: Fermi-Dirac step function
ts-Vha: -0.12177E+02 eV

siesta: Program's energy decomposition (eV):
siesta: Ebs     =        -5.629324
siesta: Eions   =     11712.249174
siesta: Ena     =       583.627907
siesta: Ekin    =      6217.756800
siesta: Enl     =     -2860.936589
siesta: Eso     =         0.000000
siesta: Eldau   =         0.000000
siesta: DEna    =       117.883869
siesta: DUscf   =        11.594323
siesta: DUext   =         0.000000
siesta: Enegf   =         0.000000
siesta: Exc     =     -1398.155629
siesta: eta*DQ  =         0.000000
siesta: Emadel  =         0.000000
siesta: Emeta   =         0.000000
siesta: Emolmec =         0.000000
siesta: Ekinion =         0.000000
siesta: Eharris =     -9025.331671
siesta: Etot    =     -9040.478493
siesta: FreeEng =     -9040.480161

        iscf     Eharris(eV)        E_KS(eV)     FreeEng(eV)     dDmax    Ef(eV) dHmax(eV)
   scf:    1    -9025.331671    -9040.478493    -9040.480161  0.240188 -2.583999 19.974782
timer: Routine,Calls,Time,% = IterSCF        1       5.318  39.21
ts-Vha:  0.14971E+02 eV
   scf:    2    -9031.809112    -9040.469365    -9040.471196  0.050628 -2.391131 25.814919
ts-Vha:  0.39675E+01 eV
   scf:    3    -9044.304994    -9043.050144    -9043.052038  0.026031 -2.565114  9.663903
ts-Vha: -0.28362E+01 eV
   scf:    4    -9043.798480    -9043.734207    -9043.736066  0.020524 -2.734151  3.740206
ts-Vha:  0.45201E+01 eV
   scf:    5    -9043.717931    -9044.010446    -9044.012621  0.021225 -2.776468  9.514897
ts-Vha: -0.65212E+02 eV
   scf:    6    -8885.033341    -8993.647671    -8993.649514  0.145854 -4.684776106.958735
ts-Vha: -0.40035E+02 eV
   scf:    7    -9047.883601    -9024.425400    -9024.427259  0.069717 -3.352264 64.646838
ts-Vha: -0.39881E+02 eV
   scf:    8    -9028.473702    -9026.974914    -9026.976893  0.063720 -4.254099 62.541042
ts-Vha: -0.41994E+02 eV
   scf:    9    -9022.655012    -9024.845476    -9024.847346  0.007248 -4.265926 66.078985
ts-Vha: -0.50986E+02 eV
   scf:   10    -9004.286869    -9015.034541    -9015.036393  0.033856 -4.209855 79.980213
ts-Vha:  0.26772E+02 eV
   scf:   11    -8992.063399    -9037.550119    -9037.551811  0.221520 -3.498550 40.501704
ts-Vha:  0.14842E+02 eV
   scf:   12    -9047.124659    -9043.158585    -9043.162291  0.037338 -3.769262 22.413336
ts-Vha:  0.23845E+01 eV
   scf:   13    -9046.015393    -9045.476721    -9045.479893  0.035022 -3.917732  3.438719
ts-Vha: -0.27414E+01 eV
   scf:   14    -9044.996026    -9045.390119    -9045.393082  0.011854 -4.005596  4.978201
ts-Vha: -0.20724E+01 eV
   scf:   15    -9045.466943    -9045.431180    -9045.434004  0.003423 -4.035195  4.025079
ts-Vha: -0.28149E+00 eV
   scf:   16    -9045.553220    -9045.512168    -9045.515117  0.007343 -4.037628  1.361137
ts-Vha:  0.67414E+00 eV
   scf:   17    -9045.517922    -9045.530447    -9045.534246  0.016188 -3.875026  0.922794
ts-Vha:  0.38750E+00 eV
   scf:   18    -9045.544443    -9045.538212    -9045.542091  0.001824 -3.897442  0.445417
ts-Vha:  0.33173E+00 eV
   scf:   19    -9045.545505    -9045.541925    -9045.545822  0.000877 -3.913420  0.362773
ts-Vha:  0.25288E+00 eV
   scf:   20    -9045.559738    -9045.552797    -9045.556708  0.005241 -4.030936  0.123771
ts-Vha:  0.23624E+00 eV
   scf:   21    -9045.553424    -9045.553134    -9045.557049  0.000549 -4.036440  0.110931
ts-Vha:  0.24719E+00 eV
   scf:   22    -9045.553775    -9045.553468    -9045.557384  0.000601 -4.030661  0.069520
ts-Vha:  0.24022E+00 eV
   scf:   23    -9045.554735    -9045.554135    -9045.558055  0.001620 -4.023565  0.053818
ts-Vha:  0.23546E+00 eV
   scf:   24    -9045.555529    -9045.554989    -9045.558876  0.003711 -4.020581  0.046016
ts-Vha:  0.22517E+00 eV
   scf:   25    -9045.554727    -9045.554874    -9045.558770  0.001004 -4.027449  0.038145
ts-Vha:  0.22987E+00 eV
   scf:   26    -9045.555104    -9045.555014    -9045.558894  0.001273 -4.020549  0.037878
ts-Vha:  0.23049E+00 eV
   scf:   27    -9045.554907    -9045.554964    -9045.558851  0.000290 -4.018343  0.045238
ts-Vha:  0.23594E+00 eV
   scf:   28    -9045.555092    -9045.555031    -9045.558910  0.000386 -4.021580  0.045741
ts-Vha:  0.23454E+00 eV
   scf:   29    -9045.554657    -9045.554863    -9045.558762  0.001404 -4.024771  0.041126
ts-Vha:  0.23104E+00 eV
   scf:   30    -9045.554867    -9045.554876    -9045.558776  0.000434 -4.019178  0.043834
ts-Vha:  0.22415E+00 eV
   scf:   31    -9045.554627    -9045.554758    -9045.558665  0.000763 -4.020437  0.028416
ts-Vha:  0.22478E+00 eV
   scf:   32    -9045.554830    -9045.554795    -9045.558700  0.000216 -4.019725  0.030059
ts-Vha:  0.22944E+00 eV
   scf:   33    -9045.554968    -9045.554889    -9045.558788  0.000474 -4.024226  0.038808
ts-Vha:  0.22949E+00 eV
   scf:   34    -9045.554759    -9045.554828    -9045.558728  0.000423 -4.028758  0.036885
ts-Vha:  0.22395E+00 eV
   scf:   35    -9045.555035    -9045.554941    -9045.558825  0.000871 -4.034676  0.026490
ts-Vha:  0.22185E+00 eV
   scf:   36    -9045.555101    -9045.555026    -9045.558896  0.000721 -4.034783  0.018683
ts-Vha:  0.21940E+00 eV
   scf:   37    -9045.555137    -9045.555088    -9045.558945  0.000631 -4.033740  0.009882
ts-Vha:  0.22243E+00 eV
   scf:   38    -9045.555133    -9045.555112    -9045.558966  0.000249 -4.030533  0.012310
ts-Vha:  0.22214E+00 eV
   scf:   39    -9045.555106    -9045.555109    -9045.558964  0.000059 -4.030543  0.012314
ts-Vha:  0.22225E+00 eV
   scf:   40    -9045.555108    -9045.555109    -9045.558964  0.000019 -4.030737  0.012390
ts-Vha:  0.21945E+00 eV
   scf:   41    -9045.555114    -9045.555112    -9045.558961  0.000153 -4.032568  0.006367
ts-Vha:  0.21926E+00 eV
   scf:   42    -9045.555123    -9045.555117    -9045.558963  0.000135 -4.033159  0.004826
ts-Vha:  0.21934E+00 eV
   scf:   43    -9045.555141    -9045.555130    -9045.558966  0.000325 -4.034415  0.004782
ts-Vha:  0.22172E+00 eV
   scf:   44    -9045.555118    -9045.555126    -9045.558971  0.000297 -4.033492  0.008625
ts-Vha:  0.22210E+00 eV
   scf:   45    -9045.555139    -9045.555133    -9045.558975  0.000141 -4.034189  0.004647
ts-Vha:  0.22041E+00 eV
   scf:   46    -9045.555140    -9045.555136    -9045.558975  0.000115 -4.035186  0.004315
ts-Vha:  0.22111E+00 eV
   scf:   47    -9045.555135    -9045.555135    -9045.558975  0.000041 -4.034733  0.002803
ts-Vha:  0.21994E+00 eV
   scf:   48    -9045.555140    -9045.555138    -9045.558977  0.000039 -4.034540  0.004129
ts-Vha:  0.22091E+00 eV
   scf:   49    -9045.555134    -9045.555136    -9045.558978  0.000079 -4.033293  0.003659
ts-Vha:  0.22009E+00 eV
   scf:   50    -9045.555148    -9045.555142    -9045.558979  0.000178 -4.033989  0.002348
ts-Vha:  0.22065E+00 eV
   scf:   51    -9045.555144    -9045.555143    -9045.558980  0.000040 -4.033569  0.002062
ts-Vha:  0.21980E+00 eV
   scf:   52    -9045.555148    -9045.555146    -9045.558980  0.000086 -4.034072  0.000583

SCF Convergence by DM+H criterion
max |DM_out - DM_in|         :     0.0000860934
max |H_out - H_in|      (eV) :     0.0005830560
SCF cycle converged after 52 iterations

                     ***************************
                     *  WELCOME TO TRANSIESTA  *
                     ***************************

ts-Vha:  0.21980E+00 eV

transiesta: created H and S sparsity pattern:
  <sparsity:(M of: G ((UC of: T T T sparsity for geom step 0)))
    nrows_g=90 nrows=90 sparsity=.2632 nnzs=2132, refcount: 1>

transiesta: created local update sparsity pattern:
  <sparsity:(M of: T T T sparsity for geom step 0)
    nrows_g=90 nrows=12 sparsity=.0000 nnzs=0, refcount: 1>

transiesta: created update sparsity pattern:
  <sparsity:G ((UC of: (M of: T T T sparsity for geom step 0)))
    nrows_g=90 nrows=90 sparsity=.0800 nnzs=648, refcount: 1>

transiesta: Determining an optimal tri-matrix using: atom+Left
transiesta: Established a near-optimal partition for the tri-diagonal matrix.
BTD partitions (4): 
  [ 22, 23, 22, 23 ]
transiesta: Matrix elements in % of full matrix:  62.49383 %

transiesta: mem of electrodes (static):                     0.07MB
transiesta: mem of global update arrays (static):           0.10MB
transiesta: mem of master node sparse arrays:               0.00MB
transiesta: mem of tri-diagonal matrices:                   0.15MB
transiesta: Total memory usage:                             0.59MB

transiesta: Charge distribution, target =    110.00000
Total charge                  [Q]  :   110.00000
Device                        [D]  :    43.69737
Left                          [E1] :    32.69900
Left                 / device [C1] :     0.30824
Right                         [E2] :    32.69899
Right                / device [C2] :     0.30825
Other                         [O]  :     0.28815

ts-err-D: ij(   28,    28), M = 0.74943   , ew = 0.34745E-2, em = 0.69490E-2. avg_em = 0.32668E-05
ts-err-E: ij(   28,    28), M = -3.2337   , ew = 0.69530E-3, em = 0.13906E-2. avg_em = 0.17716E-05
ts-w-q:               qP1       qP2
ts-w-q:            21.862    21.833
ts-q:         D        E1        C1        E2        C2        dQ
ts-q:    43.694    32.699     0.308    32.699     0.308 -3.113E-3
ts-Vha: -0.20040E-01 eV

siesta: Program's energy decomposition (eV):
siesta: Ebs     =      -872.487643
siesta: Eions   =     11712.249174
siesta: Ena     =       583.627907
siesta: Ekin    =      6365.270398
siesta: Enl     =     -2950.477228
siesta: Eso     =         0.000000
siesta: Eldau   =         0.000000
siesta: DEna    =        77.812687
siesta: DUscf   =         5.651730
siesta: DUext   =         0.000000
siesta: Enegf   =         0.014415
siesta: Exc     =     -1413.247431
siesta: eta*DQ  =         0.000000
siesta: Emadel  =         0.000000
siesta: Emeta   =         0.000000
siesta: Emolmec =         0.000000
siesta: Ekinion =         0.000000
siesta: Eharris =     -9039.757932
siesta: Etot    =     -9043.611112
siesta: FreeEng =     -9043.611112

        iscf     Eharris(eV)        E_KS(eV)     FreeEng(eV)     dDmax    Ef(eV) dHmax(eV)
ts-scf:    1    -9039.757932    -9043.611112    -9043.611112  0.051382 -4.034072 11.762722
timer: Routine,Calls,Time,% = TS             1       1.611   0.62
ts-err-D: ij(   53,    53), M = 0.31439E-1, ew = -.68760E-3, em = 0.13752E-2. avg_em = 0.30208E-06
ts-err-E: ij(   53,  6443), M = -.30130E-3, ew = -.34547E-3, em = -.69095E-3. avg_em = -.17718E-06
ts-w-q:               qP1       qP2
ts-w-q:            21.827    21.823
ts-q:         D        E1        C1        E2        C2        dQ
ts-q:    43.649    32.699     0.308    32.699     0.308 -4.791E-2
ts-Vha:  0.11288E+01 eV
ts-scf:    2    -9034.848930    -9043.059814    -9043.059814  0.098177 -4.034072 15.414820
ts-err-D: ij(   44,    44), M = 0.33252E-1, ew = 0.17293E-2, em = 0.34585E-2. avg_em = 0.91924E-05
ts-err-E: ij(   44,    44), M = -.94828E-1, ew = 0.81446E-3, em = 0.16289E-2. avg_em = 0.37098E-05
ts-w-q:               qP1       qP2
ts-w-q:            21.861    21.841
ts-q:         D        E1        C1        E2        C2        dQ
ts-q:    43.702    32.699     0.308    32.699     0.308  5.053E-3
ts-Vha:  0.14379E+00 eV
ts-scf:    3    -9045.524527    -9045.450219    -9045.450219  0.058478 -4.034072  0.645371
ts-err-D: ij(   53,    53), M = 0.30007E-1, ew = 0.17399E-2, em = 0.34798E-2. avg_em = 0.86143E-05
ts-err-E: ij(   44,    44), M = -.94510E-1, ew = 0.77036E-3, em = 0.15407E-2. avg_em = 0.35233E-05
ts-w-q:               qP1       qP2
ts-w-q:            21.856    21.836
ts-q:         D        E1        C1        E2        C2        dQ
ts-q:    43.691    32.699     0.308    32.699     0.308 -5.937E-3
ts-Vha:  0.31698E+00 eV
ts-scf:    4    -9045.371612    -9045.413149    -9045.413149  0.002844 -4.034072  0.559402
ts-err-D: ij(   53,    53), M = 0.30869E-1, ew = 0.17424E-2, em = 0.34847E-2. avg_em = 0.59510E-05
ts-err-E: ij(   53,  5093), M = 0.35004E-3, ew = -.79299E-3, em = -.15860E-2. avg_em = 0.24361E-05
ts-w-q:               qP1       qP2
ts-w-q:            21.857    21.840
ts-q:         D        E1        C1        E2        C2        dQ
ts-q:    43.697    32.699     0.308    32.699     0.308 -7.610E-4
ts-Vha:  0.20394E+00 eV
ts-scf:    5    -9045.467827    -9045.446269    -9045.446269  0.007291 -4.034072  0.320937
ts-err-D: ij(   53,    53), M = 0.30873E-1, ew = 0.17477E-2, em = 0.34953E-2. avg_em = 0.60103E-05
ts-err-E: ij(   53,  5093), M = 0.35330E-3, ew = -.79302E-3, em = -.15860E-2. avg_em = 0.24673E-05
ts-w-q:               qP1       qP2
ts-w-q:            21.855    21.838
ts-q:         D        E1        C1        E2        C2        dQ
ts-q:    43.694    32.699     0.308    32.699     0.308 -3.660E-3
ts-Vha:  0.24677E+00 eV
ts-scf:    6    -9045.418652    -9045.434257    -9045.434257  0.001442 -4.034072  0.042027
ts-err-D: ij(   53,    53), M = 0.30892E-1, ew = -.17363E-2, em = 0.34727E-2. avg_em = 0.59316E-05
ts-err-E: ij(   53,  3113), M = 0.35416E-3, ew = -.79180E-3, em = -.15836E-2. avg_em = 0.24355E-05
ts-w-q:               qP1       qP2
ts-w-q:            21.855    21.839
ts-q:         D        E1        C1        E2        C2        dQ
ts-q:    43.694    32.699     0.308    32.699     0.308 -3.271E-3
ts-Vha:  0.24367E+00 eV
ts-scf:    7    -9045.436677    -9045.435098    -9045.435098  0.000594 -4.034072  0.088240
ts-err-D: ij(   53,    53), M = 0.30986E-1, ew = 0.17374E-2, em = 0.34748E-2. avg_em = 0.59348E-05
ts-err-E: ij(   53,  5093), M = 0.34435E-3, ew = -.80032E-3, em = -.16006E-2. avg_em = 0.24466E-05
ts-w-q:               qP1       qP2
ts-w-q:            21.856    21.839
ts-q:         D        E1        C1        E2        C2        dQ
ts-q:    43.695    32.699     0.308    32.699     0.308 -2.398E-3
ts-Vha:  0.23104E+00 eV
ts-scf:    8    -9045.436849    -9045.436228    -9045.436228  0.001162 -4.034072  0.021526
ts-err-D: ij(   53,    53), M = 0.30982E-1, ew = -.17369E-2, em = 0.34739E-2. avg_em = 0.58894E-05
ts-err-E: ij(   53,  5093), M = 0.34488E-3, ew = -.79994E-3, em = -.15999E-2. avg_em = 0.24246E-05
ts-w-q:               qP1       qP2
ts-w-q:            21.856    21.839
ts-q:         D        E1        C1        E2        C2        dQ
ts-q:    43.695    32.699     0.308    32.699     0.308 -2.803E-3
ts-Vha:  0.23976E+00 eV
ts-scf:    9    -9045.432707    -9045.434522    -9045.434522  0.000059 -4.034072  0.019349
ts-err-D: ij(   53,    53), M = 0.30982E-1, ew = -.17371E-2, em = 0.34741E-2. avg_em = 0.58734E-05
ts-err-E: ij(   53,  5093), M = 0.34381E-3, ew = -.80032E-3, em = -.16006E-2. avg_em = 0.24160E-05
ts-w-q:               qP1       qP2
ts-w-q:            21.856    21.839
ts-q:         D        E1        C1        E2        C2        dQ
ts-q:    43.695    32.699     0.308    32.699     0.308 -2.479E-3
ts-Vha:  0.23914E+00 eV
ts-scf:   10    -9045.436658    -9045.435598    -9045.435598  0.000196 -4.034072  0.011668
ts-err-D: ij(   53,    53), M = 0.30980E-1, ew = 0.17368E-2, em = 0.34735E-2. avg_em = 0.59092E-05
ts-err-E: ij(   53,  5093), M = 0.34367E-3, ew = -.80018E-3, em = -.16004E-2. avg_em = 0.24323E-05
ts-w-q:               qP1       qP2
ts-w-q:            21.856    21.839
ts-q:         D        E1        C1        E2        C2        dQ
ts-q:    43.695    32.699     0.308    32.699     0.308 -2.348E-3
ts-Vha:  0.23768E+00 eV
ts-scf:   11    -9045.436515    -9045.436030    -9045.436030  0.000057 -4.034072  0.007380
ts-err-D: ij(   53,    53), M = 0.30984E-1, ew = -.17370E-2, em = 0.34741E-2. avg_em = 0.60007E-05
ts-err-E: ij(   53,  5093), M = 0.34188E-3, ew = -.80103E-3, em = -.16021E-2. avg_em = 0.24747E-05
ts-w-q:               qP1       qP2
ts-w-q:            21.856    21.839
ts-q:         D        E1        C1        E2        C2        dQ
ts-q:    43.695    32.699     0.308    32.699     0.308 -2.241E-3
ts-Vha:  0.23680E+00 eV
ts-scf:   12    -9045.435850    -9045.435918    -9045.435918  0.000250 -4.034072  0.004402
ts-err-D: ij(   53,    53), M = 0.30985E-1, ew = -.17370E-2, em = 0.34739E-2. avg_em = 0.60259E-05
ts-err-E: ij(   53,  5093), M = 0.34151E-3, ew = -.80115E-3, em = -.16023E-2. avg_em = 0.24863E-05
ts-w-q:               qP1       qP2
ts-w-q:            21.856    21.839
ts-q:         D        E1        C1        E2        C2        dQ
ts-q:    43.695    32.699     0.308    32.699     0.308 -2.261E-3
ts-Vha:  0.23708E+00 eV
ts-scf:   13    -9045.435474    -9045.435698    -9045.435698  0.000068 -4.034072  0.002898
ts-err-D: ij(   53,    53), M = 0.30985E-1, ew = 0.17365E-2, em = 0.34731E-2. avg_em = 0.60895E-05
ts-err-E: ij(   53,  5093), M = 0.34095E-3, ew = -.80113E-3, em = -.16023E-2. avg_em = 0.25156E-05
ts-w-q:               qP1       qP2
ts-w-q:            21.856    21.839
ts-q:         D        E1        C1        E2        C2        dQ
ts-q:    43.695    32.699     0.308    32.699     0.308 -2.263E-3
ts-Vha:  0.23681E+00 eV
ts-scf:   14    -9045.435173    -9045.435444    -9045.435444  0.000138 -4.034072  0.003015
ts-err-D: ij(   53,    53), M = 0.30985E-1, ew = 0.17365E-2, em = 0.34729E-2. avg_em = 0.61042E-05
ts-err-E: ij(   53,  5093), M = 0.34085E-3, ew = -.80113E-3, em = -.16023E-2. avg_em = 0.25224E-05
ts-w-q:               qP1       qP2
ts-w-q:            21.856    21.839
ts-q:         D        E1        C1        E2        C2        dQ
ts-q:    43.695    32.699     0.308    32.699     0.308 -2.314E-3
ts-Vha:  0.23717E+00 eV
ts-scf:   15    -9045.434942    -9045.435197    -9045.435197  0.000029 -4.034072  0.001484
ts-err-D: ij(   53,    53), M = 0.30986E-1, ew = 0.17365E-2, em = 0.34729E-2. avg_em = 0.61100E-05
ts-err-E: ij(   53,  5093), M = 0.34075E-3, ew = -.80118E-3, em = -.16024E-2. avg_em = 0.25251E-05
ts-w-q:               qP1       qP2
ts-w-q:            21.856    21.839
ts-q:         D        E1        C1        E2        C2        dQ
ts-q:    43.695    32.699     0.308    32.699     0.308 -2.331E-3
ts-Vha:  0.23725E+00 eV
ts-scf:   16    -9045.435020    -9045.435110    -9045.435110  0.000014 -4.034072  0.001036
ts-err-D: ij(   53,    53), M = 0.30986E-1, ew = 0.17365E-2, em = 0.34730E-2. avg_em = 0.61081E-05
ts-err-E: ij(   53,  5093), M = 0.34075E-3, ew = -.80119E-3, em = -.16024E-2. avg_em = 0.25243E-05
ts-w-q:               qP1       qP2
ts-w-q:            21.856    21.839
ts-q:         D        E1        C1        E2        C2        dQ
ts-q:    43.695    32.699     0.308    32.699     0.308 -2.330E-3
ts-Vha:  0.23722E+00 eV
ts-scf:   17    -9045.435140    -9045.435125    -9045.435125  0.000004 -4.034072  0.001159
ts-err-D: ij(   53,    53), M = 0.30987E-1, ew = 0.17365E-2, em = 0.34729E-2. avg_em = 0.61156E-05
ts-err-E: ij(   53,  5093), M = 0.34054E-3, ew = -.80129E-3, em = -.16026E-2. avg_em = 0.25279E-05
ts-w-q:               qP1       qP2
ts-w-q:            21.856    21.839
ts-q:         D        E1        C1        E2        C2        dQ
ts-q:    43.695    32.699     0.308    32.699     0.308 -2.343E-3
ts-Vha:  0.23727E+00 eV
ts-scf:   18    -9045.434975    -9045.435052    -9045.435052  0.000025 -4.034072  0.000895

SCF Convergence by DM+H criterion
max |DM_out - DM_in|         :     0.0000250573
max |H_out - H_in|      (eV) :     0.0008945656
SCF cycle converged after 18 iterations

Using DM_out to compute the final energy and forces
No. of atoms with KB's overlaping orbs in proc 0. Max # of overlaps:      60     237
ts-Vha:  0.23727E+00 eV

siesta: E_KS(eV) =            -9045.4351

siesta: E_KS - E_eggbox =     -9045.4351

siesta: Atomic forces (eV/Ang):
----------------------------------------
   Tot   -0.000000   -0.000000    0.174693
----------------------------------------
   Max    0.254117
   Res    0.063947    sqrt( Sum f_i^2 / 3N )
----------------------------------------
   Max    0.254117    constrained

Stress-tensor-Voigt (kbar):       40.63       40.63       28.92        0.00       -0.00       -0.00
(Free)E + p*V (eV/cell)    -9050.6978
Target enthalpy (eV/cell)    -9045.4351

mulliken: Atomic and Orbital Populations:

Species: Au                  
Atom  Qatom  Qorb
               6s      5dxy    5dyz    5dz2    5dxz    5dx2-y2 6Ppy    6Ppz    
               6Ppx    
   1 11.002   1.005   1.907   1.918   1.892   1.918   1.907   0.152   0.150
              0.152
   2 10.996   0.996   1.906   1.923   1.889   1.923   1.906   0.151   0.153
              0.151
   3 10.999   1.003   1.909   1.918   1.890   1.918   1.909   0.153   0.147
              0.153
   4 10.974   0.987   1.907   1.927   1.887   1.927   1.907   0.147   0.136
              0.147
   5 11.031   1.060   1.890   1.938   1.926   1.938   1.890   0.139   0.112
              0.139
   6 11.022   1.055   1.890   1.938   1.925   1.938   1.890   0.138   0.111
              0.138
   7 10.976   0.985   1.907   1.928   1.887   1.928   1.907   0.148   0.139
              0.148
   8 10.999   1.003   1.909   1.918   1.890   1.918   1.909   0.153   0.147
              0.153
   9 10.996   0.996   1.906   1.923   1.889   1.923   1.906   0.151   0.153
              0.151
  10 11.002   1.005   1.907   1.918   1.892   1.918   1.907   0.152   0.150
              0.152

mulliken: Qtot =      109.998

coxmol: Writing XMOL coordinates into file au_111_capacitor.xyz                                                

siesta: Program's energy decomposition (eV):
siesta: Ebs     =      -898.753282
siesta: Eions   =     11712.249174
siesta: Ena     =       583.627907
siesta: Ekin    =      6365.870131
siesta: Enl     =     -2950.846460
siesta: Eso     =         0.000000
siesta: Eldau   =         0.000000
siesta: DEna    =        77.650575
siesta: DUscf   =         3.823041
siesta: DUext   =         0.000000
siesta: Enegf   =         0.008403
siesta: Exc     =     -1413.311071
siesta: eta*DQ  =         0.000000
siesta: Emadel  =         0.000000
siesta: Emeta   =         0.000000
siesta: Emolmec =         0.000000
siesta: Ekinion =         0.000000
siesta: Eharris =     -9045.434975
siesta: Etot    =     -9045.435052
siesta: FreeEng =     -9045.435052

siesta: Final energy (eV):
siesta:  Band Struct. =    -898.753282
siesta:       Kinetic =    6365.870131
siesta:       Hartree =   21551.236017
siesta:       Eldau   =       0.000000
siesta:       Eso     =       0.000000
siesta:    Ext. field =       0.000000
siesta:       Enegf   =       0.008403
siesta:   Exch.-corr. =   -1413.311071
siesta:  Ion-electron =  -48512.166867
siesta:       Ion-ion =   12962.936739
siesta:       Ekinion =       0.000000
siesta:         Total =   -9045.435052
siesta:         Fermi =      -4.034072

siesta: Atomic forces (eV/Ang):
siesta:      1    0.000000   -0.000000    0.147719
siesta:      2   -0.000000    0.000000    0.005770
siesta:      3    0.000000    0.000000    0.014293
siesta:      4    0.000000    0.000000   -0.178847
siesta:      5   -0.000000   -0.000001   -0.036660
siesta:      6   -0.000000   -0.000000    0.025528
siesta:      7    0.000000    0.000000    0.254117
siesta:      8   -0.000000   -0.000000   -0.021593
siesta:      9    0.000000   -0.000000    0.004072
siesta:     10    0.000000    0.000000   -0.039706
siesta: ----------------------------------------
siesta:    Tot   -0.000000   -0.000000    0.174693

siesta: Stress tensor (static) (eV/Ang**3):
siesta:     0.025358   -0.000000    0.000000
siesta:     0.000000    0.025358    0.000000
siesta:    -0.000000   -0.000000    0.018049

siesta: Cell volume =        229.595743 Ang**3

siesta: Pressure (static):
siesta:                Solid            Molecule  Units
siesta:          -0.00024965         -0.00025518  Ry/Bohr**3
siesta:          -0.02292163         -0.02342991  eV/Ang**3
siesta:         -36.72490368        -37.53926007  kBar
(Free)E+ p_basis*V_orbitals  =       -9038.505816
(Free)Eharris+ p_basis*V_orbitals  =       -9038.505739
ts-Vha:  0.23727E+00 eV

dhscf: Vacuum level (max, mean) =    1.150199    0.978670 eV
>> End of run:   5-NOV-2018  11:29:11
Job completed
