Siesta Version:                                        siesta-3.1
Architecture  : atto-intel12-openmpi
Compiler flags: /share/apps/openmpi-1.4.2-intel/bin/mpif90 -O2 -traceback
PARALLEL version
TRANSIESTA support
NetCDF support

* Running on    4 nodes in parallel
>> Start of run:  20-JUN-2011  15:42:15

                           ***********************       
                           *  WELCOME TO SIESTA  *       
                           ***********************       

reinit: Reading from standard input
************************** Dump of input data file ****************************
SystemName  au_111_capacitor
SystemLabel au_111_capacitor
==================================================
==================================================
# SPECIES AND BASIS
# Number of species
NumberOfSpecies 1
%block ChemicalSpeciesLabel
  1  79 Au
%endblock ChemicalSpeciesLabel
PAO.BasisSize    SZP
PAO.EnergyShift  0.005 Ry
==================================================
==================================================
# K-points
%block kgrid_Monkhorst_Pack
8   0   0   0.0
0   8   0   0.0
0   0   30  0.5
%endblock kgrid_Monkhorst_Pack
==================================================
==================================================
# UNIT CELL
LatticeConstant       2.92311 Ang
%block LatticeVectors
1.000000000   0.00000000000   0.0000000000
0.500000000   0.86602540378   0.0000000000
0.000000000   0.00000000000  10.6144555530
%endblock LatticeVectors
# Atomic coordinates
NumberOfAtoms 10
AtomicCoordinatesFormat ScaledCartesian
%block AtomicCoordinatesAndAtomicSpecies
       0.000000000       0.000000000       0.000000000    1  # A
       0.500000000       0.288675135       0.816496581    1  # B
       0.500000000      -0.288675135       1.632993162    1  # C
       0.000000000       0.000000000       2.449489743    1  # A
       0.500000000       0.288675135       3.265986324    1  # B
       0.500000000       0.288675135       6.531972648    1  # B
       0.500000000      -0.288675135       7.348469229    1  # C
       0.000000000       0.000000000       8.164965810    1  # A
       0.500000000       0.288675135       8.981462391    1  # B
       0.500000000      -0.288675135       9.797958972    1  # C
%endblock AtomicCoordinatesAndAtomicSpecies
==================================================
==================================================
# General variables
ElectronicTemperature  100 K
MeshCutoff           350. Ry
xc.functional         LDA           # Exchange-correlation functional
xc.authors            CA
SpinPolarized .false.
SolutionMethod Transiesta
==================================================
==================================================
# SCF variables
DM.MixSCF1   T
MaxSCFIterations      300           # Maximum number of SCF iter
DM.MixingWeight       0.03          # New DM amount for next SCF cycle
DM.Tolerance          1.d-4         # Tolerance in maximum difference
DM.UseSaveDM          true          # to use continuation files
DM.NumberPulay         5
Diag.DivideAndConquer     no
TS.MixH                  yes
==================================================
==================================================
# MD variables
MD.FinalTimeStep 1
MD.TypeOfRun CG
MD.NumCGsteps     000
MD.UseSaveXV      .true.
==================================================
==================================================
# Output variables
WriteMullikenPop                1
WriteBands                      .false.
SaveRho                         .false.
SaveDeltaRho                    .false.
SaveHS                          .false.
SaveElectrostaticPotential      True
SaveTotalPotential              no
WriteCoorXmol                   .true.
WriteMDXmol                     .true.
WriteMDhistory                  .false.
WriteEigenvalues                yes
==================================================
==================================================
# Parallel variables
Diag.ParallelOverK      yes
==================================================
==================================================
# Transiesta information
# GF OPTIONS
TS.ComplexContour.Emin    -30.0 eV
TS.ComplexContour.NPoles       03
TS.ComplexContour.NCircle      30
TS.ComplexContour.NLine        10
# BIAS OPTIONS
TS.biasContour.NumPoints       15
TS.UpdateDMCROnly        false
# TS OPTIONS
TS.Voltage 1.000000 eV
# TBT OPTIONS
TS.TBT.Emin -0.5 eV
TS.TBT.Emax +0.5 eV
TS.TBT.NPoints 100
TS.TBT.NEigen 3
TS.TBT.Eta        0.000001 Ry
# Write hamiltonian
TS.SaveHS   .true.
# LEFT ELECTRODE
TS.HSFileLeft  ./elec_au_111_abc.TSHS
TS.ReplicateA1Left    1
TS.ReplicateA2Left    1
TS.NumUsedAtomsLeft   03
TS.BufferAtomsLeft    0
# RIGHT ELECTRODE
TS.HSFileRight  ./elec_au_111_abc.TSHS
TS.ReplicateA1Right   1
TS.ReplicateA2Right   1
TS.NumUsedAtomsRight  03
TS.BufferAtomsRight   0
==================================================
==================================================
************************** End of input data file *****************************

reinit: -----------------------------------------------------------------------
reinit: System Name: au_111_capacitor
reinit: -----------------------------------------------------------------------
reinit: System Label: au_111_capacitor                                            
reinit: -----------------------------------------------------------------------

initatom: Reading input for the pseudopotentials and atomic orbitals ----------
 Species number:            1  Label: Au Atomic number:          79
Ground state valence configuration:   6s01  5d10
Reading pseudopotential information in formatted form from Au.psf

Pseudopotential generated from a relativistic atomic calculation
There are spin-orbit pseudopotentials available
Spin-orbit interaction is not included in this calculation

Valence configuration for pseudopotential generation:
6s( 1.00) rc: 2.32
6p( 0.00) rc: 2.32
5d(10.00) rc: 2.32
5f( 0.00) rc: 2.32
For Au, standard SIESTA heuristics set lmxkb to 3
 (one more than the basis l, including polarization orbitals).
Use PS.lmax or PS.KBprojectors blocks to override.

<basis_specs>
===============================================================================
Au                   Z=  79    Mass=  196.97        Charge= 0.17977+309
Lmxo=2 Lmxkb=3     BasisType=split      Semic=F
L=0  Nsemic=0  Cnfigmx=6
          n=1  nzeta=1  polorb=1
            splnorm:   0.15000    
               vcte:    0.0000    
               rinn:    0.0000    
                rcs:    0.0000    
            lambdas:    1.0000    
L=1  Nsemic=0  Cnfigmx=6
L=2  Nsemic=0  Cnfigmx=5
          n=1  nzeta=1  polorb=0
            splnorm:   0.15000    
               vcte:    0.0000    
               rinn:    0.0000    
                rcs:    0.0000    
            lambdas:    1.0000    
-------------------------------------------------------------------------------
L=0  Nkbl=1  erefs: 0.17977+309
L=1  Nkbl=1  erefs: 0.17977+309
L=2  Nkbl=1  erefs: 0.17977+309
L=3  Nkbl=1  erefs: 0.17977+309
===============================================================================
</basis_specs>

atom: Called for Au                    (Z =  79)

read_vps: Pseudopotential generation method:
read_vps: ATM3      Troullier-Martins                       
Total valence charge:   11.00000

xc_check: Exchange-correlation functional:
xc_check: Ceperley-Alder
V l=0 = -2*Zval/r beyond r=  3.7361
V l=1 = -2*Zval/r beyond r=  3.7361
V l=2 = -2*Zval/r beyond r=  3.7361
V l=3 = -2*Zval/r beyond r=  3.7361
All V_l potentials equal beyond r=  2.2946
This should be close to max(r_c) in ps generation
All pots = -2*Zval/r beyond r=  3.7361
Using large-core scheme for Vlocal

atom: Estimated core radius    3.73611

atom: Including non-local core corrections could be a good idea
atom: Maximum radius for 4*pi*r*r*local-pseudopot. charge    4.07775
atom: Maximum radius for r*vlocal+2*Zval:    3.78310
GHOST: No ghost state for L =  0
GHOST: No ghost state for L =  1
GHOST: No ghost state for L =  2
GHOST: No ghost state for L =  3

KBgen: Kleinman-Bylander projectors: 
   l= 0   rc=  2.382235   el= -0.445645   Ekb=  4.511922   kbcos=  0.274440
   l= 1   rc=  2.382235   el= -0.065316   Ekb=  2.560647   kbcos=  0.223707
   l= 2   rc=  2.382235   el= -0.526293   Ekb= -5.024070   kbcos= -0.676934
   l= 3   rc=  2.382235   el=  0.003438   Ekb= -2.070042   kbcos= -0.013117

KBgen: Total number of  Kleinman-Bylander projectors:   16
atom: -------------------------------------------------------------------------

atom: SANKEY-TYPE ORBITALS:

SPLIT: Orbitals with angular momentum L= 0

SPLIT: Basis orbitals for state 6s

SPLIT: PAO cut-off radius determined from an
SPLIT: energy shift=  0.005000 Ry

   izeta = 1
                 lambda =    1.000000
                     rc =    7.246712
                 energy =   -0.441368
                kinetic =    0.367640
    potential(screened) =   -0.809008
       potential(ionic) =   -8.408267

SPLIT: Orbitals with angular momentum L= 2

SPLIT: Basis orbitals for state 5d

SPLIT: PAO cut-off radius determined from an
SPLIT: energy shift=  0.005000 Ry

   izeta = 1
                 lambda =    1.000000
                     rc =    5.106662
                 energy =   -0.521343
                kinetic =    4.852314
    potential(screened) =   -5.373657
       potential(ionic) =  -16.114240

POLgen: Perturbative polarization orbital with L=  1

POLgen: Polarization orbital for state 6s

   izeta = 1
                     rc =    7.246712
                 energy =   -0.107868
                kinetic =    0.647525
    potential(screened) =   -0.755394
       potential(ionic) =   -7.869443
atom: Total number of Sankey-type orbitals:  9

atm_pop: Valence configuration (for local Pseudopot. screening):
 6s( 1.00)                                                            
 6p( 0.00)                                                            
 5d(10.00)                                                            
Vna: chval, zval:   11.00000  11.00000

Vna:  Cut-off radius for the neutral-atom potential:   7.246712

atom: _________________________________________________________________________

prinput: Basis input ----------------------------------------------------------

PAO.BasisType split     

%block ChemicalSpeciesLabel
    1   79 Au                      # Species index, atomic number, species label
%endblock ChemicalSpeciesLabel

%block PAO.Basis                 # Define Basis set
Au                    2                    # Species label, number of l-shells
 n=6   0   1 P   1                   # n, l, Nzeta, Polarization, NzetaPol
   7.247   
   1.000   
 n=5   2   1                         # n, l, Nzeta 
   5.107   
   1.000   
%endblock PAO.Basis

prinput: ----------------------------------------------------------------------

Dumping basis to NetCDF file Au.ion.nc
coor:   Atomic-coordinates input format  =     Cartesian coordinates
coor:                                          (in units of alat)

siesta: WARNING: XV file not found

siesta: Atomic coordinates (Bohr) and species
siesta:      0.00000   0.00000   0.00000  1        1
siesta:      2.76194   1.59461   4.51023  1        2
siesta:      2.76194  -1.59461   9.02046  1        3
siesta:      0.00000   0.00000  13.53069  1        4
siesta:      2.76194   1.59461  18.04092  1        5
siesta:      2.76194   1.59461  36.08183  1        6
siesta:      2.76194  -1.59461  40.59206  1        7
siesta:      0.00000   0.00000  45.10229  1        8
siesta:      2.76194   1.59461  49.61252  1        9
siesta:      2.76194  -1.59461  54.12275  1       10

siesta: System type = bulk      

initatomlists: Number of atoms, orbitals, and projectors:     10    90   160

siesta: ******************** Simulation parameters ****************************
siesta:
siesta: The following are some of the parameters of the simulation.
siesta: A complete list of the parameters used, including default values,
siesta: can be found in file out.fdf
siesta:
redata: Non-Collinear-spin run           =     F
redata: SpinPolarized (Up/Down) run      =     F
redata: Number of spin components        =     1
redata: Long output                      =     F
redata: Number of Atomic Species         =        1
redata: Charge density info will appear in .RHO file
redata: Write Mulliken Pop.              =     Atomic and Orbital charges
redata: Mesh Cutoff                      =   350.0000  Ry
redata: Net charge of the system         =     0.0000 |e|
redata: Max. number of SCF Iter          =      300
redata: Performing Pulay mixing using    =     5 iterations
redata: Mix DM in first SCF step ?       =     T
redata: Write Pulay info on disk?        =     F
redata: Discard 1st Pulay DM after  kick =     F
redata: New DM Mixing Weight             =     0.0300
redata: New DM Occupancy tolerance       = 0.000000000001
redata: No kicks to SCF
redata: DM Mixing Weight for Kicks       =     0.5000
redata: DM Tolerance for SCF             =     0.000100
redata: Require Energy convergence for SCF =     F
redata: DM Energy tolerance for SCF      =     0.000100 eV
redata: Require Harris convergence for SCF =     F
redata: DM Harris energy tolerance for SCF =     0.000100 eV
redata: Using Saved Data (generic)   =     F
redata: Use continuation files for DM    =     T
redata: Neglect nonoverlap interactions  =     F
redata: Method of Calculation            =         Transiesta
redata: Fix the spin of the system       =     F
redata: Dynamics option                  =     CG coord. optimization
redata: Variable cell                    =     F
redata: Use continuation files for CG    =     F
redata: Max atomic displ per move        =     0.2000  Bohr
redata: Maximum number of CG moves       =        0
redata: Force tolerance                  =     0.0016  Ry/Bohr
redata: ***********************************************************************
 
ts_read_options: **************************************************************
ts_read_options: Save H and S matrices        =    T
ts_read_options: Mixing Hamiltonian           =    T
ts_read_options: TranSIESTA Voltage           =    1.0000 Volts
ts_read_options: TriDiag                      =    F
ts_read_options: Update DM Contact Reg. only  =    F
ts_read_options: N. Buffer At. Left           =    0
ts_read_options: N. Buffer At. Right          =    0
ts_read_options: N. Pts. Circle               =   30
ts_read_options: N. Pts. Line                 =   10
ts_read_options: N. Poles in Contour          =    3
ts_read_options: N. Pts. Bias Contour         =   15
ts_read_options: Contour E Min.               =   -2.2049 Ry
ts_read_options: GFEta                        =    0.000001 Ry
ts_read_options: Electronic Temperature       =    0.0006 Ry
ts_read_options: Bias Contour Method         =    gaussfermi          
ts_read_options: Left GF File                =    Left.GF                          
ts_read_options: Right GF File               =    Right.GF                         
ts_read_options: Calculate GF                 =    T
ts_read_options: Save S and quit (onlyS)      =    F
ts_read_options: **************************************************************
 
************************ Begin: TS CHECKS AND WARNINGS ************************
************************ End: TS CHECKS AND WARNINGS **************************
 
Total number of electrons:   110.000000
Total ionic charge:   110.000000

* ProcessorY, Blocksize:    2  23

k-point displ. along   1 input, could be:     0.00    0.50
k-point displ. along   2 input, could be:     0.00    0.50
 Kpoints in:          960 . Kpoints trimmed:          960

siesta: k-grid: Number of k-points =   960
siesta: k-grid: Cutoff (effective) =    11.692 Ang
siesta: k-grid: Supercell and displacements
siesta: k-grid:    8   0   0      0.000
siesta: k-grid:    0   8   0      0.000
siesta: k-grid:    0   0  30      0.500
k-point displ. along   1 input, could be:     0.00    0.50
k-point displ. along   2 input, could be:     0.00    0.50
 Kpoints in:           40 . Kpoints trimmed:           37

transiesta: ts_k-grid: Number of Transport k-points =    37
transiesta: ts_k-grid: Supercell and displacements
transiesta: ts_k-grid:    8   0   0      0.000
transiesta: ts_k-grid:    0   8   0      0.000
 
Naive supercell factors:     7    7    1

superc: Internal auxiliary supercell:     7 x     7 x     1  =      49
superc: Number of atoms, orbitals, and projectors:    490   4410   7840

* Maximum dynamic memory allocated =     2 MB

siesta:                 ==============================
                            Begin CG move =      0
                        ==============================

superc: Internal auxiliary supercell:     7 x     7 x     1  =      49
superc: Number of atoms, orbitals, and projectors:    490   4410   7840

outcell: Unit cell vectors (Ang):
        2.923110    0.000000    0.000000
        1.461555    2.531488    0.000000
        0.000000    0.000000   31.027221

outcell: Cell vector modules (Ang)   :    2.923110    2.923110   31.027221
outcell: Cell angles (23,13,12) (deg):     90.0000     90.0000     60.0000
outcell: Cell volume (Ang**3)        :    229.5957
New_DM. Step:     1
Initializing Density Matrix...
TRANSIESTA: No TS-DensityMatrix file found
TRANSIESTA: Initialization runs using diagon

iodm: Reading Density Matrix from files

InitMesh: MESH =    30 x    30 x   360 =      324000
InitMesh: Mesh cutoff (required, used) =   350.000   372.067 Ry
 
TSvoltage: Bias  1.000V
TSvoltage: In unit cell direction = { 0.000, 0.000, 1.000}

* Maximum dynamic memory allocated =    63 MB

stepf: Fermi-Dirac step function

* Maximum dynamic memory allocated =    68 MB

siesta: Program's energy decomposition (eV):
siesta: Ebs     =      -756.416268
siesta: Eions   =     11712.249174
siesta: Ena     =       583.627911
siesta: Ekin    =      6365.473518
siesta: Enl     =     -2950.642235
siesta: DEna    =        77.708302
siesta: DUscf   =         3.830508
siesta: DUext   =         0.000000
siesta: Exc     =     -1413.304309
siesta: eta*DQ  =         0.000000
siesta: Emadel  =         0.000000
siesta: Emeta   =         0.000000
siesta: Emolmec =         0.000000
siesta: Ekinion =         0.000000
siesta: Eharris =     -9045.555480
siesta: Etot    =     -9045.555481
siesta: FreeEng =     -9045.555481

siesta: iscf   Eharris(eV)      E_KS(eV)   FreeEng(eV)   dDmax  Ef(eV)
siesta:    1    -9045.5555    -9045.5555    -9045.5555  0.0023 -2.7994
timer: Routine,Calls,Time,% = IterSCF        1      60.433  96.20
elaps: Routine,Calls,Wall,% = IterSCF        1      15.171  95.83
siesta:    2    -9045.5555    -9045.5555    -9045.5555  0.0027 -2.7999
siesta:    3    -9045.5555    -9045.5555    -9045.5555  0.0005 -2.7997
siesta:    4    -9045.5555    -9045.5555    -9045.5555  0.0001 -2.7997

                          ************************       
                          *   TRANSIESTA BEGIN   *       
                          ************************       
 Left equilibrium:
 contour:  Residuals: 
 contour:      0.03675      0.00199      0.000000000     0.003979496   1
 contour:      0.03675      0.00597      0.000000000     0.003979496   2
 contour:      0.03675      0.00995      0.000000000     0.003979496   3
 contour:  Fermi Line: 
 contour:      0.05079      0.01194      0.000000000     0.000000000   1
 contour:      0.04581      0.01194     -0.000000003     0.000000000   2
 contour:      0.04224      0.01194     -0.000000534     0.000000000   3
 contour:      0.03952      0.01194     -0.000029330     0.000000000   4
 contour:      0.03748      0.01194     -0.000426928     0.000000000   5
 contour:      0.03580      0.01194     -0.001357550     0.000000000   6
 contour:      0.03411      0.01194     -0.001649495     0.000000000   7
 contour:      0.03254      0.01194     -0.001427686     0.000000000   8
 contour:      0.03132      0.01194     -0.000994590     0.000000000   9
 contour:      0.03059      0.01194     -0.000447478     0.000000000  10
 contour:  Circle: 
 contour:      0.03034      0.01728     -0.000215126     0.013710786   1
 contour:      0.02975      0.04003     -0.001157073     0.031756715   2
 contour:      0.02752      0.08066     -0.003634542     0.049401014   3
 contour:      0.02171      0.13857     -0.008415965     0.066235554   4
 contour:      0.00971      0.21269     -0.016114794     0.081720641   5
 contour:     -0.01162      0.30133     -0.027118691     0.095148678   6
 contour:     -0.04566      0.40202     -0.041517660     0.105668982   7
 contour:     -0.09570      0.51139     -0.059042090     0.112355286   8
 contour:     -0.16457      0.62515     -0.079026526     0.114312802   9
 contour:     -0.25423      0.73819     -0.100415832     0.110813590  10
 contour:     -0.36541      0.84481     -0.121826529     0.101440259  11
 contour:     -0.49736      0.93911     -0.141667241     0.086211518  12
 contour:     -0.64768      1.01546     -0.158309667     0.065661390  13
 contour:     -0.81242      1.06901     -0.170288177     0.040848962  14
 contour:     -0.98633      1.09623     -0.176495843     0.013287325  15
 contour:     -1.16328      1.09527     -0.176341138    -0.015203238  16
 contour:     -1.33688      1.06616     -0.169834526    -0.042695837  17
 contour:     -1.50103      1.01082     -0.157587267    -0.067376718  18
 contour:     -1.65052      0.93285     -0.140722653    -0.087744902  19
 contour:     -1.78143      0.83712     -0.120717731    -0.102757281  20
 contour:     -1.89145      0.72930     -0.099206504    -0.111897544  21
 contour:     -1.97987      0.61529     -0.077780459    -0.115164267  22
 contour:     -2.04750      0.50079     -0.057818460    -0.112989841  23
 contour:     -2.09635      0.39088     -0.040367675    -0.106113622  24
 contour:     -2.12930      0.28983     -0.026083803    -0.095437569  25
 contour:     -2.14967      0.20096     -0.015226380    -0.081890824  26
 contour:     -2.16086      0.12672     -0.007696168    -0.066323044  27
 contour:     -2.16604      0.06875     -0.003097869    -0.049437567  28
 contour:     -2.16783      0.02810     -0.000812334    -0.031767873  29
 contour:     -2.16818      0.00535     -0.000066680    -0.013712003  30
 Right equilibrium:
 contour:  Residuals: 
 contour:     -0.03675      0.00199      0.000000000     0.003979496   1
 contour:     -0.03675      0.00597      0.000000000     0.003979496   2
 contour:     -0.03675      0.00995      0.000000000     0.003979496   3
 contour:  Fermi Line: 
 contour:     -0.02271      0.01194      0.000000000     0.000000000   1
 contour:     -0.02769      0.01194     -0.000000003     0.000000000   2
 contour:     -0.03126      0.01194     -0.000000534     0.000000000   3
 contour:     -0.03398      0.01194     -0.000029330     0.000000000   4
 contour:     -0.03602      0.01194     -0.000426928     0.000000000   5
 contour:     -0.03770      0.01194     -0.001357550     0.000000000   6
 contour:     -0.03938      0.01194     -0.001649495     0.000000000   7
 contour:     -0.04096      0.01194     -0.001427686     0.000000000   8
 contour:     -0.04218      0.01194     -0.000994590     0.000000000   9
 contour:     -0.04291      0.01194     -0.000447478     0.000000000  10
 contour:  Circle: 
 contour:     -0.04315      0.01728     -0.000215126     0.013710786   1
 contour:     -0.04375      0.04003     -0.001157073     0.031756715   2
 contour:     -0.04598      0.08066     -0.003634542     0.049401014   3
 contour:     -0.05179      0.13857     -0.008415965     0.066235554   4
 contour:     -0.06379      0.21269     -0.016114794     0.081720641   5
 contour:     -0.08512      0.30133     -0.027118691     0.095148678   6
 contour:     -0.11916      0.40202     -0.041517660     0.105668982   7
 contour:     -0.16920      0.51139     -0.059042090     0.112355286   8
 contour:     -0.23807      0.62515     -0.079026526     0.114312802   9
 contour:     -0.32773      0.73819     -0.100415832     0.110813590  10
 contour:     -0.43891      0.84481     -0.121826529     0.101440259  11
 contour:     -0.57086      0.93911     -0.141667241     0.086211518  12
 contour:     -0.72118      1.01546     -0.158309667     0.065661390  13
 contour:     -0.88592      1.06901     -0.170288177     0.040848962  14
 contour:     -1.05982      1.09623     -0.176495843     0.013287325  15
 contour:     -1.23678      1.09527     -0.176341138    -0.015203238  16
 contour:     -1.41038      1.06616     -0.169834526    -0.042695837  17
 contour:     -1.57453      1.01082     -0.157587267    -0.067376718  18
 contour:     -1.72401      0.93285     -0.140722653    -0.087744902  19
 contour:     -1.85493      0.83712     -0.120717731    -0.102757281  20
 contour:     -1.96495      0.72930     -0.099206504    -0.111897544  21
 contour:     -2.05337      0.61529     -0.077780459    -0.115164267  22
 contour:     -2.12100      0.50079     -0.057818460    -0.112989841  23
 contour:     -2.16985      0.39088     -0.040367675    -0.106113622  24
 contour:     -2.20280      0.28983     -0.026083803    -0.095437569  25
 contour:     -2.22316      0.20096     -0.015226380    -0.081890824  26
 contour:     -2.23436      0.12672     -0.007696168    -0.066323044  27
 contour:     -2.23954      0.06875     -0.003097869    -0.049437567  28
 contour:     -2.24133      0.02810     -0.000812334    -0.031767873  29
 contour:     -2.24168      0.00535     -0.000066680    -0.013712003  30
 Real-axis: From EFermiR to EFermiL
 Gaussian fermi contour, ngau=           1
 contour:  Non-equilibrium: 
 contour:     -0.03650      0.00000      0.001335608     0.000000000   1
 contour:     -0.03548      0.00000      0.001844777     0.000000000   2
 contour:     -0.02957      0.00000      0.007268853     0.000000000   3
 contour:     -0.02365      0.00000      0.005297702     0.000000000   4
 contour:     -0.01774      0.00000      0.006036916     0.000000000   5
 contour:     -0.01183      0.00000      0.005913714     0.000000000   6
 contour:     -0.00591      0.00000      0.005913714     0.000000000   7
 contour:      0.00000      0.00000      0.005913714     0.000000000   8
 contour:      0.00591      0.00000      0.005913714     0.000000000   9
 contour:      0.01183      0.00000      0.005913714     0.000000000  10
 contour:      0.01774      0.00000      0.006036916     0.000000000  11
 contour:      0.02365      0.00000      0.005297702     0.000000000  12
 contour:      0.02957      0.00000      0.007268853     0.000000000  13
 contour:      0.03548      0.00000      0.001844777     0.000000000  14
 contour:      0.03650      0.00000      0.001335608     0.000000000  15
         101  energy points
         101          43
 ----- DISTRIBUTION OF ENERGY POINTS AMONG PROCESSORS -----
  Node Point  Part Read-ins         ZEnergy                 Weight
    0     1     L      4       0.03675   0.00199       0.00000  -0.00398
    1     1     L      4       0.03675   0.00597       0.00000  -0.00398
    2     1     L      4       0.03675   0.00995       0.00000  -0.00398
    3     1     L      4       0.05079   0.01194       0.00000   0.00000
    0     2     L      4       0.04581   0.01194       0.00000   0.00000
    1     2     L      4       0.04224   0.01194       0.00000   0.00000
    2     2     L      4       0.03952   0.01194       0.00003   0.00000
    3     2     L      4       0.03748   0.01194       0.00043   0.00000
    0     3     L      4       0.03580   0.01194       0.00136   0.00000
    1     3     L      4       0.03411   0.01194       0.00165   0.00000
    2     3     L      4       0.03254   0.01194       0.00143   0.00000
    3     3     L      4       0.03132   0.01194       0.00099   0.00000
    0     4     L      4       0.03059   0.01194       0.00045   0.00000
    1     4     L      4       0.03034   0.01728       0.00022  -0.01371
    2     4     L      4       0.02975   0.04003       0.00116  -0.03176
    3     4     L      4       0.02752   0.08066       0.00363  -0.04940
    0     5     L      4       0.02171   0.13857       0.00842  -0.06624
    1     5     L      4       0.00971   0.21269       0.01611  -0.08172
    2     5     L      4      -0.01162   0.30133       0.02712  -0.09515
    3     5     L      4      -0.04566   0.40202       0.04152  -0.10567
    0     6     L      4      -0.09570   0.51139       0.05904  -0.11236
    1     6     L      4      -0.16457   0.62515       0.07903  -0.11431
    2     6     L      4      -0.25423   0.73819       0.10042  -0.11081
    3     6     L      4      -0.36541   0.84481       0.12183  -0.10144
    0     7     L      4      -0.49736   0.93911       0.14167  -0.08621
    1     7     L      4      -0.64768   1.01546       0.15831  -0.06566
    2     7     L      4      -0.81242   1.06901       0.17029  -0.04085
    3     7     L      4      -0.98633   1.09623       0.17650  -0.01329
    0     8     L      4      -1.16328   1.09527       0.17634   0.01520
    1     8     L      4      -1.33688   1.06616       0.16983   0.04270
    2     8     L      4      -1.50103   1.01082       0.15759   0.06738
    3     8     L      4      -1.65052   0.93285       0.14072   0.08774
    0     9     L      4      -1.78143   0.83712       0.12072   0.10276
    1     9     L      4      -1.89145   0.72930       0.09921   0.11190
    2     9     L      4      -1.97987   0.61529       0.07778   0.11516
    3     9     L      4      -2.04750   0.50079       0.05782   0.11299
    0    10     L      4      -2.09635   0.39088       0.04037   0.10611
    1    10     L      4      -2.12930   0.28983       0.02608   0.09544
    2    10     L      4      -2.14967   0.20096       0.01523   0.08189
    3    10     L      4      -2.16086   0.12672       0.00770   0.06632
    0    11     L      4      -2.16604   0.06875       0.00310   0.04944
    1    11     L      4      -2.16783   0.02810       0.00081   0.03177
    2    11     L      4      -2.16818   0.00535       0.00007   0.01371
    3    11     R      4      -0.03675   0.00199       0.00000  -0.00398
    0    12     R      4      -0.03675   0.00597       0.00000  -0.00398
    1    12     R      4      -0.03675   0.00995       0.00000  -0.00398
    2    12     R      4      -0.02271   0.01194       0.00000   0.00000
    3    12     R      4      -0.02769   0.01194       0.00000   0.00000
    0    13     R      4      -0.03126   0.01194       0.00000   0.00000
    1    13     R      4      -0.03398   0.01194       0.00003   0.00000
    2    13     R      4      -0.03602   0.01194       0.00043   0.00000
    3    13     R      4      -0.03770   0.01194       0.00136   0.00000
    0    14     R      4      -0.03938   0.01194       0.00165   0.00000
    1    14     R      4      -0.04096   0.01194       0.00143   0.00000
    2    14     R      4      -0.04218   0.01194       0.00099   0.00000
    3    14     R      4      -0.04291   0.01194       0.00045   0.00000
    0    15     R      4      -0.04315   0.01728       0.00022  -0.01371
    1    15     R      4      -0.04375   0.04003       0.00116  -0.03176
    2    15     R      4      -0.04598   0.08066       0.00363  -0.04940
    3    15     R      4      -0.05179   0.13857       0.00842  -0.06624
    0    16     R      4      -0.06379   0.21269       0.01611  -0.08172
    1    16     R      4      -0.08512   0.30133       0.02712  -0.09515
    2    16     R      4      -0.11916   0.40202       0.04152  -0.10567
    3    16     R      4      -0.16920   0.51139       0.05904  -0.11236
    0    17     R      4      -0.23807   0.62515       0.07903  -0.11431
    1    17     R      4      -0.32773   0.73819       0.10042  -0.11081
    2    17     R      4      -0.43891   0.84481       0.12183  -0.10144
    3    17     R      4      -0.57086   0.93911       0.14167  -0.08621
    0    18     R      4      -0.72118   1.01546       0.15831  -0.06566
    1    18     R      4      -0.88592   1.06901       0.17029  -0.04085
    2    18     R      4      -1.05982   1.09623       0.17650  -0.01329
    3    18     R      4      -1.23678   1.09527       0.17634   0.01520
    0    19     R      4      -1.41038   1.06616       0.16983   0.04270
    1    19     R      4      -1.57453   1.01082       0.15759   0.06738
    2    19     R      4      -1.72401   0.93285       0.14072   0.08774
    3    19     R      4      -1.85493   0.83712       0.12072   0.10276
    0    20     R      4      -1.96495   0.72930       0.09921   0.11190
    1    20     R      4      -2.05337   0.61529       0.07778   0.11516
    2    20     R      4      -2.12100   0.50079       0.05782   0.11299
    3    20     R      4      -2.16985   0.39088       0.04037   0.10611
    0    21     R      4      -2.20280   0.28983       0.02608   0.09544
    1    21     R      4      -2.22316   0.20096       0.01523   0.08189
    2    21     R      4      -2.23436   0.12672       0.00770   0.06632
    3    21     R      4      -2.23954   0.06875       0.00310   0.04944
    0    22     R      2      -2.24133   0.02810       0.00081   0.03177
    1    22     R      2      -2.24168   0.00535       0.00007   0.01371
    2    22     R      2      -2.24168   0.00535       0.00000   0.00000
    3    22     R      2      -2.24168   0.00535       0.00000   0.00000
    0    23     V      4      -0.03650   0.00000       0.00134   0.00000
    1    23     V      4      -0.03548   0.00000       0.00184   0.00000
    2    23     V      4      -0.02957   0.00000       0.00727   0.00000
    3    23     V      4      -0.02365   0.00000       0.00530   0.00000
    0    24     V      4      -0.01774   0.00000       0.00604   0.00000
    1    24     V      4      -0.01183   0.00000       0.00591   0.00000
    2    24     V      4      -0.00591   0.00000       0.00591   0.00000
    3    24     V      4       0.00000   0.00000       0.00591   0.00000
    0    25     V      4       0.00591   0.00000       0.00591   0.00000
    1    25     V      4       0.01183   0.00000       0.00591   0.00000
    2    25     V      4       0.01774   0.00000       0.00604   0.00000
    3    25     V      4       0.02365   0.00000       0.00530   0.00000
    0    26     V      3       0.02957   0.00000       0.00727   0.00000
    1    26     V      3       0.03548   0.00000       0.00184   0.00000
    2    26     V      3       0.03650   0.00000       0.00134   0.00000
    3    26     V      3       0.03650   0.00000       0.00000   0.00000
 Total no. points:           104
 Total no. points to read:           101         101
 ----------------------------------------------------------
 Begin LEFT  
 unit cell:
  5.5239  0.0000  0.0000
  2.7619  4.7838  0.0000
  0.0000  0.0000 13.5307
 Size:          729
 Efermi:   3.674899422453221E-002
 GF: Spin number ->            1
 Got LEFT   Electrode GF
 Done 
 Begin RIGHT 
 unit cell:
  5.5239  0.0000  0.0000
  2.7619  4.7838  0.0000
  0.0000  0.0000 13.5307
 Size:          729
 Efermi:  -3.674899422453221E-002
 GF: Spin number ->            1
 Got RIGHT  Electrode GF
 Done 
 L-ELEC: lastoL:            0           9          18          27
 R-ELEC: lastoR:            0           9          18          27
 TRANSIESTA: Initializing lists
From SIESTA: Efermi=  -2.800
qc0 :   0.000
qcn0 :  65.686
 nou,NGL,NGR:          90          27          27
TranSiesta: Qsol,Qtot:  109.955  110.000    1.000

transiesta: TSiscf   Eharris(eV)      E_KS(eV)   FreeEng(eV)   dDmax  Ef(eV)
transiesta:   1    -9027.8541    -9028.4653    -9028.4653  3.1710 -2.7997
timer: Routine,Calls,Time,% = IterSCF        5     145.386  52.79
elaps: Routine,Calls,Wall,% = IterSCF        5      36.472  52.63
timer: Routine,Calls,Time,% = TS             1     121.461  44.10
elaps: Routine,Calls,Wall,% = TS             1      30.605  44.16
TranSiesta: Qsol,Qtot:  110.186  110.000    1.000
transiesta:   2    -9035.2422    -9032.1779    -9032.1779  3.3122 -2.7997
TranSiesta: Qsol,Qtot:  109.978  110.000    1.000
transiesta:   3    -9044.2985    -9045.3825    -9045.3825  0.1715 -2.7997
TranSiesta: Qsol,Qtot:  110.036  110.000    1.000
transiesta:   4    -9045.7823    -9045.6273    -9045.6273  0.0888 -2.7997
TranSiesta: Qsol,Qtot:  110.042  110.000    1.000
transiesta:   5    -9045.6802    -9045.6547    -9045.6547  0.1074 -2.7997
TranSiesta: Qsol,Qtot:  109.889  110.000    1.000
transiesta:   6    -9044.2265    -9044.8187    -9044.8187  0.2800 -2.7997
TranSiesta: Qsol,Qtot:  110.019  110.000    1.000
transiesta:   7    -9046.0134    -9045.5257    -9045.5257  0.1069 -2.7997
TranSiesta: Qsol,Qtot:  110.008  110.000    1.000
transiesta:   8    -9045.5110    -9045.5166    -9045.5166  0.0406 -2.7997
TranSiesta: Qsol,Qtot:  109.991  110.000    1.000
transiesta:   9    -9045.3862    -9045.4430    -9045.4430  0.0172 -2.7997
TranSiesta: Qsol,Qtot:  109.997  110.000    1.000
transiesta:  10    -9045.4870    -9045.4683    -9045.4683  0.0105 -2.7997
TranSiesta: Qsol,Qtot:  109.995  110.000    1.000
transiesta:  11    -9045.4464    -9045.4567    -9045.4567  0.0075 -2.7997
TranSiesta: Qsol,Qtot:  109.994  110.000    1.000
transiesta:  12    -9045.4426    -9045.4494    -9045.4494  0.0073 -2.7997
TranSiesta: Qsol,Qtot:  109.995  110.000    1.000
transiesta:  13    -9045.4550    -9045.4526    -9045.4526  0.0061 -2.7997
TranSiesta: Qsol,Qtot:  109.996  110.000    1.000
transiesta:  14    -9045.4616    -9045.4579    -9045.4579  0.0052 -2.7997
TranSiesta: Qsol,Qtot:  109.996  110.000    1.000
transiesta:  15    -9045.4563    -9045.4565    -9045.4565  0.0043 -2.7997
TranSiesta: Qsol,Qtot:  109.997  110.000    1.000
transiesta:  16    -9045.4674    -9045.4627    -9045.4627  0.0016 -2.7997
TranSiesta: Qsol,Qtot:  109.996  110.000    1.000
transiesta:  17    -9045.4589    -9045.4606    -9045.4606  0.0006 -2.7997
TranSiesta: Qsol,Qtot:  109.996  110.000    1.000
transiesta:  18    -9045.4586    -9045.4595    -9045.4595  0.0004 -2.7997
TranSiesta: Qsol,Qtot:  109.996  110.000    1.000
transiesta:  19    -9045.4579    -9045.4586    -9045.4586  0.0003 -2.7997
TranSiesta: Qsol,Qtot:  109.996  110.000    1.000
transiesta:  20    -9045.4587    -9045.4587    -9045.4587  0.0002 -2.7997
TranSiesta: Qsol,Qtot:  109.996  110.000    1.000
transiesta:  21    -9045.4590    -9045.4588    -9045.4588  0.0002 -2.7997
TranSiesta: Qsol,Qtot:  109.996  110.000    1.000
transiesta:  22    -9045.4588    -9045.4588    -9045.4588  0.0002 -2.7997
TranSiesta: Qsol,Qtot:  109.996  110.000    1.000
transiesta:  23    -9045.4588    -9045.4588    -9045.4588  0.0002 -2.7997
TranSiesta: Qsol,Qtot:  109.996  110.000    1.000
transiesta:  24    -9045.4589    -9045.4588    -9045.4588  0.0002 -2.7997
TranSiesta: Qsol,Qtot:  109.996  110.000    1.000
transiesta:  25    -9045.4590    -9045.4589    -9045.4589  0.0002 -2.7997
TranSiesta: Qsol,Qtot:  109.996  110.000    1.000
transiesta:  26    -9045.4571    -9045.4580    -9045.4580  0.0001 -2.7997
TranSiesta: Qsol,Qtot:  109.996  110.000    1.000
transiesta:  27    -9045.4584    -9045.4582    -9045.4582  0.0002 -2.7997
TranSiesta: Qsol,Qtot:  109.996  110.000    1.000
transiesta:  28    -9045.4572    -9045.4577    -9045.4577  0.0001 -2.7997
TranSiesta: Qsol,Qtot:  109.996  110.000    1.000
transiesta:  29    -9045.4574    -9045.4575    -9045.4575  0.0001 -2.7997
TranSiesta: Qsol,Qtot:  109.996  110.000    1.000
transiesta:  30    -9045.4584    -9045.4580    -9045.4580  0.0001 -2.7997

siesta: E_KS(eV) =            -9045.4580

siesta: E_KS - E_eggbox =     -9045.4580

siesta: Atomic forces (eV/Ang):
----------------------------------------
   Tot    0.000051   -0.000015    0.167430
----------------------------------------
   Max    0.669249
   Res    0.187896    sqrt( Sum f_i^2 / 3N )
----------------------------------------
   Max    0.669249    constrained

Stress-tensor-Voigt (kbar):       42.60       42.54       27.18       -0.09        0.16        0.09
(Free)E + p*V (eV/cell)    -9050.8233
Target enthalpy (eV/cell)    -9045.4580
 
mulliken: Atomic and Orbital Populations:

Species: Au                  
Atom  Qatom  Qorb
               6s      5dxy    5dyz    5dz2    5dxz    5dx2-y2 6Ppy    6Ppz    
               6Ppx    
   1 11.002   1.005   1.907   1.918   1.892   1.918   1.907   0.152   0.150
              0.152
   2 10.997   0.996   1.906   1.923   1.889   1.923   1.906   0.151   0.154
              0.151
   3 11.002   1.003   1.909   1.923   1.892   1.923   1.909   0.149   0.144
              0.150
   4 10.972   0.989   1.907   1.930   1.891   1.930   1.907   0.143   0.130
              0.143
   5 11.031   1.059   1.890   1.938   1.926   1.938   1.890   0.138   0.114
              0.138
   6 11.021   1.056   1.891   1.938   1.925   1.938   1.891   0.138   0.106
              0.138
   7 10.978   0.978   1.908   1.925   1.886   1.925   1.908   0.150   0.149
              0.150
   8 10.996   1.004   1.908   1.914   1.889   1.914   1.908   0.153   0.152
              0.153
   9 10.995   0.995   1.906   1.923   1.889   1.923   1.906   0.151   0.153
              0.151
  10 11.002   1.005   1.907   1.918   1.892   1.918   1.907   0.152   0.150
              0.152

mulliken: Qtot =      109.996

* Maximum dynamic memory allocated =    68 MB

coxmol: Writing XMOL coordinates into file au_111_capacitor.xyz                                            

siesta: Program's energy decomposition (eV):
siesta: Ebs     =      -763.788136
siesta: Eions   =     11712.249174
siesta: Ena     =       583.627911
siesta: Ekin    =      6365.961740
siesta: Enl     =     -2950.972047
siesta: DEna    =        77.651394
siesta: DUscf   =         3.822952
siesta: DUext   =         0.000000
siesta: Exc     =     -1413.300753
siesta: eta*DQ  =         0.000000
siesta: Emadel  =         0.000000
siesta: Emeta   =         0.000000
siesta: Emolmec =         0.000000
siesta: Ekinion =         0.000000
siesta: Eharris =     -9045.458393
siesta: Etot    =     -9045.457977
siesta: FreeEng =     -9045.457977

siesta: Final energy (eV):
siesta:  Band Struct. =    -763.788136
siesta:       Kinetic =    6365.961740
siesta:       Hartree =   21681.824333
siesta:    Ext. field =       0.000000
siesta:   Exch.-corr. =   -1413.300753
siesta:  Ion-electron =  -48642.880093
siesta:       Ion-ion =   12962.936796
siesta:       Ekinion =       0.000000
siesta:         Total =   -9045.457977

siesta: Atomic forces (eV/Ang):
siesta:      1    0.000004    0.000004    0.148319
siesta:      2    0.000134    0.000714    0.003912
siesta:      3   -0.001245    0.008773    0.486038
siesta:      4    0.001111   -0.009592   -0.669249
siesta:      5    0.000035    0.000038   -0.021123
siesta:      6   -0.000726    0.000159    0.030062
siesta:      7    0.006212   -0.005492   -0.303959
siesta:      8   -0.005800    0.006263    0.506665
siesta:      9    0.000325   -0.000882    0.026222
siesta:     10    0.000001    0.000000   -0.039455
siesta: ----------------------------------------
siesta:    Tot    0.000051   -0.000015    0.167430

siesta: Stress tensor (static) (eV/Ang**3):
siesta:     0.026591   -0.000119    0.000036
siesta:    -0.000054    0.026554    0.000060
siesta:     0.000053    0.000099    0.016961

siesta: Cell volume =        229.595743 Ang**3

siesta: Pressure (static):
siesta:                Solid            Molecule  Units
siesta:          -0.00025452         -0.00026461  Ry/Bohr**3
siesta:          -0.02336873         -0.02429524  eV/Ang**3
siesta:         -37.44124341        -38.92568743  kBar
(Free)E+ p_basis*V_orbitals  =       -9038.528741
(Free)Eharris+ p_basis*V_orbitals  =       -9038.529156

* Maximum dynamic memory allocated : Node    0 =    64 MB
* Maximum dynamic memory allocated : Node    1 =    68 MB
* Maximum dynamic memory allocated : Node    2 =    59 MB
* Maximum dynamic memory allocated : Node    3 =    65 MB

* Maximum memory occured during cdiag                         

timer: CPU execution times:
timer:  Routine       Calls   Time/call    Tot.time        %
timer:  siesta            1     823.852     823.852   100.00
timer:  Setup             1       1.418       1.418     0.17
timer:  bands             1       0.004       0.004     0.00
timer:  writewave         1       0.008       0.008     0.00
timer:  KSV_init          1       0.000       0.000     0.00
timer:  IterMD            1     818.479     818.479    99.35
timer:  hsparse           1       0.078       0.078     0.01
timer:  overlap           1       0.603       0.603     0.07
timer:  IterSCF          34      23.479     798.283    96.90
timer:  kinefsm           3       0.231       0.692     0.08
timer:  nlefsm            3       6.205      18.614     2.26
timer:  DHSCF            37       6.258     231.551    28.11
timer:  DHSCF1            1       0.665       0.665     0.08
timer:  DHSCF2            1      10.456      10.456     1.27
timer:  REORD           290       0.001       0.257     0.03
timer:  POISON           38       0.082       3.103     0.38
timer:  DHSCF3           37       5.801     214.639    26.05
timer:  rhoofd           37       2.956     109.375    13.28
timer:  cellXC           37       0.109       4.035     0.49
timer:  vmat             36       2.174      78.251     9.50
timer:  MolMec            3       0.000       0.000     0.00
timer:  diagon            4      22.217      88.868    10.79
timer:  cdiag          1920       0.021      40.001     4.86
timer:  cdiag1         1920       0.001       1.537     0.19
timer:  cdiag2         1920       0.003       6.491     0.79
timer:  cdiag3         1920       0.016      30.326     3.68
timer:  cdiag4         1920       0.001       1.386     0.17
timer:  TS               30      15.489     464.658    56.40
timer:  TRANS2         8880       0.003      25.063     3.04
timer:  DHSCF4            1       5.741       5.741     0.70
timer:  dfscf             1       4.717       4.717     0.57
timer:  overfsm           1       0.056       0.056     0.01
timer:  optical           1       0.030       0.030     0.00
  

elaps: ELAPSED times:
elaps:  Routine       Calls   Time/call    Tot.time        %
elaps:  siesta            1     210.122     210.122   100.00
elaps:  Setup             1       0.402       0.402     0.19
elaps:  bands             1       0.001       0.001     0.00
elaps:  writewave         1       0.002       0.002     0.00
elaps:  KSV_init          1       0.000       0.000     0.00
elaps:  IterMD            1     208.722     208.722    99.33
elaps:  hsparse           1       0.023       0.023     0.01
elaps:  overlap           1       0.151       0.151     0.07
elaps:  IterSCF          34       5.990     203.653    96.92
elaps:  kinefsm           3       0.059       0.176     0.08
elaps:  nlefsm            3       1.604       4.812     2.29
elaps:  DHSCF            37       1.565      57.921    27.57
elaps:  DHSCF1            1       0.164       0.164     0.08
elaps:  DHSCF2            1       2.633       2.633     1.25
elaps:  REORD           290       0.000       0.069     0.03
elaps:  POISON           38       0.021       0.791     0.38
elaps:  DHSCF3           37       1.452      53.713    25.56
elaps:  rhoofd           37       0.711      26.293    12.51
elaps:  cellXC           37       0.027       1.005     0.48
elaps:  vmat             36       0.544      19.583     9.32
elaps:  MolMec            3       0.000       0.000     0.00
elaps:  diagon            4       5.560      22.241    10.58
elaps:  cdiag          1920       0.005      10.011     4.76
elaps:  cdiag1         1920       0.000       0.380     0.18
elaps:  cdiag2         1920       0.001       1.638     0.78
elaps:  cdiag3         1920       0.004       7.583     3.61
elaps:  cdiag4         1920       0.000       0.344     0.16
elaps:  TS               30       3.952     118.547    56.42
elaps:  TRANS2         8880       0.001       6.299     3.00
elaps:  DHSCF4            1       1.400       1.400     0.67
elaps:  dfscf             1       1.148       1.148     0.55
elaps:  overfsm           1       0.016       0.016     0.01
elaps:  optical           1       0.000       0.000     0.00
  
>> End of run:  20-JUN-2011  15:45:45
