
                           ***********************       
                           *  WELCOME TO SIESTA  *       
                           ***********************       

reinit: Reading from standard input
reinit: Dumped input in INPUT_TMP.00755
************************** Dump of input data file ****************************
SystemName  au_111_capacitor
SystemLabel au_111_capacitor
==================================================
==================================================
# SPECIES AND BASIS
# Number of species
NumberOfSpecies 1
%block ChemicalSpeciesLabel
  1  79 Au
%endblock ChemicalSpeciesLabel
PAO.BasisSize    SZP
PAO.EnergyShift  0.005 Ry
==================================================
==================================================
# K-points
%block kgrid_Monkhorst_Pack
8   0   0   0.0
0   8   0   0.0
0   0   30  0.5
%endblock kgrid_Monkhorst_Pack
==================================================
==================================================
# UNIT CELL
LatticeConstant       2.92311 Ang
%block LatticeVectors
1.000000000   0.00000000000   0.0000000000
0.500000000   0.86602540378   0.0000000000
0.000000000   0.00000000000  10.6144555530
%endblock LatticeVectors
# Atomic coordinates
NumberOfAtoms 10
AtomicCoordinatesFormat ScaledCartesian
%block AtomicCoordinatesAndAtomicSpecies
       0.000000000       0.000000000       0.000000000    1  # A
       0.500000000       0.288675135       0.816496581    1  # B
       0.500000000      -0.288675135       1.632993162    1  # C
       0.000000000       0.000000000       2.449489743    1  # A
       0.500000000       0.288675135       3.265986324    1  # B
       0.500000000       0.288675135       6.531972648    1  # B
       0.500000000      -0.288675135       7.348469229    1  # C
       0.000000000       0.000000000       8.164965810    1  # A
       0.500000000       0.288675135       8.981462391    1  # B
       0.500000000      -0.288675135       9.797958972    1  # C
%endblock AtomicCoordinatesAndAtomicSpecies
==================================================
==================================================
# General variables
ElectronicTemperature  100 K
MeshCutoff           350. Ry
xc.functional         LDA           # Exchange-correlation functional
xc.authors            CA
SpinPolarized .false.
SolutionMethod Transiesta
==================================================
==================================================
# SCF variables
DM.MixSCF1   T
MaxSCFIterations      300           # Maximum number of SCF iter
DM.MixingWeight       0.03          # New DM amount for next SCF cycle
DM.Tolerance          1.d-4         # Tolerance in maximum difference
DM.UseSaveDM          true          # to use continuation files
DM.NumberPulay         5
Diag.DivideAndConquer     no
MixHamiltonian yes
==================================================
==================================================
# MD variables
MD.FinalTimeStep 1
MD.TypeOfRun CG
MD.NumCGsteps     000
MD.UseSaveXV      .true.
==================================================
==================================================
# Output variables
WriteMullikenPop                1
WriteBands                      .false.
SaveRho                         .false.
SaveDeltaRho                    .false.
SaveHS                          .false.
SaveElectrostaticPotential      True
SaveTotalPotential              no
WriteCoorXmol                   .true.
WriteMDXmol                     .true.
WriteMDhistory                  .false.
WriteEigenvalues                yes
==================================================
==================================================
# Parallel variables
Diag.ParallelOverK      yes
==================================================
==================================================
# Transiesta information
TS.Voltage    1.00000 eV
%block TS.ChemPots
  Left
  Right
%endblock TS.ChemPots
%block TS.ChemPot.Left
  mu V/2
  contour.eq
    begin
      c-Left
      t-Left
    end
%endblock TS.ChemPot.Left
%block TS.ChemPot.Right
  mu -V/2
  contour.eq
    begin
      c-Right
      t-Right
    end
%endblock TS.ChemPot.Right
TS.Elecs.Bulk true
TS.Elecs.DM.Update none
TS.Elecs.Neglect.Principal true
TS.Elecs.GF.ReUse true
%block TS.Elecs
  Left
  Right
%endblock TS.Elecs
%block TS.Elec.Left
  TSHS ./elec_au_111_abc.TSHS
  chem-pot Left
  semi-inf-dir -a3
  elec-pos begin 1
%endblock TS.Elec.Left
%block TS.Elec.Right
  TSHS ./elec_au_111_abc.TSHS
  chem-pot Right
  semi-inf-dir +a3
  elec-pos end -1
%endblock TS.Elec.Right
TS.Contours.Eq.Pole    2.50000 eV
%block TS.Contour.c-Left
  part circle
   from  -40.00000 eV + V/2 to -10. kT + V/2
    points 30
     method g-legendre
%endblock TS.Contour.c-Left
%block TS.Contour.t-Left
  part tail
   from prev to inf
    points 10
     method g-fermi
%endblock TS.Contour.t-Left
%block TS.Contour.c-Right
  part circle
   from  -40.00000 eV - V/2 to -10. kT - V/2
    points 30
     method g-legendre
%endblock TS.Contour.c-Right
%block TS.Contour.t-Right
  part tail
   from prev to inf
    points 10
     method g-fermi
%endblock TS.Contour.t-Right
TS.Elecs.Eta    0.0001 eV
%block TS.Contours.nEq
  neq
%endblock TS.Contours.nEq
%block TS.Contour.nEq.neq
  part line
   from -|V|/2 - 5 kT to |V|/2 + 5 kT
    delta    0.01 eV
     method mid-rule
%endblock TS.Contour.nEq.neq
# TBtrans options
TBT.Elecs.Eta    0.0001 eV
%block TBT.Contours
  neq
%endblock TBT.Contours
%block TBT.Contour.neq
  part line
   from   -0.50000 eV to    0.50000 eV
    delta    0.01000 eV
     method mid-rule
%endblock TBT.Contour.neq
TBT.T.Eig 3
************************** End of input data file *****************************

reinit: -----------------------------------------------------------------------
reinit: System Name: au_111_capacitor
reinit: -----------------------------------------------------------------------
reinit: System Label: au_111_capacitor
reinit: -----------------------------------------------------------------------
Siesta Version: trunk-557
Architecture  : x86_64-linux-gcc
Compiler flags: mpif90 -m64 -fPIC -O3 -ftree-vectorize -fexpensive-optimizations -funroll-loops -fprefetch-loop-arrays -fgraphite -fipa-icf -fipa-pure-const -march=native -fschedule-fusion -fselective-scheduling  -fipa-sra -fipa-cp -fno-second-underscore -I/opt/zlib/1.2.8/gnu-6.1.0/include -I/opt/hdf5/1.8.16/gnu-6.1.0/include -I/opt/pnetcdf/1.7.0/gnu-6.1.0/include -I/opt/netcdf/4.4.0/gnu-6.1.0/include -I/opt/openmpi/1.10.2/gnu-6.1.0/include -I/opt/mumps/5.0.1/gnu-6.1.0/include
PP flags      : -DSIESTA__FLOOK -DSIESTA__METIS -DMPI -DFC_HAVE_FLUSH -DFC_HAVE_ABORT -DCDF -DGRID_DP -DMPI_TIMING -DTRANSIESTA_TIMING -DTBTRANS_TIMING -DSIESTA__MUMPS -DNCDF_PARALLEL -DNCDF -DNCDF_4 -DSCALAPACK_DEBUG -DTRANSIESTA
Libraries     : -lzmumps -lmumps_common -lpord -lparmetis -lmetis -L/opt/scalapack/204/gnu-6.1.0/lib -Wl,-rpath=/opt/scalapack/204/gnu-6.1.0/lib -lscalapack  -L/opt/openblas/0.2.17/gnu-6.1.0/lib -Wl,-rpath=/opt/openblas/0.2.17/gnu-6.1.0/lib -lopenblas -L/home/nicpa/phd/esl/flook -lflookall -ldl -lnetcdff -lnetcdf -lpnetcdf -lhdf5_hl -lhdf5 -lz -m64 -fPIC -O3 -ftree-vectorize -fexpensive-optimizations -funroll-loops -fprefetch-loop-arrays -fgraphite -fipa-icf -fipa-pure-const -march=native -fschedule-fusion -fselective-scheduling  -fipa-sra -fipa-cp -fno-second-underscore -I/opt/zlib/1.2.8/gnu-6.1.0/include -I/opt/hdf5/1.8.16/gnu-6.1.0/include -I/opt/pnetcdf/1.7.0/gnu-6.1.0/include -I/opt/netcdf/4.4.0/gnu-6.1.0/include -I/opt/openmpi/1.10.2/gnu-6.1.0/include -I/opt/mumps/5.0.1/gnu-6.1.0/include
PARALLEL version
TRANSIESTA support
NetCDF support
NetCDF-4 support
NetCDF-4 MPI-IO support
METIS ordering support

* Running on 2 nodes in parallel
>> Start of run:  18-AUG-2016  22:06:06

initatom: Reading input for the pseudopotentials and atomic orbitals ----------
Species number:   1 Atomic number:   79 Label: Au

Ground state valence configuration:   6s01  5d10
Reading pseudopotential information in formatted form from Au.psf

Pseudopotential generated from a relativistic atomic calculation
There are spin-orbit pseudopotentials available
Spin-orbit interaction is not included in this calculation

Valence configuration for pseudopotential generation:
6s( 1.00) rc: 2.32
6p( 0.00) rc: 2.32
5d(10.00) rc: 2.32
5f( 0.00) rc: 2.32
For Au, standard SIESTA heuristics set lmxkb to 3
 (one more than the basis l, including polarization orbitals).
Use PS.lmax or PS.KBprojectors blocks to override.

<basis_specs>
===============================================================================
Au                   Z=  79    Mass=  196.97        Charge= 0.17977+309
Lmxo=2 Lmxkb= 3    BasisType=split      Semic=F
L=0  Nsemic=0  Cnfigmx=6
          n=1  nzeta=1  polorb=1
            splnorm:   0.15000    
               vcte:    0.0000    
               rinn:    0.0000    
               qcoe:    0.0000    
               qyuk:    0.0000    
               qwid:   0.10000E-01
                rcs:    0.0000    
            lambdas:    1.0000    
L=1  Nsemic=0  Cnfigmx=6
L=2  Nsemic=0  Cnfigmx=5
          n=1  nzeta=1  polorb=0
            splnorm:   0.15000    
               vcte:    0.0000    
               rinn:    0.0000    
               qcoe:    0.0000    
               qyuk:    0.0000    
               qwid:   0.10000E-01
                rcs:    0.0000    
            lambdas:    1.0000    
-------------------------------------------------------------------------------
L=0  Nkbl=1  erefs: 0.17977+309
L=1  Nkbl=1  erefs: 0.17977+309
L=2  Nkbl=1  erefs: 0.17977+309
L=3  Nkbl=1  erefs: 0.17977+309
===============================================================================
</basis_specs>

atom: Called for Au                    (Z =  79)

read_vps: Pseudopotential generation method:
read_vps: ATM3      Troullier-Martins                       
Total valence charge:   11.00000

xc_check: Exchange-correlation functional:
xc_check: Ceperley-Alder
V l=0 = -2*Zval/r beyond r=  3.7361
V l=1 = -2*Zval/r beyond r=  3.7361
V l=2 = -2*Zval/r beyond r=  3.7361
V l=3 = -2*Zval/r beyond r=  3.7361
All V_l potentials equal beyond r=  2.2946
This should be close to max(r_c) in ps generation
All pots = -2*Zval/r beyond r=  3.7361
Using large-core scheme for Vlocal

atom: Estimated core radius    3.73611

atom: Including non-local core corrections could be a good idea
atom: Maximum radius for 4*pi*r*r*local-pseudopot. charge    4.07775
atom: Maximum radius for r*vlocal+2*Zval:    3.78310
GHOST: No ghost state for L =  0
GHOST: No ghost state for L =  1
GHOST: No ghost state for L =  2
GHOST: No ghost state for L =  3

KBgen: Kleinman-Bylander projectors: 
   l= 0   rc=  2.382235   el= -0.445645   Ekb=  4.511922   kbcos=  0.274440
   l= 1   rc=  2.382235   el= -0.065316   Ekb=  2.560647   kbcos=  0.223707
   l= 2   rc=  2.382235   el= -0.526293   Ekb= -5.024070   kbcos= -0.676934
   l= 3   rc=  2.382235   el=  0.003438   Ekb= -2.070042   kbcos= -0.013117

KBgen: Total number of  Kleinman-Bylander projectors:   16
atom: -------------------------------------------------------------------------

atom: SANKEY-TYPE ORBITALS:

SPLIT: Orbitals with angular momentum L= 0

SPLIT: Basis orbitals for state 6s

SPLIT: PAO cut-off radius determined from an
SPLIT: energy shift=  0.005000 Ry

   izeta = 1
                 lambda =    1.000000
                     rc =    7.246712
                 energy =   -0.441368
                kinetic =    0.367640
    potential(screened) =   -0.809008
       potential(ionic) =   -8.408267

SPLIT: Orbitals with angular momentum L= 2

SPLIT: Basis orbitals for state 5d

SPLIT: PAO cut-off radius determined from an
SPLIT: energy shift=  0.005000 Ry

   izeta = 1
                 lambda =    1.000000
                     rc =    5.106662
                 energy =   -0.521343
                kinetic =    4.852314
    potential(screened) =   -5.373657
       potential(ionic) =  -16.114240

POLgen: Perturbative polarization orbital with L=  1

POLgen: Polarization orbital for state 6s

   izeta = 1
                     rc =    7.246712
                 energy =   -0.107868
                kinetic =    0.647525
    potential(screened) =   -0.755394
       potential(ionic) =   -7.869443
atom: Total number of Sankey-type orbitals:  9

atm_pop: Valence configuration (for local Pseudopot. screening):
 6s( 1.00)                                                            
 6p( 0.00)                                                            
 5d(10.00)                                                            
Vna: chval, zval:   11.00000  11.00000

Vna:  Cut-off radius for the neutral-atom potential:   7.246712

atom: _________________________________________________________________________

prinput: Basis input ----------------------------------------------------------

PAO.BasisType split     

%block ChemicalSpeciesLabel
    1   79 Au                      # Species index, atomic number, species label
%endblock ChemicalSpeciesLabel

%block PAO.Basis                 # Define Basis set
Au                    2                    # Species label, number of l-shells
 n=6   0   1 P   1                   # n, l, Nzeta, Polarization, NzetaPol
   7.247   
   1.000   
 n=5   2   1                         # n, l, Nzeta 
   5.107   
   1.000   
%endblock PAO.Basis

prinput: ----------------------------------------------------------------------

Dumping basis to NetCDF file Au.ion.nc
coor:   Atomic-coordinates input format  =     Cartesian coordinates
coor:                                          (in units of alat)

siesta: WARNING: XV file not found

siesta: Atomic coordinates (Bohr) and species
siesta:      0.00000   0.00000   0.00000  1        1
siesta:      2.76194   1.59461   4.51023  1        2
siesta:      2.76194  -1.59461   9.02046  1        3
siesta:      0.00000   0.00000  13.53069  1        4
siesta:      2.76194   1.59461  18.04092  1        5
siesta:      2.76194   1.59461  36.08183  1        6
siesta:      2.76194  -1.59461  40.59206  1        7
siesta:      0.00000   0.00000  45.10229  1        8
siesta:      2.76194   1.59461  49.61252  1        9
siesta:      2.76194  -1.59461  54.12275  1       10

siesta: System type = bulk      

initatomlists: Number of atoms, orbitals, and projectors:     10    90   160

coxmol: Writing XMOL coordinates into file au_111_capacitor.xyz                                                

siesta: ******************** Simulation parameters ****************************
siesta:
siesta: The following are some of the parameters of the simulation.
siesta: A complete list of the parameters used, including default values,
siesta: can be found in file out.fdf
siesta:
redata: Spin configuration                          = none
redata: Number of spin components                   = 1
redata: Time-Reversal Symmetry                      = T
redata: Spin-spiral                                 = F
redata: Long output                                 =   F
redata: Number of Atomic Species                    =        1
redata: Charge density info will appear in .RHO file
redata: Write Mulliken Pop.                         = Atomic and Orbital charges
redata: Mesh Cutoff                                 =   350.0000 Ry
redata: Net charge of the system                    =     0.0000 |e|
redata: Min. number of SCF Iter                     =        0
redata: Max. number of SCF Iter                     =      300
redata: SCF mix quantity                            = Hamiltonian
redata: Mix DM or H after convergence               =   F
redata: Recompute H after scf cycle                 =   F
redata: Mix DM in first SCF step                    =   T
redata: Write Pulay info on disk                    =   F
redata: Discard 1st Pulay DM after kick             =   F
redata: New DM Mixing Weight                        =     0.0300
redata: New DM Occupancy tolerance                  = 0.000000000001
redata: No kicks to SCF
redata: DM Mixing Weight for Kicks                  =     0.5000
redata: Require Harris convergence for SCF          =   F
redata: Harris energy tolerance for SCF             =     0.000100 eV
redata: Require DM convergence for SCF              =   T
redata: DM tolerance for SCF                        =     0.0001
redata: Require EDM convergence for SCF             =   F
redata: EDM tolerance for SCF                       =     0.001000 eV
redata: Require H convergence for SCF               =   T
redata: Hamiltonian tolerance for SCF               =     0.001000 eV
redata: Require (free) Energy convergence for SCF   =   F
redata: (free) Energy tolerance for SCF             =     0.000100 eV
redata: Using Saved Data (generic)                  =   F
redata: Use continuation files for DM               =   T
redata: Neglect nonoverlap interactions             =   F
redata: Method of Calculation                       = Transiesta
redata: Fix the spin of the system                  =   F
redata: Dynamics option                             = Single-point calculation
mix.SCF: Pulay mixing                            = Pulay
mix.SCF:    Variant                              = stable
mix.SCF:    History steps                        = 5
mix.SCF:    Linear mixing weight                 =     0.030000
mix.SCF:    Mixing weight                        =     0.030000
mix.SCF:    SVD condition                        = 0.1000E-07
redata: Save data in SIESTA.nc                      =   F
redata: ***********************************************************************

%block SCF.Mixers
  Pulay                   
%endblock SCF.Mixers

%block SCF.Mixer.Pulay
  # Mixing method
  method pulay
  variant stable

  # Mixing options
  weight 0.0300
  weight.linear 0.0300
  history 5
  restart 0
  restart.save 1

  # Continuation options
%endblock SCF.Mixer.Pulay

DM_history_depth set to one: no extrapolation allowed by default for geometry relaxation
Size of DM history Fstack: 1
Total number of electrons:   110.000000
Total ionic charge:   110.000000

* ProcessorY, Blocksize:    1  24


* Orbital distribution balance (max,min):    48    42

k-point displ. along   1 input, could be:     0.00    0.50
k-point displ. along   2 input, could be:     0.00    0.50
 Kpoints in:          960 . Kpoints trimmed:          960

siesta: k-grid: Number of k-points =   960
siesta: k-grid: Cutoff (effective) =    11.692 Ang
siesta: k-grid: Supercell and displacements
siesta: k-grid:    8   0   0      0.000
siesta: k-grid:    0   8   0      0.000
siesta: k-grid:    0   0  30      0.500

superc: Internal auxiliary supercell:     9 x     9 x     3  =     243
superc: Number of atoms, orbitals, and projectors:   2430  21870  38880

k-point displ. along   1 input, could be:     0.00    0.50
k-point displ. along   2 input, could be:     0.00    0.50
 Kpoints in:           40 . Kpoints trimmed:           37

transiesta: k-grid: Number of Green function k-points =    37
transiesta: k-grid: Supercell and displacements
transiesta: k-grid:    8   0   0      0.000
transiesta: k-grid:    0   8   0      0.000
transiesta: k-grid:    0   0   1      0.000

ts: **************************************************************
ts: Voltage                                         =    1.0000 Volts
ts: Save H and S matrices                           =    T
ts: Electronic temperature                          =   99.999269 K
ts: Transport along unit-cell vector                =    A3
ts: Transport along Cartesian vector                =    Z
ts: Fixing Hartree potential at electrode-plane     =    Right
ts: Fix Hartree potential fraction                  =    1.0000
ts: Solution method                                 =    BTD
ts: BTD pivoting method                             =    atom+Left
ts: BTD creation algorithm                          =    speed
ts: BTD spectral function algorithm                 =    propagation
ts: SCF.TS DM tolerance                             = 0.100E-03
ts: SCF.TS Hamiltonian tolerance                    = 0.735E-04
ts: Initialize DM by                                =    diagon
ts: Initial DM for electrodes                       =    this
ts: Hartree potential as linear ramp
ts: Hartree potential ramp across entire cell
ts: Thermal non-equilibrium in electrode distributio=s   F
ts: Non-equilibrium contour weight method           =    orb-orb
ts: Non-equilibrium contour weight k-method         =    Correlated k-points
ts: Will not correct charge fluctuations
ts: TS.SCF mixing options same as SCF
ts:           >> Electrodes << 
ts: >> Left
ts:   Electrode cell pivoting: E1, E2, E3           = A1, A2, A3
ts:   GF file                                       = au_111_capacitor.TSGFLeft
ts:   Reuse existing GF-file                        =    T
ts:   Electrode TSHS file                           = ./elec_au_111_abc.TSHS
ts:   # atoms used in electrode                     =    3
ts:   Electrode Bloch expansion [E1 x E2 x E3]      = 1 x 1 x 1
ts:   Position in geometry                          = 1 -- 3
ts:   Semi-infinite direction for electrode         = negative wrt. E3
ts:   Chemical shift                                =    0.499999 eV
ts:   Electronic temperature                        =   99.999269 K
ts:   Bulk values in electrode                      =    T
ts:   Cross-terms are not updated
ts:   Hamiltonian E-C Ef fractional shift           =    0.0000
ts:   Electrode self-energy imaginary Eta           =  0.1000E-03  eV
ts:   Electrode self-energy accuracy                =  0.1000E-13  eV
ts:   Electrode inter-layer distance (semi-inf)     =    2.3867  Ang
ts: >> Right
ts:   Electrode cell pivoting: E1, E2, E3           = A1, A2, A3
ts:   GF file                                       = au_111_capacitor.TSGFRight
ts:   Reuse existing GF-file                        =    T
ts:   Electrode TSHS file                           = ./elec_au_111_abc.TSHS
ts:   # atoms used in electrode                     =    3
ts:   Electrode Bloch expansion [E1 x E2 x E3]      = 1 x 1 x 1
ts:   Position in geometry                          = 8 -- 10
ts:   Semi-infinite direction for electrode         = positive wrt. E3
ts:   Chemical shift                                =   -0.499999 eV
ts:   Electronic temperature                        =   99.999269 K
ts:   Bulk values in electrode                      =    T
ts:   Cross-terms are not updated
ts:   Hamiltonian E-C Ef fractional shift           =    0.0000
ts:   Electrode self-energy imaginary Eta           =  0.1000E-03  eV
ts:   Electrode self-energy accuracy                =  0.1000E-13  eV
ts:   Electrode inter-layer distance (semi-inf)     =    2.3867  Ang
ts:  ----------------- Contour ----------------- 
ts:            >> Residual contour << 
ts: Pole chemical potential                         =    0.5000 eV
ts:    Chemical potential temperature               =   99.9993 K
ts:    Number of poles                              =   47
ts:    Top energy point                             =    2.5448 eV
ts: Pole chemical potential                         =   -0.5000 eV
ts:    Chemical potential temperature               =   99.9993 K
ts:    Number of poles                              =   47
ts:    Top energy point                             =    2.5448 eV
ts:          >> Equilibrium contour << 
ts: Contour name                                    =    TS.Contour.c-Left
ts:   circle contour E_min                          =  -39.5000 eV
ts:   circle contour E_max                          =    0.4138 eV
ts:   circle contour points                         =   30
ts:   circle contour method                         =    Gauss-Legendre
ts: Contour name                                    =    TS.Contour.t-Left
ts:   tail contour E_min                            =    0.4138 eV
ts:   tail contour E_max                            =     Infinity
ts:   tail contour points                           =   10
ts:   tail contour method                           =    Gauss-Fermi (0kT)
ts: Contour name                                    =    TS.Contour.c-Right
ts:   circle contour E_min                          =  -40.5000 eV
ts:   circle contour E_max                          =   -0.5862 eV
ts:   circle contour points                         =   30
ts:   circle contour method                         =    Gauss-Legendre
ts: Contour name                                    =    TS.Contour.t-Right
ts:   tail contour E_min                            =   -0.5862 eV
ts:   tail contour E_max                            =     Infinity
ts:   tail contour points                           =   10
ts:   tail contour method                           =    Gauss-Fermi (0kT)
ts:         >> non-Equilibrium contour << 
ts: Device Green function imaginary Eta             =  0.000     eV
ts: Fermi-function cut-off                          =  5.000     kT
ts: Contour name                                    =    TS.Contour.nEq.neq
ts:   line contour E_min                            =   -0.5431 eV
ts:   line contour E_max                            =    0.5431 eV
ts:   line contour points                           =  109
ts:   line contour method                           =    Mid-rule
ts: **************************************************************

************************ Begin: TS CHECKS AND WARNINGS ************************
Without loosing performance you can increase the non-equilibrium integration precision.
You can add 1 more energy points in the non-equilibrium contours, for FREE!
Electrode Left will not update cross-terms or local region.
Electrode Right will not update cross-terms or local region.
************************ End: TS CHECKS AND WARNINGS **************************

                  ****************************************
                   TRANSIESTA REPORTED IMPORTANT WARNINGS
                  ****************************************

>>> Transiesta block information for FDF-file START <<<

%block TS.ChemPots
  Left
  Right
%endblock TS.ChemPots

%block TS.ChemPot.Left
  mu  V/2
  contour.eq
   begin
    c-Left
    t-Left
   end
%endblock TS.ChemPot.Left
%block TS.ChemPot.Right
  mu  - V/2
  contour.eq
   begin
    c-Right
    t-Right
   end
%endblock TS.ChemPot.Right
%block TS.Contour.c-Left
  part circle
     from -40.00000 eV + V/2 to -10. kT + V/2
      points 30
        method g-legendre
%endblock TS.Contour.c-Left
%block TS.Contour.t-Left
  part tail
     from prev to + inf
      points 10
        method g-fermi
%endblock TS.Contour.t-Left
%block TS.Contour.c-Right
  part circle
     from -40.00000 eV - V/2 to -10. kT - V/2
      points 30
        method g-legendre
%endblock TS.Contour.c-Right
%block TS.Contour.t-Right
  part tail
     from prev to + inf
      points 10
        method g-fermi
%endblock TS.Contour.t-Right
%block TS.Contours.nEq
    neq
%endblock TS.Contours.nEq

%block TS.Contour.nEq.neq
  part line
     from - |V|/2 - 5 kT to |V|/2 + 5 kT
      delta 0.01 eV
        method mid-rule
%endblock TS.Contour.nEq.neq

>>> Transiesta block information for FDF-file END <<<


transiesta: Regions of atoms:
   ## (3): Elec.Left
     [ 1 -- 3 ]
   ## (3): Elec.Right
     [ 8 -- 10 ]
   -- (4): Device
     [ 4 -- 7 ]

  <sparsity:./elec_au_111_abc.TSHS
    nrows_g=27 nrows=27 sparsity=44.2757 nnzs=32277, refcount: 3>
 Left principal cell is extending out with 96 elements:
    Atom 1 connects with atom 3
    Orbital 8 connects with orbital 26
    Hamiltonian value: |H(8,6587)|@R=-2 =  0.651E-13 eV
    Overlap          :  S(8,6587)|@R=-2 =   0.00    
  <sparsity:(TM [--,--, 0] of: ./elec_au_111_abc.TSHS)
    nrows_g=27 nrows=27 sparsity=25.1152 nnzs=18309, refcount: 3>
  <sparsity:(TM [--,--,-1] of: ./elec_au_111_abc.TSHS)
    nrows_g=27 nrows=27 sparsity=9.4486 nnzs=6888, refcount: 3>

Calculating all surface Green functions for: Left
 Fermi level shift in electrode (chemical potential) :        0.50000  eV
 Atoms available    / used atoms   :      3 /      3
 Orbitals available / used orbitals:     27 /     27
 Total self-energy calculations: 10471
 Saving surface Green functions in: au_111_capacitor.TSGFLeft
 Estimated file size:    117.299 MB
 Lopez Sancho, Lopez Sancho & Rubio recursive surface self-energy calculation...
 Lopez Sancho, Lopez Sancho & Rubio: Mean/std iterations:     8.1694 /     6.0215
 Lopez Sancho, Lopez Sancho & Rubio: Min/Max iterations :          3 /         19
Done creating 'au_111_capacitor.TSGFLeft'.

  <sparsity:./elec_au_111_abc.TSHS
    nrows_g=27 nrows=27 sparsity=44.2757 nnzs=32277, refcount: 3>
 Right principal cell is extending out with 96 elements:
    Atom 3 connects with atom 1
    Orbital 26 connects with orbital 8
    Hamiltonian value: |H(26,4382)|@R=2 =  0.651E-13 eV
    Overlap          :  S(26,4382)|@R=2 =   0.00    
  <sparsity:(TM [--,--, 0] of: ./elec_au_111_abc.TSHS)
    nrows_g=27 nrows=27 sparsity=25.1152 nnzs=18309, refcount: 3>
  <sparsity:(TM [--,--, 1] of: ./elec_au_111_abc.TSHS)
    nrows_g=27 nrows=27 sparsity=9.4486 nnzs=6888, refcount: 3>

Calculating all surface Green functions for: Right
 Fermi level shift in electrode (chemical potential) :       -0.50000  eV
 Atoms available    / used atoms   :      3 /      3
 Orbitals available / used orbitals:     27 /     27
 Total self-energy calculations: 10471
 Saving surface Green functions in: au_111_capacitor.TSGFRight
 Estimated file size:    117.299 MB
 Lopez Sancho, Lopez Sancho & Rubio recursive surface self-energy calculation...
 Lopez Sancho, Lopez Sancho & Rubio: Mean/std iterations:     9.5278 /     6.5436
 Lopez Sancho, Lopez Sancho & Rubio: Min/Max iterations :          3 /         19
Done creating 'au_111_capacitor.TSGFRight'.


                     ====================================
                        Single-point calculation
                     ====================================

superc: Internal auxiliary supercell:     9 x     9 x     3  =     243
superc: Number of atoms, orbitals, and projectors:   2430  21870  38880

outcell: Unit cell vectors (Ang):
        2.923110    0.000000    0.000000
        1.461555    2.531488    0.000000
        0.000000    0.000000   31.027221

outcell: Cell vector modules (Ang)   :    2.923110    2.923110   31.027221
outcell: Cell angles (23,13,12) (deg):     90.0000     90.0000     60.0000
outcell: Cell volume (Ang**3)        :    229.5957
<dSpData1D:S at geom step 0
  <sparsity:sparsity for geom step 0
    nrows_g=90 nrows=48 sparsity=6.1917 nnzs=50153, refcount: 7>
  <dData1D:(new from dSpData1D) n=50153, refcount: 1>
refcount: 1>
New_DM. Step:     1
Initializing Density Matrix...
Attempting to read DM, EDM from TSDE file... Failed...
Attempting to read DM from file... Failed...
DM after filling with atomic data:
<dSpData2D:(DM initialized from atoms)
  <sparsity:sparsity for geom step 0
    nrows_g=90 nrows=48 sparsity=6.1917 nnzs=50153, refcount: 8>
  <dData2D:(DMatomic) n=50153 m=1, refcount: 1>
refcount: 1>

transiesta: Initialization run using siesta

New grid distribution:   1
           1       1:   15    1:   15    1:   90
           2       1:   15    1:   15   91:  180

InitMesh: MESH =    30 x    30 x   360 =      324000
InitMesh: (bp) =    15 x    15 x   180 =       40500
InitMesh: Mesh cutoff (required, used) =   350.000   372.067 Ry
ExtMesh (bp) on 0 =   107 x   107 x   182 =     2083718
New grid distribution:   2
           1       1:   15    1:   15    1:  115
           2       1:   15    1:   15  116:  180
New grid distribution:   3
           1       1:   15    1:   15    1:   96
           2       1:   15    1:   15   97:  180
Setting up quadratic distribution...
ExtMesh (bp) on 0 =   107 x   107 x   207 =     2369943
PhiOnMesh: Number of (b)points on node 0 =                25875
PhiOnMesh: nlist on node 0 =              1356796

ts: Using electrode: Right for Hartree correction
ts: Grid fraction plane  0.96154
ts: Grid point plane (Ang):       0.00000       0.00000      29.83387


ts_voltage: Bias  1.000 V
ts_voltage: Bias @bottom  0.500 V
ts_voltage: Direction vector = { 0.000, 0.000, 1.000}
ts_voltage: Ramp placed between the cell coordinates (Ang):
  {    0.000     0.000     0.000 } to {     0.000     0.000    31.027 }
ts-Vha: -0.11466E-05 eV

stepf: Fermi-Dirac step function
ts-Vha: -0.12177E+02 eV

siesta: Program's energy decomposition (eV):
siesta: Ebs     =        -5.590657
siesta: Eions   =     11712.249174
siesta: Ena     =       583.627911
siesta: Ekin    =      6217.756077
siesta: Enl     =     -2860.936222
siesta: Eso     =         0.000000
siesta: Eldau   =         0.000000
siesta: DEna    =       117.884060
siesta: DUscf   =        11.594536
siesta: DUext   =         0.000000
siesta: Exc     =     -1398.155535
siesta: eta*DQ  =         0.000000
siesta: Emadel  =         0.000000
siesta: Emeta   =         0.000000
siesta: Emolmec =         0.000000
siesta: Ekinion =         0.000000
siesta: Eharris =     -9025.331193
siesta: Etot    =     -9040.478347
siesta: FreeEng =     -9040.480015

        iscf     Eharris(eV)        E_KS(eV)     FreeEng(eV)     dDmax    Ef(eV) dHmax(eV)
   scf:    1    -9025.331193    -9040.478347    -9040.480015  0.240195 -2.583979 19.975582
timer: Routine,Calls,Time,% =    IterSCF     1      23.404  52.95
ts-Vha:  0.14972E+02 eV
   scf:    2    -9031.808376    -9040.469228    -9040.471058  0.050630 -2.391103 25.815664
ts-Vha:  0.39677E+01 eV
   scf:    3    -9044.305084    -9043.050153    -9043.052047  0.026032 -2.565092  9.664206
ts-Vha: -0.28366E+01 eV
   scf:    4    -9043.798419    -9043.734224    -9043.736083  0.020525 -2.734135  3.740717
ts-Vha:  0.45205E+01 eV
   scf:    5    -9043.717772    -9044.010434    -9044.012608  0.021226 -2.776441  9.515564
ts-Vha: -0.65222E+02 eV
   scf:    6    -8884.984553    -8993.631937    -8993.633779  0.145873 -4.685183106.975432
ts-Vha: -0.40126E+02 eV
   scf:    7    -9047.757244    -9024.329374    -9024.331233  0.069642 -3.353647 64.801555
ts-Vha: -0.39859E+02 eV
   scf:    8    -9028.602045    -9026.996320    -9026.998302  0.064050 -4.253987 62.506315
ts-Vha: -0.42038E+02 eV
   scf:    9    -9022.538972    -9024.800069    -9024.801939  0.007457 -4.266429 66.154927
ts-Vha: -0.51004E+02 eV
   scf:   10    -9004.288706    -9015.010215    -9015.012067  0.033774 -4.207803 80.010760
ts-Vha:  0.26768E+02 eV
   scf:   11    -8992.064964    -9037.552458    -9037.554154  0.221537 -3.498677 40.498690
ts-Vha:  0.14735E+02 eV
   scf:   12    -9047.164735    -9043.194202    -9043.197925  0.037641 -3.770466 22.251862
ts-Vha:  0.24354E+01 eV
   scf:   13    -9046.020046    -9045.474438    -9045.477612  0.034603 -3.916712  3.517853
ts-Vha: -0.26901E+01 eV
   scf:   14    -9045.005754    -9045.393875    -9045.396836  0.011856 -4.004526  4.899548
ts-Vha: -0.20775E+01 eV
   scf:   15    -9045.463081    -9045.430750    -9045.433572  0.003335 -4.035484  4.036806
ts-Vha: -0.27618E+00 eV
   scf:   16    -9045.552696    -9045.511901    -9045.514843  0.007432 -4.039988  1.352515
ts-Vha:  0.64672E+00 eV
   scf:   17    -9045.520493    -9045.532010    -9045.535837  0.016740 -3.878436  0.876522
ts-Vha:  0.37312E+00 eV
   scf:   18    -9045.545679    -9045.539505    -9045.543386  0.001840 -3.904465  0.424840
ts-Vha:  0.31891E+00 eV
   scf:   19    -9045.545885    -9045.542749    -9045.546646  0.000789 -3.918744  0.345175
ts-Vha:  0.25838E+00 eV
   scf:   20    -9045.559358    -9045.552893    -9045.556805  0.005065 -4.030737  0.114106
ts-Vha:  0.23695E+00 eV
   scf:   21    -9045.553765    -9045.553360    -9045.557276  0.000774 -4.035584  0.104689
ts-Vha:  0.24485E+00 eV
   scf:   22    -9045.554420    -9045.553919    -9045.557838  0.001108 -4.027899  0.060535
ts-Vha:  0.24024E+00 eV
   scf:   23    -9045.554977    -9045.554476    -9045.558393  0.001606 -4.023747  0.056427
ts-Vha:  0.23086E+00 eV
   scf:   24    -9045.555279    -9045.554993    -9045.558873  0.002767 -4.032775  0.032057
ts-Vha:  0.22590E+00 eV
   scf:   25    -9045.554980    -9045.554987    -9045.558865  0.000061 -4.033609  0.026019
ts-Vha:  0.22639E+00 eV
   scf:   26    -9045.555163    -9045.555083    -9045.558955  0.000537 -4.028764  0.026255
ts-Vha:  0.22702E+00 eV
   scf:   27    -9045.555069    -9045.555076    -9045.558949  0.000074 -4.029176  0.026683
ts-Vha:  0.22219E+00 eV
   scf:   28    -9045.555063    -9045.555070    -9045.558943  0.000086 -4.029849  0.020260
ts-Vha:  0.22303E+00 eV
   scf:   29    -9045.555066    -9045.555068    -9045.558940  0.000060 -4.030911  0.019861
ts-Vha:  0.22210E+00 eV
   scf:   30    -9045.555158    -9045.555115    -9045.558978  0.000425 -4.031059  0.014528
ts-Vha:  0.22365E+00 eV
   scf:   31    -9045.555183    -9045.555152    -9045.559000  0.000592 -4.033409  0.008440
ts-Vha:  0.22400E+00 eV
   scf:   32    -9045.555147    -9045.555150    -9045.558997  0.000074 -4.034808  0.007504
ts-Vha:  0.22323E+00 eV
   scf:   33    -9045.555149    -9045.555150    -9045.558998  0.000054 -4.035201  0.008411
ts-Vha:  0.21901E+00 eV
   scf:   34    -9045.555197    -9045.555175    -9045.559016  0.000398 -4.034016  0.005997
ts-Vha:  0.22285E+00 eV
   scf:   35    -9045.555164    -9045.555170    -9045.559014  0.000154 -4.033047  0.007138
ts-Vha:  0.22005E+00 eV
   scf:   36    -9045.555188    -9045.555180    -9045.559018  0.000275 -4.033233  0.001470
ts-Vha:  0.22021E+00 eV
   scf:   37    -9045.555180    -9045.555180    -9045.559018  0.000008 -4.033162  0.001273
ts-Vha:  0.22031E+00 eV
   scf:   38    -9045.555182    -9045.555181    -9045.559019  0.000021 -4.033363  0.001448
ts-Vha:  0.22011E+00 eV
   scf:   39    -9045.555186    -9045.555184    -9045.559019  0.000085 -4.034081  0.000728

SCF Convergence by DM+H criterion
max |DM_out - DM_in|         :     0.0000850481
max |H_out - H_in|      (eV) :     0.0007279927
SCF cycle converged after 39 iterations

                     ***************************
                     *  WELCOME TO TRANSIESTA  *
                     ***************************

ts-Vha:  0.22011E+00 eV

Created the TranSIESTA local update sparsity pattern:
  <sparsity:(M of: T T T sparsity for geom step 0)
    nrows_g=90 nrows=48 sparsity=.9267 nnzs=7506, refcount: 1>

Created the TranSIESTA H,S sparsity pattern:
  <sparsity:(M of: G ((UC of: T T T sparsity for geom step 0)))
    nrows_g=90 nrows=90 sparsity=.2632 nnzs=2132, refcount: 1>

Created the TranSIESTA global update sparsity pattern:
  <sparsity:G ((UC of: (M of: T T T sparsity for geom step 0)))
    nrows_g=90 nrows=90 sparsity=.0800 nnzs=648, refcount: 1>

WARNING: Random atom 6 has been added due to non-completeness of the connectivity graph.
WARNING: Expect sub-optimal BTD format.

transiesta: Determining an optimal tri-matrix using: atom+Left
transiesta: Established a near-optimal partition for the tri-diagonal matrix.
BTD partitions (2): 
  [ 45, 45 ]
transiesta: Matrix elements in tri / full: 8100 / 8100
transiesta: Electrode Left splitting Gamma 0 times.
transiesta: Electrode Right splitting Gamma 0 times.

transiesta: mem of electrodes (static):                     0.07MB
transiesta: mem of global update arrays (static):           0.10MB
transiesta: mem of master node sparse arrays:               0.34MB
transiesta: mem of tri-diagonal matrices:                   0.25MB
transiesta: Total memory usage:                             0.89MB

transiesta: Charge distribution, target =    110.00000
Total charge                  [Q]  :   110.00000
Device                        [D]  :    43.69740
Left                          [E1] :    32.69897
Left                 / device [C1] :     0.30825
Right                         [E2] :    32.69897
Right                / device [C2] :     0.30826
Other                         [O]  :     0.28815

ts-err-D: ij(   28,    28), M = 0.75444   , ew = 0.23352E-1, em = 0.46703E-1. avg_m = -.26357E-04
ts-err-E: ij(   28,    28), M = -3.3475   , ew = 0.37089E-2, em = 0.74179E-2. avg_m = -.31176E-05
ts-q:         D        E1        C1        E2        C2        dQ
ts-q:    43.579    32.699     0.308    32.699     0.308 -1.180E-1
ts-Vha:  0.16208E+01 eV

siesta: Program's energy decomposition (eV):
siesta: Ebs     =     -1031.629561
siesta: Eions   =     11712.249174
siesta: Ena     =       583.627911
siesta: Ekin    =      6358.870018
siesta: Enl     =     -2947.933740
siesta: Eso     =         0.000000
siesta: Eldau   =         0.000000
siesta: DEna    =        80.095978
siesta: DUscf   =         7.779564
siesta: DUext   =         0.000000
siesta: Exc     =     -1411.361182
siesta: eta*DQ  =         0.000000
siesta: Emadel  =         0.000000
siesta: Emeta   =         0.000000
siesta: Emolmec =         0.000000
siesta: Ekinion =         0.000000
siesta: Eharris =     -9032.742518
siesta: Etot    =     -9041.170625
siesta: FreeEng =     -9041.170625

        iscf     Eharris(eV)        E_KS(eV)     FreeEng(eV)     dDmax    Ef(eV) dHmax(eV)
ts-scf:    1    -9032.742518    -9041.170625    -9041.170625  0.086853 -4.034081 19.674805
timer: Routine,Calls,Time,% =         TS     1       6.676   0.77
ts-err-D: ij(   46,    46), M = 0.82062   , ew = 0.52434E-4, em = 0.10487E-3. avg_m = -.41985E-07
ts-err-E: ij(   28,    28), M = -3.0180   , ew = 0.13917E-4, em = 0.27834E-4. avg_m = -.46129E-08
ts-q:         D        E1        C1        E2        C2        dQ
ts-q:    43.725    32.699     0.308    32.699     0.308  2.761E-2
ts-Vha: -0.12621E+00 eV
ts-scf:    2    -9033.069642    -9043.128137    -9043.128137  0.146271 -4.034081 15.577317
ts-err-D: ij(   44,    44), M = 0.33186E-1, ew = 0.17775E-2, em = 0.35550E-2. avg_m = 0.93099E-05
ts-err-E: ij(   44,    44), M = -.95477E-1, ew = 0.80714E-3, em = 0.16143E-2. avg_m = 0.36955E-05
ts-q:         D        E1        C1        E2        C2        dQ
ts-q:    43.727    32.699     0.308    32.699     0.308  2.916E-2
ts-Vha: -0.27150E+00 eV
ts-scf:    3    -9044.131048    -9045.447360    -9045.447360  0.066387 -4.034081  3.622073
ts-err-D: ij(   53,    53), M = 0.30004E-1, ew = 0.17259E-2, em = 0.34518E-2. avg_m = 0.91275E-05
ts-err-E: ij(   44,    44), M = -.94654E-1, ew = 0.81167E-3, em = 0.16233E-2. avg_m = 0.37554E-05
ts-q:         D        E1        C1        E2        C2        dQ
ts-q:    43.701    32.699     0.308    32.699     0.308  3.113E-3
ts-Vha:  0.17564E+00 eV
ts-scf:    4    -9045.390002    -9045.431447    -9045.431447  0.008826 -4.034081  1.515722
ts-err-D: ij(   53,    53), M = 0.30516E-1, ew = 0.17397E-2, em = 0.34794E-2. avg_m = 0.50916E-05
ts-err-E: ij(   53,  3113), M = 0.36125E-3, ew = -.77356E-3, em = -.15471E-2. avg_m = 0.19808E-05
ts-q:         D        E1        C1        E2        C2        dQ
ts-q:    43.685    32.699     0.308    32.699     0.308 -1.260E-2
ts-Vha:  0.45346E+00 eV
ts-scf:    5    -9045.252495    -9045.384948    -9045.384948  0.010544 -4.034081  1.850133
ts-err-D: ij(   44,   314), M = 0.59499E-2, ew = -.38247E-2, em = -.76493E-2. avg_m = -.19454E-04
ts-err-E: ij(   44,   314), M = 0.40241E-2, ew = 0.18675E-2, em = -.37350E-2. avg_m = -.97332E-05
ts-q:         D        E1        C1        E2        C2        dQ
ts-q:    43.724    32.699     0.308    32.699     0.308  2.650E-2
ts-Vha: -0.44679E+00 eV
ts-scf:    6    -9045.428344    -9045.500494    -9045.500494  0.013047 -4.034081  3.011575
ts-err-D: ij(   53,    53), M = 0.30942E-1, ew = -.17475E-2, em = 0.34950E-2. avg_m = 0.60109E-05
ts-err-E: ij(   53,  3113), M = 0.36014E-3, ew = -.78992E-3, em = -.15798E-2. avg_m = 0.24871E-05
ts-q:         D        E1        C1        E2        C2        dQ
ts-q:    43.690    32.699     0.308    32.699     0.308 -6.995E-3
ts-Vha:  0.28116E+00 eV
ts-scf:    7    -9045.301242    -9045.424579    -9045.424579  0.006323 -4.034081  0.184283
ts-err-D: ij(   53,    53), M = 0.30877E-1, ew = 0.17449E-2, em = 0.34899E-2. avg_m = 0.68186E-05
ts-err-E: ij(   53,  3113), M = 0.36173E-3, ew = -.78698E-3, em = -.15740E-2. avg_m = 0.28610E-05
ts-q:         D        E1        C1        E2        C2        dQ
ts-q:    43.696    32.699     0.308    32.699     0.308 -1.120E-3
ts-Vha:  0.18554E+00 eV
ts-scf:    8    -9045.471014    -9045.447516    -9045.447516  0.001179 -4.034081  0.317994
ts-err-D: ij(   53,    53), M = 0.30883E-1, ew = 0.17463E-2, em = 0.34926E-2. avg_m = 0.70539E-05
ts-err-E: ij(   53,  5093), M = 0.36105E-3, ew = -.78827E-3, em = -.15765E-2. avg_m = 0.29702E-05
ts-q:         D        E1        C1        E2        C2        dQ
ts-q:    43.697    32.699     0.308    32.699     0.308  3.827E-5
ts-Vha:  0.16127E+00 eV
ts-scf:    9    -9045.454224    -9045.450952    -9045.450952  0.000394 -4.034081  0.417269
ts-err-D: ij(   53,    53), M = 0.30960E-1, ew = 0.17320E-2, em = 0.34640E-2. avg_m = 0.82183E-05
ts-err-E: ij(   53,  3113), M = 0.36197E-3, ew = -.79034E-3, em = -.15807E-2. avg_m = 0.35039E-05
ts-q:         D        E1        C1        E2        C2        dQ
ts-q:    43.704    32.699     0.308    32.699     0.308  6.937E-3
ts-Vha:  0.12735E-01 eV
ts-scf:   10    -9045.484004    -9045.468970    -9045.468970  0.002313 -4.034081  0.969330
ts-err-D: ij(   53,    53), M = 0.30956E-1, ew = 0.17420E-2, em = 0.34840E-2. avg_m = 0.70187E-05
ts-err-E: ij(   53,  3113), M = 0.35818E-3, ew = -.79359E-3, em = -.15872E-2. avg_m = 0.29381E-05
ts-q:         D        E1        C1        E2        C2        dQ
ts-q:    43.701    32.699     0.308    32.699     0.308  3.444E-3
ts-Vha:  0.77524E-01 eV
ts-scf:   11    -9045.449928    -9045.459328    -9045.459328  0.001102 -4.034081  0.710366
ts-err-D: ij(   53,    53), M = 0.30935E-1, ew = 0.17473E-2, em = 0.34946E-2. avg_m = 0.58764E-05
ts-err-E: ij(   53,  3113), M = 0.35769E-3, ew = -.79173E-3, em = -.15835E-2. avg_m = 0.24204E-05
ts-q:         D        E1        C1        E2        C2        dQ
ts-q:    43.690    32.699     0.308    32.699     0.308 -6.972E-3
ts-Vha:  0.29091E+00 eV
ts-scf:   12    -9045.387804    -9045.425405    -9045.425405  0.003029 -4.034081  0.074751
ts-err-D: ij(   53,    53), M = 0.30982E-1, ew = 0.17384E-2, em = 0.34769E-2. avg_m = 0.62783E-05
ts-err-E: ij(   53,  3113), M = 0.35740E-3, ew = -.79241E-3, em = -.15848E-2. avg_m = 0.26200E-05
ts-q:         D        E1        C1        E2        C2        dQ
ts-q:    43.693    32.699     0.308    32.699     0.308 -4.828E-3
ts-Vha:  0.24707E+00 eV
ts-scf:   13    -9045.439252    -9045.432269    -9045.432269  0.000578 -4.034081  0.062954
ts-err-D: ij(   53,    53), M = 0.30982E-1, ew = -.17357E-2, em = 0.34713E-2. avg_m = 0.60121E-05
ts-err-E: ij(   53,  3113), M = 0.35831E-3, ew = -.79152E-3, em = -.15830E-2. avg_m = 0.24948E-05
ts-q:         D        E1        C1        E2        C2        dQ
ts-q:    43.691    32.699     0.308    32.699     0.308 -6.010E-3
ts-Vha:  0.27452E+00 eV
ts-scf:   14    -9045.422889    -9045.427658    -9045.427658  0.000332 -4.034081  0.045262
ts-err-D: ij(   53,    53), M = 0.31050E-1, ew = 0.17331E-2, em = 0.34663E-2. avg_m = 0.58853E-05
ts-err-E: ij(   53,  3113), M = 0.35116E-3, ew = -.79728E-3, em = -.15946E-2. avg_m = 0.24407E-05
ts-q:         D        E1        C1        E2        C2        dQ
ts-q:    43.691    32.699     0.308    32.699     0.308 -6.403E-3
ts-Vha:  0.29159E+00 eV
ts-scf:   15    -9045.420371    -9045.423964    -9045.423964  0.000948 -4.034081  0.110963
ts-err-D: ij(   53,    53), M = 0.31034E-1, ew = -.17296E-2, em = 0.34591E-2. avg_m = 0.61977E-05
ts-err-E: ij(   53,  3113), M = 0.35352E-3, ew = -.79518E-3, em = -.15904E-2. avg_m = 0.25895E-05
ts-q:         D        E1        C1        E2        C2        dQ
ts-q:    43.692    32.699     0.308    32.699     0.308 -4.978E-3
ts-Vha:  0.26531E+00 eV
ts-scf:   16    -9045.434691    -9045.429281    -9045.429281  0.000395 -4.034081  0.024481
ts-err-D: ij(   53,    53), M = 0.31012E-1, ew = -.17213E-2, em = 0.34426E-2. avg_m = 0.62146E-05
ts-err-E: ij(   53,  3113), M = 0.35793E-3, ew = -.79080E-3, em = -.15816E-2. avg_m = 0.25986E-05
ts-q:         D        E1        C1        E2        C2        dQ
ts-q:    43.693    32.699     0.308    32.699     0.308 -4.685E-3
ts-Vha:  0.26361E+00 eV
ts-scf:   17    -9045.431756    -9045.430483    -9045.430483  0.000114 -4.034081  0.019245
ts-err-D: ij(   44,    44), M = 0.31602E-1, ew = 0.11282E-2, em = 0.22563E-2. avg_m = 0.56193E-05
ts-err-E: ij(   44,    44), M = -.94402E-1, ew = 0.55844E-3, em = 0.11169E-2. avg_m = 0.28320E-05
ts-q:         D        E1        C1        E2        C2        dQ
ts-q:    43.683    32.699     0.308    32.699     0.308 -1.399E-2
ts-Vha:  0.47203E+00 eV
ts-scf:   18    -9045.330917    -9045.384466    -9045.384466  0.001669 -4.034081  0.667627
ts-err-D: ij(   44,    44), M = 0.31602E-1, ew = 0.11278E-2, em = 0.22555E-2. avg_m = 0.52972E-05
ts-err-E: ij(   44,    44), M = -.94399E-1, ew = 0.55825E-3, em = 0.11165E-2. avg_m = 0.29777E-05
ts-q:         D        E1        C1        E2        C2        dQ
ts-q:    43.678    32.699     0.308    32.699     0.308 -1.951E-2
ts-Vha:  0.59272E+00 eV
ts-scf:   19    -9045.321227    -9045.355127    -9045.355127  0.000943 -4.034081  1.053903
ts-err-D: ij(   53,  3023), M = -.51280E-2, ew = -.44416E-2, em = -.88832E-2. avg_m = 0.40604E-05
ts-err-E: ij(   53,    53), M = -.12153   , ew = -.20359E-2, em = 0.40718E-2. avg_m = 0.35246E-05
ts-q:         D        E1        C1        E2        C2        dQ
ts-q:    43.657    32.699     0.308    32.699     0.308 -4.014E-2
ts-Vha:  0.10475E+01 eV
ts-scf:   20    -9045.076732    -9045.232742    -9045.232742  0.003580 -4.034081  2.513642
ts-err-D: ij(   53,    53), M = 0.31005E-1, ew = 0.17200E-2, em = 0.34399E-2. avg_m = 0.61334E-05
ts-err-E: ij(   53,  3113), M = 0.35694E-3, ew = -.79019E-3, em = -.15804E-2. avg_m = 0.25579E-05
ts-q:         D        E1        C1        E2        C2        dQ
ts-q:    43.694    32.699     0.308    32.699     0.308 -3.193E-3
ts-Vha:  0.24430E+00 eV
ts-scf:   21    -9045.623871    -9045.436671    -9045.436671  0.006184 -4.034081  0.050914
ts-err-D: ij(   53,    53), M = 0.31003E-1, ew = -.17161E-2, em = 0.34321E-2. avg_m = 0.61305E-05
ts-err-E: ij(   53,  3113), M = 0.35953E-3, ew = -.78822E-3, em = -.15764E-2. avg_m = 0.25586E-05
ts-q:         D        E1        C1        E2        C2        dQ
ts-q:    43.693    32.699     0.308    32.699     0.308 -4.000E-3
ts-Vha:  0.25528E+00 eV
ts-scf:   22    -9045.430038    -9045.433449    -9045.433449  0.000158 -4.034081  0.029446
ts-err-D: ij(   53,    53), M = 0.31043E-1, ew = 0.17336E-2, em = 0.34672E-2. avg_m = 0.61037E-05
ts-err-E: ij(   53,  3113), M = 0.34850E-3, ew = -.79790E-3, em = -.15958E-2. avg_m = 0.25413E-05
ts-q:         D        E1        C1        E2        C2        dQ
ts-q:    43.694    32.699     0.308    32.699     0.308 -3.399E-3
ts-Vha:  0.24435E+00 eV
ts-scf:   23    -9045.437904    -9045.435599    -9045.435599  0.000189 -4.034081  0.062067
ts-err-D: ij(   53,    53), M = 0.31046E-1, ew = -.17341E-2, em = 0.34682E-2. avg_m = 0.61043E-05
ts-err-E: ij(   53,  3113), M = 0.34793E-3, ew = -.79830E-3, em = -.15966E-2. avg_m = 0.25414E-05
ts-q:         D        E1        C1        E2        C2        dQ
ts-q:    43.694    32.699     0.308    32.699     0.308 -3.385E-3
ts-Vha:  0.24381E+00 eV
ts-scf:   24    -9045.435623    -9045.435608    -9045.435608  0.000025 -4.034081  0.063952
ts-err-D: ij(   53,    53), M = 0.31053E-1, ew = 0.17351E-2, em = 0.34702E-2. avg_m = 0.61104E-05
ts-err-E: ij(   53,  3113), M = 0.34626E-3, ew = -.79929E-3, em = -.15986E-2. avg_m = 0.25434E-05
ts-q:         D        E1        C1        E2        C2        dQ
ts-q:    43.694    32.699     0.308    32.699     0.308 -3.339E-3
ts-Vha:  0.24210E+00 eV
ts-scf:   25    -9045.435641    -9045.435615    -9045.435615  0.000102 -4.034081  0.069667
ts-err-D: ij(   53,  3023), M = -.25803E-1, ew = -.25116E-1, em = -.50233E-1. avg_m = -.29342E-05
ts-err-E: ij(   53,    53), M = -.11196   , ew = 0.11513E-1, em = 0.23026E-1. avg_m = 0.67326E-05
ts-q:         D        E1        C1        E2        C2        dQ
ts-q:    43.538    32.699     0.308    32.699     0.308 -1.592E-1
ts-Vha:  0.36739E+01 eV
ts-scf:   26    -9041.714751    -9044.146149    -9044.146149  0.026910 -4.034081 10.949605
ts-err-D: ij(   53,    53), M = 0.31055E-1, ew = -.17352E-2, em = 0.34704E-2. avg_m = 0.61102E-05
ts-err-E: ij(   53,  3113), M = 0.34594E-3, ew = -.79943E-3, em = -.15989E-2. avg_m = 0.25432E-05
ts-q:         D        E1        C1        E2        C2        dQ
ts-q:    43.694    32.699     0.308    32.699     0.308 -3.302E-3
ts-Vha:  0.24163E+00 eV
ts-scf:   27    -9046.227971    -9045.435737    -9045.435737  0.026911 -4.034081  0.070697
ts-err-D: ij(   53,    53), M = 0.31055E-1, ew = 0.17353E-2, em = 0.34706E-2. avg_m = 0.61106E-05
ts-err-E: ij(   53,  3113), M = 0.34576E-3, ew = -.79954E-3, em = -.15991E-2. avg_m = 0.25432E-05
ts-q:         D        E1        C1        E2        C2        dQ
ts-q:    43.694    32.699     0.308    32.699     0.308 -3.296E-3
ts-Vha:  0.24161E+00 eV
ts-scf:   28    -9045.435769    -9045.435753    -9045.435753  0.000014 -4.034081  0.070477
ts-err-D: ij(   53,    53), M = 0.31056E-1, ew = 0.17354E-2, em = 0.34708E-2. avg_m = 0.61128E-05
ts-err-E: ij(   53,  3113), M = 0.34557E-3, ew = -.79968E-3, em = -.15994E-2. avg_m = 0.25443E-05
ts-q:         D        E1        C1        E2        C2        dQ
ts-q:    43.694    32.699     0.308    32.699     0.308 -3.319E-3
ts-Vha:  0.24206E+00 eV
ts-scf:   29    -9045.435550    -9045.435656    -9045.435656  0.000020 -4.034081  0.068797
ts-err-D: ij(   53,    53), M = 0.31059E-1, ew = 0.17355E-2, em = 0.34711E-2. avg_m = 0.61223E-05
ts-err-E: ij(   53,  3113), M = 0.34501E-3, ew = -.79999E-3, em = -.16000E-2. avg_m = 0.25485E-05
ts-q:         D        E1        C1        E2        C2        dQ
ts-q:    43.694    32.699     0.308    32.699     0.308 -3.384E-3
ts-Vha:  0.24337E+00 eV
ts-scf:   30    -9045.435031    -9045.435356    -9045.435356  0.000070 -4.034081  0.063424
ts-err-D: ij(   53,    53), M = 0.31059E-1, ew = 0.17355E-2, em = 0.34711E-2. avg_m = 0.61245E-05
ts-err-E: ij(   53,  3113), M = 0.34503E-3, ew = -.79998E-3, em = -.16000E-2. avg_m = 0.25495E-05
ts-q:         D        E1        C1        E2        C2        dQ
ts-q:    43.694    32.699     0.308    32.699     0.308 -3.419E-3
ts-Vha:  0.24401E+00 eV
ts-scf:   31    -9045.435071    -9045.435219    -9045.435219  0.000009 -4.034081  0.061324
ts-err-D: ij(   53,    53), M = 0.31070E-1, ew = 0.17348E-2, em = 0.34697E-2. avg_m = 0.62057E-05
ts-err-E: ij(   53,  3113), M = 0.34234E-3, ew = -.80116E-3, em = -.16023E-2. avg_m = 0.25857E-05
ts-q:         D        E1        C1        E2        C2        dQ
ts-q:    43.693    32.699     0.308    32.699     0.308 -4.219E-3
ts-Vha:  0.26099E+00 eV
ts-scf:   32    -9045.427921    -9045.431736    -9045.431736  0.000587 -4.034081  0.005063
ts-err-D: ij(   53,    53), M = 0.31055E-1, ew = 0.17353E-2, em = 0.34706E-2. avg_m = 0.61809E-05
ts-err-E: ij(   53,  3113), M = 0.34455E-3, ew = -.80021E-3, em = -.16004E-2. avg_m = 0.25743E-05
ts-q:         D        E1        C1        E2        C2        dQ
ts-q:    43.693    32.699     0.308    32.699     0.308 -4.197E-3
ts-Vha:  0.26118E+00 eV
ts-scf:   33    -9045.432267    -9045.431992    -9045.431992  0.000209 -4.034081  0.004610
ts-err-D: ij(   53,    53), M = 0.31055E-1, ew = 0.17355E-2, em = 0.34709E-2. avg_m = 0.61719E-05
ts-err-E: ij(   53,  3113), M = 0.34502E-3, ew = -.80010E-3, em = -.16002E-2. avg_m = 0.25707E-05
ts-q:         D        E1        C1        E2        C2        dQ
ts-q:    43.693    32.699     0.308    32.699     0.308 -4.196E-3
ts-Vha:  0.26036E+00 eV
ts-scf:   34    -9045.432167    -9045.432074    -9045.432074  0.000098 -4.034081  0.008040
ts-err-D: ij(   53,    53), M = 0.31059E-1, ew = -.17354E-2, em = 0.34708E-2. avg_m = 0.61814E-05
ts-err-E: ij(   53,  3113), M = 0.34420E-3, ew = -.80047E-3, em = -.16009E-2. avg_m = 0.25747E-05
ts-q:         D        E1        C1        E2        C2        dQ
ts-q:    43.693    32.699     0.308    32.699     0.308 -4.206E-3
ts-Vha:  0.26119E+00 eV
ts-scf:   35    -9045.431827    -9045.431959    -9045.431959  0.000105 -4.034081  0.004441
ts-err-D: ij(   53,    53), M = 0.31059E-1, ew = -.17354E-2, em = 0.34708E-2. avg_m = 0.61823E-05
ts-err-E: ij(   53,  3113), M = 0.34416E-3, ew = -.80048E-3, em = -.16010E-2. avg_m = 0.25751E-05
ts-q:         D        E1        C1        E2        C2        dQ
ts-q:    43.693    32.699     0.308    32.699     0.308 -4.207E-3
ts-Vha:  0.26119E+00 eV
ts-scf:   36    -9045.431942    -9045.431951    -9045.431951  0.000004 -4.034081  0.004446
ts-err-D: ij(   53,    53), M = 0.31059E-1, ew = -.17355E-2, em = 0.34711E-2. avg_m = 0.61772E-05
ts-err-E: ij(   53,  3113), M = 0.34430E-3, ew = -.80051E-3, em = -.16010E-2. avg_m = 0.25730E-05
ts-q:         D        E1        C1        E2        C2        dQ
ts-q:    43.693    32.699     0.308    32.699     0.308 -4.212E-3
ts-Vha:  0.26141E+00 eV
ts-scf:   37    -9045.431924    -9045.431937    -9045.431937  0.000047 -4.034081  0.004042
ts-err-D: ij(   53,    53), M = 0.31059E-1, ew = -.17355E-2, em = 0.34709E-2. avg_m = 0.61752E-05
ts-err-E: ij(   53,  3113), M = 0.34415E-3, ew = -.80053E-3, em = -.16011E-2. avg_m = 0.25719E-05
ts-q:         D        E1        C1        E2        C2        dQ
ts-q:    43.693    32.699     0.308    32.699     0.308 -4.218E-3
ts-Vha:  0.26157E+00 eV
ts-scf:   38    -9045.431886    -9045.431913    -9045.431913  0.000037 -4.034081  0.004038
ts-err-D: ij(   53,    53), M = 0.31056E-1, ew = 0.17353E-2, em = 0.34707E-2. avg_m = 0.61719E-05
ts-err-E: ij(   53,  3113), M = 0.34434E-3, ew = -.80033E-3, em = -.16007E-2. avg_m = 0.25701E-05
ts-q:         D        E1        C1        E2        C2        dQ
ts-q:    43.693    32.699     0.308    32.699     0.308 -4.203E-3
ts-Vha:  0.26159E+00 eV
ts-scf:   39    -9045.432064    -9045.431988    -9045.431988  0.000029 -4.034081  0.003851
ts-err-D: ij(   53,    53), M = 0.31057E-1, ew = -.17353E-2, em = 0.34707E-2. avg_m = 0.61759E-05
ts-err-E: ij(   53,  3113), M = 0.34420E-3, ew = -.80039E-3, em = -.16008E-2. avg_m = 0.25720E-05
ts-q:         D        E1        C1        E2        C2        dQ
ts-q:    43.693    32.699     0.308    32.699     0.308 -4.225E-3
ts-Vha:  0.26162E+00 eV
ts-scf:   40    -9045.431756    -9045.431878    -9045.431878  0.000019 -4.034081  0.003074
ts-err-D: ij(   53,    53), M = 0.31061E-1, ew = -.17354E-2, em = 0.34709E-2. avg_m = 0.61779E-05
ts-err-E: ij(   53,  3113), M = 0.34405E-3, ew = -.80057E-3, em = -.16011E-2. avg_m = 0.25732E-05
ts-q:         D        E1        C1        E2        C2        dQ
ts-q:    43.693    32.699     0.308    32.699     0.308 -4.235E-3
ts-Vha:  0.26151E+00 eV
ts-scf:   41    -9045.431755    -9045.431813    -9045.431813  0.000042 -4.034081  0.004566
ts-err-D: ij(   53,    53), M = 0.31059E-1, ew = -.17354E-2, em = 0.34707E-2. avg_m = 0.61766E-05
ts-err-E: ij(   53,  3113), M = 0.34429E-3, ew = -.80040E-3, em = -.16008E-2. avg_m = 0.25724E-05
ts-q:         D        E1        C1        E2        C2        dQ
ts-q:    43.693    32.699     0.308    32.699     0.308 -4.272E-3
ts-Vha:  0.26175E+00 eV
ts-scf:   42    -9045.431415    -9045.431619    -9045.431619  0.000019 -4.034081  0.004054
ts-err-D: ij(   53,    53), M = 0.31048E-1, ew = 0.17348E-2, em = 0.34696E-2. avg_m = 0.61595E-05
ts-err-E: ij(   53,  3113), M = 0.34556E-3, ew = -.79948E-3, em = -.15990E-2. avg_m = 0.25639E-05
ts-q:         D        E1        C1        E2        C2        dQ
ts-q:    43.693    32.699     0.308    32.699     0.308 -4.236E-3
ts-Vha:  0.26173E+00 eV
ts-scf:   43    -9045.431923    -9045.431768    -9045.431768  0.000104 -4.034081  0.003324
ts-err-D: ij(   53,    53), M = 0.31049E-1, ew = 0.17348E-2, em = 0.34696E-2. avg_m = 0.61590E-05
ts-err-E: ij(   53,  3113), M = 0.34553E-3, ew = -.79949E-3, em = -.15990E-2. avg_m = 0.25637E-05
ts-q:         D        E1        C1        E2        C2        dQ
ts-q:    43.693    32.699     0.308    32.699     0.308 -4.261E-3
ts-Vha:  0.26194E+00 eV
ts-scf:   44    -9045.431521    -9045.431648    -9045.431648  0.000008 -4.034081  0.003077
ts-err-D: ij(   53,    53), M = 0.31050E-1, ew = 0.17349E-2, em = 0.34697E-2. avg_m = 0.61595E-05
ts-err-E: ij(   53,  3113), M = 0.34546E-3, ew = -.79956E-3, em = -.15991E-2. avg_m = 0.25639E-05
ts-q:         D        E1        C1        E2        C2        dQ
ts-q:    43.693    32.699     0.308    32.699     0.308 -4.265E-3
ts-Vha:  0.26194E+00 eV
ts-scf:   45    -9045.431602    -9045.431626    -9045.431626  0.000005 -4.034081  0.003123
ts-err-D: ij(   53,    53), M = 0.31048E-1, ew = 0.17347E-2, em = 0.34694E-2. avg_m = 0.61492E-05
ts-err-E: ij(   53,  3113), M = 0.34591E-3, ew = -.79929E-3, em = -.15986E-2. avg_m = 0.25592E-05
ts-q:         D        E1        C1        E2        C2        dQ
ts-q:    43.693    32.699     0.308    32.699     0.308 -4.277E-3
ts-Vha:  0.26204E+00 eV
ts-scf:   46    -9045.431427    -9045.431530    -9045.431530  0.000047 -4.034081  0.002355
ts-err-D: ij(   53,    53), M = 0.31048E-1, ew = 0.17347E-2, em = 0.34695E-2. avg_m = 0.61518E-05
ts-err-E: ij(   53,  3113), M = 0.34582E-3, ew = -.79935E-3, em = -.15987E-2. avg_m = 0.25604E-05
ts-q:         D        E1        C1        E2        C2        dQ
ts-q:    43.693    32.699     0.308    32.699     0.308 -4.250E-3
ts-Vha:  0.26185E+00 eV
ts-scf:   47    -9045.431831    -9045.431675    -9045.431675  0.000014 -4.034081  0.003122
ts-err-D: ij(   53,    53), M = 0.31040E-1, ew = -.17335E-2, em = 0.34670E-2. avg_m = 0.61205E-05
ts-err-E: ij(   53,  3113), M = 0.34770E-3, ew = -.79813E-3, em = -.15963E-2. avg_m = 0.25463E-05
ts-q:         D        E1        C1        E2        C2        dQ
ts-q:    43.693    32.699     0.308    32.699     0.308 -4.267E-3
ts-Vha:  0.26217E+00 eV
ts-scf:   48    -9045.431282    -9045.431484    -9045.431484  0.000155 -4.034081  0.002100
ts-err-D: ij(   53,    53), M = 0.31027E-1, ew = 0.17299E-2, em = 0.34598E-2. avg_m = 0.60966E-05
ts-err-E: ij(   53,  3113), M = 0.35093E-3, ew = -.79564E-3, em = -.15913E-2. avg_m = 0.25363E-05
ts-q:         D        E1        C1        E2        C2        dQ
ts-q:    43.693    32.699     0.308    32.699     0.308 -4.261E-3
ts-Vha:  0.26235E+00 eV
ts-scf:   49    -9045.431336    -9045.431408    -9045.431408  0.000168 -4.034081  0.001719
ts-err-D: ij(   53,    53), M = 0.31027E-1, ew = 0.17302E-2, em = 0.34603E-2. avg_m = 0.61057E-05
ts-err-E: ij(   53,  3113), M = 0.35069E-3, ew = -.79580E-3, em = -.15916E-2. avg_m = 0.25404E-05
ts-q:         D        E1        C1        E2        C2        dQ
ts-q:    43.693    32.699     0.308    32.699     0.308 -4.262E-3
ts-Vha:  0.26225E+00 eV
ts-scf:   50    -9045.431453    -9045.431428    -9045.431428  0.000028 -4.034081  0.001193
ts-err-D: ij(   53,    53), M = 0.31025E-1, ew = 0.17293E-2, em = 0.34587E-2. avg_m = 0.61032E-05
ts-err-E: ij(   53,  3113), M = 0.35129E-3, ew = -.79530E-3, em = -.15906E-2. avg_m = 0.25395E-05
ts-q:         D        E1        C1        E2        C2        dQ
ts-q:    43.693    32.699     0.308    32.699     0.308 -4.286E-3
ts-Vha:  0.26251E+00 eV
ts-scf:   51    -9045.431181    -9045.431308    -9045.431308  0.000023 -4.034081  0.001069
ts-err-D: ij(   53,    53), M = 0.31026E-1, ew = 0.17297E-2, em = 0.34594E-2. avg_m = 0.61065E-05
ts-err-E: ij(   53,  3113), M = 0.35105E-3, ew = -.79551E-3, em = -.15910E-2. avg_m = 0.25410E-05
ts-q:         D        E1        C1        E2        C2        dQ
ts-q:    43.693    32.699     0.308    32.699     0.308 -4.268E-3
ts-Vha:  0.26224E+00 eV
ts-scf:   52    -9045.431501    -9045.431402    -9045.431402  0.000010 -4.034081  0.000813

SCF Convergence by DM+H criterion
max |DM_out - DM_in|         :     0.0000097775
max |H_out - H_in|      (eV) :     0.0008127480
SCF cycle converged after 52 iterations

Using DM_out to compute the final energy and forces
ts-Vha:  0.26224E+00 eV

siesta: E_KS(eV) =            -9045.4314

siesta: E_KS - E_eggbox =     -9045.4314

siesta: Atomic forces (eV/Ang):
----------------------------------------
   Tot   -0.000000   -0.000000    0.168086
----------------------------------------
   Max    0.245166
   Res    0.063373    sqrt( Sum f_i^2 / 3N )
----------------------------------------
   Max    0.245166    constrained

Stress-tensor-Voigt (kbar):       40.80       40.80       28.94        0.00       -0.00       -0.00
(Free)E + p*V (eV/cell)    -9050.7112
Target enthalpy (eV/cell)    -9045.4314

mulliken: Atomic and Orbital Populations:

Species: Au                  
Atom  Qatom  Qorb
               6s      5dxy    5dyz    5dz2    5dxz    5dx2-y2 6Ppy    6Ppz    
               6Ppx    
   1 11.002   1.005   1.907   1.918   1.892   1.918   1.907   0.152   0.150
              0.152
   2 10.996   0.996   1.906   1.923   1.889   1.923   1.906   0.151   0.153
              0.151
   3 10.999   1.003   1.909   1.918   1.890   1.918   1.909   0.153   0.147
              0.153
   4 10.975   0.987   1.907   1.927   1.888   1.927   1.907   0.147   0.137
              0.147
   5 11.031   1.060   1.890   1.938   1.926   1.938   1.890   0.139   0.112
              0.139
   6 11.021   1.055   1.890   1.938   1.925   1.938   1.890   0.138   0.111
              0.138
   7 10.974   0.985   1.907   1.928   1.887   1.928   1.907   0.147   0.138
              0.147
   8 10.999   1.003   1.909   1.918   1.890   1.918   1.909   0.153   0.147
              0.153
   9 10.996   0.996   1.906   1.923   1.889   1.923   1.906   0.151   0.153
              0.151
  10 11.002   1.005   1.907   1.918   1.892   1.918   1.907   0.152   0.150
              0.152

mulliken: Qtot =      109.996

coxmol: Writing XMOL coordinates into file au_111_capacitor.xyz                                                

siesta: Program's energy decomposition (eV):
siesta: Ebs     =      -896.844156
siesta: Eions   =     11712.249174
siesta: Ena     =       583.627911
siesta: Ekin    =      6365.806413
siesta: Enl     =     -2950.832988
siesta: Eso     =         0.000000
siesta: Eldau   =         0.000000
siesta: DEna    =        77.675922
siesta: DUscf   =         3.825033
siesta: DUext   =         0.000000
siesta: Exc     =     -1413.284518
siesta: eta*DQ  =         0.000000
siesta: Emadel  =         0.000000
siesta: Emeta   =         0.000000
siesta: Emolmec =         0.000000
siesta: Ekinion =         0.000000
siesta: Eharris =     -9045.431501
siesta: Etot    =     -9045.431402
siesta: FreeEng =     -9045.431402

siesta: Final energy (eV):
siesta:  Band Struct. =    -896.844156
siesta:       Kinetic =    6365.806413
siesta:       Hartree =   21548.750603
siesta:       Eldau   =       0.000000
siesta:       Eso     =       0.000000
siesta:    Ext. field =       0.000000
siesta:   Exch.-corr. =   -1413.284518
siesta:  Ion-electron =  -48509.640639
siesta:       Ion-ion =   12962.936739
siesta:       Ekinion =       0.000000
siesta:         Total =   -9045.431402
siesta:         Fermi =      -4.034081

siesta: Atomic forces (eV/Ang):
siesta:      1    0.000000   -0.000000    0.148264
siesta:      2   -0.000000   -0.000000    0.007453
siesta:      3    0.000000    0.000000    0.014848
siesta:      4    0.000000    0.000000   -0.184525
siesta:      5   -0.000000   -0.000001   -0.036481
siesta:      6   -0.000000    0.000000    0.028299
siesta:      7    0.000000    0.000000    0.245166
siesta:      8   -0.000000   -0.000000   -0.020868
siesta:      9    0.000000   -0.000000    0.004436
siesta:     10   -0.000000    0.000000   -0.038506
siesta: ----------------------------------------
siesta:    Tot   -0.000000   -0.000000    0.168086

siesta: Stress tensor (static) (eV/Ang**3):
siesta:     0.025463   -0.000000    0.000000
siesta:     0.000000    0.025463    0.000000
siesta:    -0.000000   -0.000000    0.018063

siesta: Cell volume =        229.595743 Ang**3

siesta: Pressure (static):
siesta:                Solid            Molecule  Units
siesta:          -0.00025046         -0.00025574  Ry/Bohr**3
siesta:          -0.02299626         -0.02348160  eV/Ang**3
siesta:         -36.84446825        -37.62207208  kBar
(Free)E+ p_basis*V_orbitals  =       -9038.502166
(Free)Eharris+ p_basis*V_orbitals  =       -9038.502265
ts-Vha:  0.26224E+00 eV

dhscf: Vacuum level (max, mean) =    1.160228    0.989655 eV
>> End of run:  18-AUG-2016  22:27:45
