
                           ***********************       
                           *  WELCOME TO SIESTA  *       
                           ***********************       

reinit: Reading from standard input
reinit: Dumped input in INPUT_TMP.09627
************************** Dump of input data file ****************************
SystemName  bulk_au_111
SystemLabel bulk_au_111
==================================================
==================================================
# SPECIES AND BASIS
# Number of species
NumberOfSpecies 1
%block ChemicalSpeciesLabel
  1  79 Au
%endblock ChemicalSpeciesLabel
PAO.BasisSize    SZP
PAO.EnergyShift  0.005 Ry
==================================================
==================================================
# K-points
%block kgrid_Monkhorst_Pack
8   0   0   0.0
0   8   0   0.0
0   0   60  0.5
%endblock kgrid_Monkhorst_Pack
==================================================
==================================================
# UNIT CELL AND ATOMIC POSITIONS
# UNIT CELL
LatticeConstant       2.92311 Ang
%block LatticeVectors
1.000000000   0.00000000000   0.0000000000
0.500000000   0.86602540378   0.0000000000
0.000000000   0.00000000000   2.4494897428
%endblock LatticeVectors
# Atomic coordinates
NumberOfAtoms 3
AtomicCoordinatesFormat ScaledCartesian
%block AtomicCoordinatesAndAtomicSpecies
       0.000000000       0.000000000       0.000000000    1
       0.500000000       0.288675135       0.816496581    1
       0.500000000      -0.288675135       1.632993162    1
%endblock AtomicCoordinatesAndAtomicSpecies
%block SuperCell
1 0 0
0 1 0
0 0 3
%endblock SuperCell
==================================================
==================================================
# General variables
ElectronicTemperature  100 K
MeshCutoff           350. Ry
xc.functional         LDA           # Exchange-correlation functional
xc.authors            CA
SpinPolarized .false.
SolutionMethod Transiesta
==================================================
==================================================
# SCF variables
DM.MixSCF1   T
MaxSCFIterations      300           # Maximum number of SCF iter
DM.MixingWeight       0.03          # New DM amount for next SCF cycle
DM.Tolerance          1.d-4         # Tolerance in maximum difference
DM.UseSaveDM          true          # to use continuation files
DM.NumberPulay         5
Diag.DivideAndConquer  no
Diag.ParallelOverK     yes
==================================================
==================================================
# MD variables
MD.FinalTimeStep 1
MD.TypeOfRun CG
MD.NumCGsteps     000
MD.UseSaveXV      .true.
==================================================
==================================================
# Output variables
WriteMullikenPop                1
WriteBands                      .false.
SaveRho                         .false.
SaveDeltaRho                    .false.
SaveHS                          .false.
SaveElectrostaticPotential      True
SaveTotalPotential              no
WriteCoorXmol                   .true.
WriteMDXmol                     .true.
WriteMDhistory                  .false.
WriteEigenvalues                yes
==================================================
==================================================
TS.Voltage    0.00000 eV
%block TS.ChemPots
  Left
  Right
%endblock TS.ChemPots
%block TS.ChemPot.Left
  mu V/2
  contour.eq
    begin
      c-Left
      t-Left
    end
%endblock TS.ChemPot.Left
%block TS.ChemPot.Right
  mu -V/2
  contour.eq
    begin
      c-Right
      t-Right
    end
%endblock TS.ChemPot.Right
TS.Elecs.Bulk true
TS.Elecs.DM.Update none
# This is for testing purposes!
# DO NOT USE IF YOU DO NOT UNDERSTAND!
TS.Elecs.Neglect.Principal true
TS.Elecs.GF.ReUse true
%block TS.Elecs
  Left
  Right
%endblock TS.Elecs
%block TS.Elec.Left
  TSHS ./elec_au_111_abc.TSHS
  chem-pot Left
  semi-inf-dir -a3
  elec-pos begin 1
%endblock TS.Elec.Left
%block TS.Elec.Right
  TSHS ./elec_au_111_abc.TSHS
  chem-pot Right
  semi-inf-dir +a3
  elec-pos end -1
%endblock TS.Elec.Right
TS.Contours.Eq.Pole    2.50000 eV
%block TS.Contour.c-Left
  part circle
   from  -40.00000 eV + V/2 to -10. kT + V/2
    points 30
     method g-legendre
%endblock TS.Contour.c-Left
%block TS.Contour.t-Left
  part tail
   from prev to inf
    points 10
     method g-fermi
%endblock TS.Contour.t-Left
%block TS.Contour.c-Right
  part circle
   from  -40.00000 eV - V/2 to -10. kT - V/2
    points 30
     method g-legendre
%endblock TS.Contour.c-Right
%block TS.Contour.t-Right
  part tail
   from prev to inf
    points 10
     method g-fermi
%endblock TS.Contour.t-Right
TS.Elecs.Eta    0.0001000000 eV
%block TS.Contours.nEq
  neq
%endblock TS.Contours.nEq
%block TS.Contour.nEq.neq
  part line
   from -|V|/2 - 5 kT to |V|/2 + 5 kT
    delta 0.01 eV
     method mid-rule
%endblock TS.Contour.nEq.neq
# TBtrans options
TBT.Elecs.Eta    0.0001 eV
%block TBT.Contours
  neq
%endblock TBT.Contours
%block TBT.Contour.neq
  part line
   from   -0.50000 eV to    0.50000 eV
    delta    0.01000 eV
     method mid-rule
%endblock TBT.Contour.neq
************************** End of input data file *****************************

reinit: -----------------------------------------------------------------------
reinit: System Name: bulk_au_111
reinit: -----------------------------------------------------------------------
reinit: System Label: bulk_au_111
reinit: -----------------------------------------------------------------------
Siesta Version: siesta-4.1--731
Architecture  : x86_64-linux-n-62-18-14
Compiler flags: mpifort -m64 -fPIC -O3 -march=native -ftree-vectorize -fexpensive-optimizatioons -funroll-loops -fprefetch-loop-arrays -fno-second-underscore  -flto -fuse-linker-plugin
PP flags      : -I/zdata/groups/common/nicpa/2016-oct/generic/build-tools/1.0/include -I/zdatta/groups/common/nicpa/2016-oct/generic/gmp/6.1.0/include -I/zdata/groups/common/nicpa/2016-oct/generic/mpfr/3.1.4/include -I/zdata/groups/common/nicpa/2016-oct/generic/mpc/1.0.3/include -I/zdata/groups/common/nicpa/2016-oct/generic/isl/0.16.1/include -I/zdata/groups/common/nicpa/2016-oct/generic/gcc/6.2.0/include -I/zdata/groups/common/nicpa/2016-oct/generic/numactl/2.0.11/include -I/zdata/groups/common/nicpa/2016-oct/XeonE5-2665/zlib/1.2.8/gnu-6.2.0/include -I/zdata/groups/common/nicpa/2016-oct/XeonE5-2665/libxml2/2.9.4/gnu-6.2.0/include -I/zdata/groups/common/nicpa/2016-oct/XeonE5-2665/hwloc/1.11.4/gnu-6.2.0/include -I/zdata/groups/common/nicpa/2016-oct/XeonE5-2665/openmpi/2.0.1/gnu-6.2.0/include -I/zdata/groups/common/nicpa/2016-oct/XeonE5-2665/hdf5/1.8.17/gnu-6.2.0/include -I/zdata/groups/common/nicpa/2016-oct/XeonE5-2665/pnetcdf/1.7.0/gnu-6.2.0/include -I/zdata/groups/common/nicpa/2016-oct/XeonE5-2665/netcdf/4.4.1/gnu-6.2.0/include -I/zdata/groups/common/nicpa/2016-oct/XeonE5-2665/flook/0.7.0/gnu-6.2.0/include -I/zdata/groups/common/nicpa/2016-oct/XeonE5-2665/parmetis/4.0.3/gnu-6.2.0/include -I/zdata/groups/common/nicpa/2016-oct/XeonE5-2665/scalapack/204/gnu-6.2.0/include -I/zdata/groups/common/nicpa/2016-oct/XeonE5-2665/openblas/0.2.19/gnu-6.2.0/include -I/zdata/groups/common/nicpa/2016-oct/XeonE5-2665/mumps/5.0.2/gnu-6.2.0/include -I/zdata/groups/common/nicpa/2016-oct/XeonE5-2665/fftw/3.3.5/gnu-6.2.0/include -DMPI -DFC_HAVE_FLUSH -DFC_HAVE_ABORT -DCDF -DCDF4 -DSIESTA__METIS -DSIESTA__MUMPS -DTS_NOCHECKS -DNCDF -DNCDF_4 -DNCDF_PARALLEL -DSIESTA__FLOOK  -DTRANSIESTA
Libraries     : -lnetcdff -lnetcdf -lpnetcdf -lhdf5_hl -lhdf5 -lz  -lzmumps -lmumps_common -llpord -lparmetis -lmetis -lscalapack -lopenblas  -lmetis -flto -fuse-linker-plugin  -L/zdata/groups/common/nicpa/2016-oct/XeonE5-2665/flook/0.7.0/gnu-6.2.0/lib -Wl,-rpath=/zdata/groups/common/nicpa/2016-oct/XeonE5-2665/flook/0.7.0/gnu-6.2.0/lib -lflookall -ldl
PARALLEL version
TRANSIESTA support
NetCDF support
NetCDF-4 support
NetCDF-4 MPI-IO support
METIS ordering support

* Running on 8 nodes in parallel
>> Start of run:   2-JUL-2017  22:21:44

initatom: Reading input for the pseudopotentials and atomic orbitals ----------
Species number:   1 Atomic number:   79 Label: Au

Ground state valence configuration:   6s01  5d10
Reading pseudopotential information in formatted form from Au.psf

Pseudopotential generated from a relativistic atomic calculation
There are spin-orbit pseudopotentials available
Spin-orbit interaction is not included in this calculation

Valence configuration for pseudopotential generation:
6s( 1.00) rc: 2.32
6p( 0.00) rc: 2.32
5d(10.00) rc: 2.32
5f( 0.00) rc: 2.32
For Au, standard SIESTA heuristics set lmxkb to 3
 (one more than the basis l, including polarization orbitals).
Use PS.lmax or PS.KBprojectors blocks to override.

<basis_specs>
===============================================================================
Au                   Z=  79    Mass=  196.97        Charge= 0.17977+309
Lmxo=2 Lmxkb= 3    BasisType=split      Semic=F
L=0  Nsemic=0  Cnfigmx=6
          n=1  nzeta=1  polorb=1
            splnorm:   0.15000    
               vcte:    0.0000    
               rinn:    0.0000    
               qcoe:    0.0000    
               qyuk:    0.0000    
               qwid:   0.10000E-01
                rcs:    0.0000    
            lambdas:    1.0000    
L=1  Nsemic=0  Cnfigmx=6
L=2  Nsemic=0  Cnfigmx=5
          n=1  nzeta=1  polorb=0
            splnorm:   0.15000    
               vcte:    0.0000    
               rinn:    0.0000    
               qcoe:    0.0000    
               qyuk:    0.0000    
               qwid:   0.10000E-01
                rcs:    0.0000    
            lambdas:    1.0000    
-------------------------------------------------------------------------------
L=0  Nkbl=1  erefs: 0.17977+309
L=1  Nkbl=1  erefs: 0.17977+309
L=2  Nkbl=1  erefs: 0.17977+309
L=3  Nkbl=1  erefs: 0.17977+309
===============================================================================
</basis_specs>

atom: Called for Au                    (Z =  79)

read_vps: Pseudopotential generation method:
read_vps: ATM3      Troullier-Martins                       
Total valence charge:   11.00000

xc_check: Exchange-correlation functional:
xc_check: Ceperley-Alder
V l=0 = -2*Zval/r beyond r=  3.7361
V l=1 = -2*Zval/r beyond r=  3.7361
V l=2 = -2*Zval/r beyond r=  3.7361
V l=3 = -2*Zval/r beyond r=  3.7361
All V_l potentials equal beyond r=  2.2946
This should be close to max(r_c) in ps generation
All pots = -2*Zval/r beyond r=  3.7361
Using large-core scheme for Vlocal

atom: Estimated core radius    3.73611

atom: Including non-local core corrections could be a good idea
atom: Maximum radius for 4*pi*r*r*local-pseudopot. charge    4.07775
atom: Maximum radius for r*vlocal+2*Zval:    3.78310
GHOST: No ghost state for L =  0
GHOST: No ghost state for L =  1
GHOST: No ghost state for L =  2
GHOST: No ghost state for L =  3

KBgen: Kleinman-Bylander projectors: 
   l= 0   rc=  2.382235   el= -0.445645   Ekb=  4.511922   kbcos=  0.274440
   l= 1   rc=  2.382235   el= -0.065316   Ekb=  2.560647   kbcos=  0.223707
   l= 2   rc=  2.382235   el= -0.526293   Ekb= -5.024070   kbcos= -0.676934
   l= 3   rc=  2.382235   el=  0.003438   Ekb= -2.070042   kbcos= -0.013117

KBgen: Total number of  Kleinman-Bylander projectors:   16
atom: -------------------------------------------------------------------------

atom: SANKEY-TYPE ORBITALS:

SPLIT: Orbitals with angular momentum L= 0

SPLIT: Basis orbitals for state 6s

SPLIT: PAO cut-off radius determined from an
SPLIT: energy shift=  0.005000 Ry

   izeta = 1
                 lambda =    1.000000
                     rc =    7.246712
                 energy =   -0.441368
                kinetic =    0.367640
    potential(screened) =   -0.809008
       potential(ionic) =   -8.408267

SPLIT: Orbitals with angular momentum L= 2

SPLIT: Basis orbitals for state 5d

SPLIT: PAO cut-off radius determined from an
SPLIT: energy shift=  0.005000 Ry

   izeta = 1
                 lambda =    1.000000
                     rc =    5.106662
                 energy =   -0.521343
                kinetic =    4.852314
    potential(screened) =   -5.373657
       potential(ionic) =  -16.114240

POLgen: Perturbative polarization orbital with L=  1

POLgen: Polarization orbital for state 6s

   izeta = 1
                     rc =    7.246712
                 energy =   -0.107868
                kinetic =    0.647525
    potential(screened) =   -0.755394
       potential(ionic) =   -7.869443
atom: Total number of Sankey-type orbitals:  9

atm_pop: Valence configuration (for local Pseudopot. screening):
 6s( 1.00)                                                            
 6p( 0.00)                                                            
 5d(10.00)                                                            
Vna: chval, zval:   11.00000  11.00000

Vna:  Cut-off radius for the neutral-atom potential:   7.246712

atom: _________________________________________________________________________

prinput: Basis input ----------------------------------------------------------

PAO.BasisType split     

%block ChemicalSpeciesLabel
    1   79 Au                      # Species index, atomic number, species label
%endblock ChemicalSpeciesLabel

%block PAO.Basis                 # Define Basis set
Au                    2                    # Species label, number of l-shells
 n=6   0   1 P   1                   # n, l, Nzeta, Polarization, NzetaPol
   7.247   
   1.000   
 n=5   2   1                         # n, l, Nzeta 
   5.107   
   1.000   
%endblock PAO.Basis

prinput: ----------------------------------------------------------------------

Dumping basis to NetCDF file Au.ion.nc
coor:   Atomic-coordinates input format  =     Cartesian coordinates
coor:                                          (in units of alat)

siesta: WARNING: XV file not found

siesta: Atomic coordinates (Bohr) and species
siesta:      0.00000   0.00000   0.00000  1        1
siesta:      2.76194   1.59461   4.51023  1        2
siesta:      2.76194  -1.59461   9.02046  1        3
siesta:      0.00000   0.00000  13.53069  1        4
siesta:      2.76194   1.59461  18.04092  1        5
siesta:      2.76194  -1.59461  22.55114  1        6
siesta:      0.00000   0.00000  27.06137  1        7
siesta:      2.76194   1.59461  31.57160  1        8
siesta:      2.76194  -1.59461  36.08183  1        9

siesta: System type = bulk      

initatomlists: Number of atoms, orbitals, and projectors:      9    81   144

coxmol: Writing XMOL coordinates into file bulk_au_111.xyz                                                     

siesta: ******************** Simulation parameters ****************************
siesta:
siesta: The following are some of the parameters of the simulation.
siesta: A complete list of the parameters used, including default values,
siesta: can be found in file out.fdf
siesta:
redata: Spin configuration                          = none
redata: Number of spin components                   = 1
redata: Time-Reversal Symmetry                      = T
redata: Spin-spiral                                 = F
redata: Long output                                 =   F
redata: Number of Atomic Species                    =        1
redata: Charge density info will appear in .RHO file
redata: Write Mulliken Pop.                         = Atomic and Orbital charges
redata: Mesh Cutoff                                 =   350.0000 Ry
redata: Net charge of the system                    =     0.0000 |e|
redata: Min. number of SCF Iter                     =        0
redata: Max. number of SCF Iter                     =      300
redata: SCF mix quantity                            = Hamiltonian
redata: Mix DM or H after convergence               =   F
redata: Recompute H after scf cycle                 =   F
redata: Mix DM in first SCF step                    =   T
redata: Write Pulay info on disk                    =   F
redata: New DM Mixing Weight                        =     0.0300
redata: New DM Occupancy tolerance                  = 0.000000000001
redata: No kicks to SCF
redata: DM Mixing Weight for Kicks                  =     0.5000
redata: Require Harris convergence for SCF          =   F
redata: Harris energy tolerance for SCF             =     0.000100 eV
redata: Require DM convergence for SCF              =   T
redata: DM tolerance for SCF                        =     0.0001
redata: Require EDM convergence for SCF             =   F
redata: EDM tolerance for SCF                       =     0.001000 eV
redata: Require H convergence for SCF               =   T
redata: Hamiltonian tolerance for SCF               =     0.001000 eV
redata: Require (free) Energy convergence for SCF   =   F
redata: (free) Energy tolerance for SCF             =     0.000100 eV
redata: Using Saved Data (generic)                  =   F
redata: Use continuation files for DM               =   T
redata: Neglect nonoverlap interactions             =   F
redata: Method of Calculation                       = Transiesta
redata: Fix the spin of the system                  =   F
redata: Dynamics option                             = Single-point calculation
mix.SCF: Pulay mixing                            = Pulay
mix.SCF:    Variant                              = stable
mix.SCF:    History steps                        = 5
mix.SCF:    Linear mixing weight                 =     0.030000
mix.SCF:    Mixing weight                        =     0.030000
mix.SCF:    SVD condition                        = 0.1000E-07
redata: Save all siesta data in one NC              =   F
redata: ***********************************************************************

%block SCF.Mixers
  Pulay
%endblock SCF.Mixers

%block SCF.Mixer.Pulay
  # Mixing method
  method pulay
  variant stable

  # Mixing options
  weight 0.0300
  weight.linear 0.0300
  history 5
%endblock SCF.Mixer.Pulay

DM_history_depth set to one: no extrapolation allowed by default for geometry relaxation
Size of DM history Fstack: 1
Total number of electrons:    99.000000
Total ionic charge:    99.000000

* ProcessorY, Blocksize:    2  10


* Orbital distribution balance (max,min):    11    10

k-point displ. along   1 input, could be:     0.00    0.50
k-point displ. along   2 input, could be:     0.00    0.50
 Kpoints in:         1920 . Kpoints trimmed:         1920

siesta: k-grid: Number of k-points =  1920
siesta: k-grid: Cutoff (effective) =    11.692 Ang
siesta: k-grid: Supercell and displacements
siesta: k-grid:    8   0   0      0.000
siesta: k-grid:    0   8   0      0.000
siesta: k-grid:    0   0  60      0.500

superc: Internal auxiliary supercell:     9 x     9 x     3  =     243
superc: Number of atoms, orbitals, and projectors:   2187  19683  34992

k-point displ. along   1 input, could be:     0.00    0.50
k-point displ. along   2 input, could be:     0.00    0.50
 Kpoints in:           40 . Kpoints trimmed:           37

transiesta: k-grid: Number of Green function k-points =    37
transiesta: k-grid: Supercell and displacements
transiesta: k-grid:    8   0   0      0.000
transiesta: k-grid:    0   8   0      0.000
transiesta: k-grid:    0   0   1      0.000

ts: **************************************************************
ts: Voltage                                         =    0.0000 Volts
ts: Save H and S matrices                           =    T
ts: Electronic temperature                          =   99.999269 K
ts: Transport along unit-cell vector                =    A3
ts: Transport along Cartesian vector                =    Z
ts: Fixing Hartree potential at electrode-plane     =    Right
ts: Fix Hartree potential fraction                  =    1.0000
ts: Solution method                                 =    BTD
ts: BTD pivoting method                             =    atom+Left
ts: BTD creation algorithm                          =    speed
ts: SCF.TS DM tolerance                             = 0.100E-03
ts: SCF.TS Hamiltonian tolerance                    =    0.001000 eV
ts: Initialize DM by                                =    diagon
ts: Initial DM for electrodes                       =    this
ts: Will not correct charge fluctuations
ts: TS.SCF mixing options same as SCF
ts:           >> Electrodes << 
ts: >> Left
ts:   Electrode cell pivoting: E1, E2, E3           = A1, A2, A3
ts:   GF file                                       = bulk_au_111.TSGFLeft
ts:   Reuse existing GF-file                        =    T
ts:   Electrode TSHS file                           = ./elec_au_111_abc.TSHS
ts:   # atoms used in electrode                     =    3
ts:   Electrode Bloch expansion [E1 x E2 x E3]      = 1 x 1 x 1
ts:   Position in geometry                          = 1 -- 3
ts:   Semi-infinite direction for electrode         = negative wrt. E3
ts:   Chemical shift                                =    0.000000 eV
ts:   Electronic temperature                        =   99.999269 K
ts:   Bulk values in electrode                      =    T
ts:   Cross-terms are not updated
ts:   Electrode self-energy imaginary Eta           =  0.1000E-03  eV
ts:   Electrode self-energy accuracy                =  0.1000E-13  eV
ts:   Electrode inter-layer distance (semi-inf)     =    2.3867  Ang
ts: >> Right
ts:   Electrode cell pivoting: E1, E2, E3           = A1, A2, A3
ts:   GF file                                       = bulk_au_111.TSGFRight
ts:   Reuse existing GF-file                        =    T
ts:   Electrode TSHS file                           = ./elec_au_111_abc.TSHS
ts:   # atoms used in electrode                     =    3
ts:   Electrode Bloch expansion [E1 x E2 x E3]      = 1 x 1 x 1
ts:   Position in geometry                          = 7 -- 9
ts:   Semi-infinite direction for electrode         = positive wrt. E3
ts:   Chemical shift                                =    0.000000 eV
ts:   Electronic temperature                        =   99.999269 K
ts:   Bulk values in electrode                      =    T
ts:   Cross-terms are not updated
ts:   Electrode self-energy imaginary Eta           =  0.1000E-03  eV
ts:   Electrode self-energy accuracy                =  0.1000E-13  eV
ts:   Electrode inter-layer distance (semi-inf)     =    2.3867  Ang
ts:  ----------------- Contour ----------------- 
ts:            >> Residual contour << 
ts: Pole chemical potential                         =    0.0000 eV
ts:    Chemical potential temperature               =   99.9993 K
ts:    Number of poles                              =   47
ts:    Top energy point                             =    2.5448 eV
ts:          >> Equilibrium contour << 
ts: Contour name                                    =    TS.Contour.c-Left
ts:   circle contour E_min                          =  -40.0000 eV
ts:   circle contour E_max                          =   -0.0862 eV
ts:   circle contour points                         =   30
ts:   circle contour method                         =    Gauss-Legendre
ts: Contour name                                    =    TS.Contour.t-Left
ts:   tail contour E_min                            =   -0.0862 eV
ts:   tail contour E_max                            =     Infinity
ts:   tail contour points                           =   10
ts:   tail contour method                           =    Gauss-Fermi (0kT)
ts: **************************************************************

************************ Begin: TS CHECKS AND WARNINGS ************************
Without loosing performance you can increase the equilibrium integration precision.
You can add 1 more energy points in the equilibrium contours, for FREE!
This is 1 more energy points per chemical potential.
Electrode Left will not update cross-terms or local region.
Electrode Right will not update cross-terms or local region.
************************ End: TS CHECKS AND WARNINGS **************************

                  ****************************************
                   TRANSIESTA REPORTED IMPORTANT WARNINGS
                  ****************************************

>>> Transiesta block information for FDF-file START <<<

%block TS.ChemPots
  Left
%endblock TS.ChemPots

%block TS.ChemPot.Left
  mu  V/2
  contour.eq
   begin
    c-Left
    t-Left
   end
%endblock TS.ChemPot.Left
%block TS.Contour.c-Left
  part circle
     from -40.00000 eV + V/2 to -10. kT + V/2
      points 30
        method g-legendre
%endblock TS.Contour.c-Left
%block TS.Contour.t-Left
  part tail
     from prev to + inf
      points 10
        method g-fermi
%endblock TS.Contour.t-Left

>>> Transiesta block information for FDF-file END <<<


transiesta: Regions of atoms:
   ## (3): Elec.Left
     [ 1 -- 3 ]
   ## (3): Elec.Right
     [ 7 -- 9 ]
   -- (3): Device
     [ 4 -- 6 ]

  <sparsity:./elec_au_111_abc.TSHS
    nrows_g=27 nrows=27 sparsity=44.2757 nnzs=32277, refcount: 3>
  <sparsity:(TM [--,--, 0] of: ./elec_au_111_abc.TSHS)
    nrows_g=27 nrows=27 sparsity=25.1152 nnzs=18309, refcount: 3>
  <sparsity:(TM [--,--,-1] of: ./elec_au_111_abc.TSHS)
    nrows_g=27 nrows=27 sparsity=9.4486 nnzs=6888, refcount: 3>
 Left principal cell is extending out with 96 elements:
    Atom 1 connects with atom 3
    Orbital 8 connects with orbital 26
    Hamiltonian value: |H(8,6587)|@R=-2 =  0.651E-13 eV
    Overlap          :  S(8,6587)|@R=-2 =   0.00    

Calculating all surface Green functions for: Left
 Fermi level shift in electrode (chemical potential) :        0.00000  eV
 Atoms available    / used atoms   :      3 /      3
 Orbitals available / used orbitals:     27 /     27
 Total self-energy calculations: 3219
 Saving surface Green functions in: bulk_au_111.TSGFLeft
 Estimated file size:     36.630 MB
 Lopez Sancho, Lopez Sancho & Rubio recursive surface self-energy calculation...
 Lopez Sancho, Lopez Sancho & Rubio: Mean/std iterations:     4.8024 /     1.1388
 Lopez Sancho, Lopez Sancho & Rubio: Min/Max iterations :          3 /         11
Done creating 'bulk_au_111.TSGFLeft'.

  <sparsity:./elec_au_111_abc.TSHS
    nrows_g=27 nrows=27 sparsity=44.2757 nnzs=32277, refcount: 3>
  <sparsity:(TM [--,--, 0] of: ./elec_au_111_abc.TSHS)
    nrows_g=27 nrows=27 sparsity=25.1152 nnzs=18309, refcount: 3>
  <sparsity:(TM [--,--, 1] of: ./elec_au_111_abc.TSHS)
    nrows_g=27 nrows=27 sparsity=9.4486 nnzs=6888, refcount: 3>
 Right principal cell is extending out with 96 elements:
    Atom 3 connects with atom 1
    Orbital 26 connects with orbital 8
    Hamiltonian value: |H(26,4382)|@R=2 =  0.651E-13 eV
    Overlap          :  S(26,4382)|@R=2 =   0.00    

Calculating all surface Green functions for: Right
 Fermi level shift in electrode (chemical potential) :        0.00000  eV
 Atoms available    / used atoms   :      3 /      3
 Orbitals available / used orbitals:     27 /     27
 Total self-energy calculations: 3219
 Saving surface Green functions in: bulk_au_111.TSGFRight
 Estimated file size:     36.630 MB
 Lopez Sancho, Lopez Sancho & Rubio recursive surface self-energy calculation...
 Lopez Sancho, Lopez Sancho & Rubio: Mean/std iterations:     4.8024 /     1.1388
 Lopez Sancho, Lopez Sancho & Rubio: Min/Max iterations :          3 /         11
Done creating 'bulk_au_111.TSGFRight'.


                     ====================================
                        Single-point calculation
                     ====================================

superc: Internal auxiliary supercell:     9 x     9 x     3  =     243
superc: Number of atoms, orbitals, and projectors:   2187  19683  34992

outcell: Unit cell vectors (Ang):
        2.923110    0.000000    0.000000
        1.461555    2.531488    0.000000
        0.000000    0.000000   21.480384

outcell: Cell vector modules (Ang)   :    2.923110    2.923110   21.480384
outcell: Cell angles (23,13,12) (deg):     90.0000     90.0000     60.0000
outcell: Cell volume (Ang**3)        :    158.9509
<dSpData1D:S at geom step 0
  <sparsity:sparsity for geom step 0
    nrows_g=81 nrows=11 sparsity=2.1492 nnzs=14101, refcount: 7>
  <dData1D:(new from dSpData1D) n=14101, refcount: 1>
refcount: 1>
new_DM -- step:     1
Initializing Density Matrix...

Attempting to read DM, EDM from TSDE file... Failed...
Attempting to read DM from file... Failed...
DM filled with atomic data:
<dSpData2D:DM initialized from atoms
  <sparsity:sparsity for geom step 0
    nrows_g=81 nrows=11 sparsity=2.1492 nnzs=14101, refcount: 8>
  <dData2D:DM n=14101 m=1, refcount: 1>
refcount: 1>

transiesta: Initialization run using siesta


No. of atoms with KB's overlaping orbs in proc 0. Max # of overlaps:     103     237
New grid distribution:   1
           1       1:   15    1:    8    1:   32
           2       1:   15    1:    8   33:   63
           3       1:   15    1:    8   64:   94
           4       1:   15    1:    8   95:  125
           5       1:   15    9:   15    1:   32
           6       1:   15    9:   15   33:   63
           7       1:   15    9:   15   64:   94
           8       1:   15    9:   15   95:  125

InitMesh: MESH =    30 x    30 x   250 =      225000
InitMesh: (bp) =    15 x    15 x   125 =       28125
InitMesh: Mesh cutoff (required, used) =   350.000   374.367 Ry
ExtMesh (bp) on 0 =   107 x   100 x   124 =     1326800
New grid distribution:   2
           1       1:   15    1:   15   16:   31
           2       1:   15    1:   15   47:   62
           3       1:   15    1:   15   63:   78
           4       1:   15    1:   15    1:   15
           5       1:   15    1:   15  111:  125
           6       1:   15    1:   15   32:   46
           7       1:   15    1:   15   79:   94
           8       1:   15    1:   15   95:  110
New grid distribution:   3
           1       1:   15    1:   15    1:   16
           2       1:   15    1:   15   49:   63
           3       1:   15    1:   15   64:   79
           4       1:   15    1:   15   95:  110
           5       1:   15    1:   15   17:   32
           6       1:   15    1:   15   33:   48
           7       1:   15    1:   15   80:   94
           8       1:   15    1:   15  111:  125
Setting up quadratic distribution...
ExtMesh (bp) on 0 =   107 x   107 x   108 =     1236492
PhiOnMesh: Number of (b)points on node 0 =                 3600
PhiOnMesh: nlist on node 0 =               294436

ts: Using electrode: Right for Hartree correction
ts: Grid fraction plane  0.94444
ts: Grid point plane (Ang):       0.00000       0.00000      20.28703

ts-Vha:  0.12968E-07 eV

stepf: Fermi-Dirac step function
ts-Vha:  0.88535E+00 eV

siesta: Program's energy decomposition (eV):
siesta: Ebs     =      -881.975704
siesta: Eions   =     10541.024256
siesta: Ena     =       524.239359
siesta: Ekin    =      5607.954937
siesta: Enl     =     -2578.888618
siesta: Eso     =         0.000000
siesta: Eldau   =         0.000000
siesta: DEna    =       102.415860
siesta: DUscf   =         7.265895
siesta: DUext   =         0.000000
siesta: Exc     =     -1262.312375
siesta: eta*DQ  =         0.000000
siesta: Emadel  =         0.000000
siesta: Emeta   =         0.000000
siesta: Emolmec =         0.000000
siesta: Ekinion =         0.000000
siesta: Eharris =     -8131.604285
siesta: Etot    =     -8140.349198
siesta: FreeEng =     -8140.350453

        iscf     Eharris(eV)        E_KS(eV)     FreeEng(eV)     dDmax    Ef(eV) dHmax(eV)
   scf:    1    -8131.604285    -8140.349198    -8140.350453  0.220204 -2.474462  2.656890
timer: Routine,Calls,Time,% = IterSCF        1       8.220  68.82
ts-Vha:  0.87340E+00 eV
   scf:    2    -8140.653602    -8140.501952    -8140.503193  0.003084 -2.545572  2.540248
ts-Vha:  0.61316E+00 eV
   scf:    3    -8143.193604    -8142.094186    -8142.095036  0.059242 -4.019939  0.019015
ts-Vha:  0.61334E+00 eV
   scf:    4    -8142.093819    -8142.094025    -8142.094873  0.000550 -4.034196  0.019922
ts-Vha:  0.61144E+00 eV
   scf:    5    -8142.093966    -8142.093996    -8142.094844  0.000072 -4.035904  0.021980
ts-Vha:  0.61227E+00 eV
   scf:    6    -8142.093786    -8142.094011    -8142.094866  0.001169 -4.007830  0.039301
ts-Vha:  0.61469E+00 eV
   scf:    7    -8142.094356    -8142.094207    -8142.095061  0.000775 -4.027477  0.006981
ts-Vha:  0.61396E+00 eV
   scf:    8    -8142.094216    -8142.094213    -8142.095066  0.000112 -4.030357  0.001660
ts-Vha:  0.61388E+00 eV
   scf:    9    -8142.094213    -8142.094213    -8142.095066  0.000009 -4.030472  0.001515
ts-Vha:  0.61406E+00 eV
   scf:   10    -8142.094215    -8142.094214    -8142.095067  0.000086 -4.030364  0.001680
ts-Vha:  0.61390E+00 eV
   scf:   11    -8142.094215    -8142.094215    -8142.095067  0.000092 -4.031194  0.000671

SCF Convergence by DM+H criterion
max |DM_out - DM_in|         :     0.0000924688
max |H_out - H_in|      (eV) :     0.0006708279
SCF cycle converged after 11 iterations

                     ***************************
                     *  WELCOME TO TRANSIESTA  *
                     ***************************

ts-Vha:  0.61390E+00 eV

Created the TranSIESTA H,S sparsity pattern:
  <sparsity:(M of: G ((UC of: T T T sparsity for geom step 0)))
    nrows_g=81 nrows=81 sparsity=.3812 nnzs=2501, refcount: 1>

Created the TranSIESTA global update sparsity pattern:
  <sparsity:G ((UC of: (M of: T T T sparsity for geom step 0)))
    nrows_g=81 nrows=81 sparsity=.1111 nnzs=729, refcount: 1>

transiesta: Determining an optimal tri-matrix using: atom+Left
transiesta: Established a near-optimal partition for the tri-diagonal matrix.
BTD partitions (3): 
  [ 27, 27, 27 ]
transiesta: Matrix elements in tri / full: 5103 / 6561

transiesta: mem of electrodes (static):                     0.02MB
transiesta: mem of global update arrays (static):           0.10MB
transiesta: mem of tri-diagonal matrices:                   0.16MB
transiesta: Total memory usage:                             0.28MB

transiesta: Charge distribution, target =     99.00000
Total charge                  [Q]  :    99.00000
Device                        [D]  :    32.69500
Left                          [E1] :    32.69501
Left                 / device [C1] :     0.30499
Right                         [E2] :    32.69498
Right                / device [C2] :     0.30501
Other                         [O]  :     0.30501

ts-q:         D        E1        C1        E2        C2        dQ
ts-q:    32.695    32.695     0.305    32.695     0.305 -7.322E-5
ts-Vha:  0.61493E+00 eV

siesta: Program's energy decomposition (eV):
siesta: Ebs     =      -810.958562
siesta: Eions   =     10541.024256
siesta: Ena     =       524.239359
siesta: Ekin    =      5727.250063
siesta: Enl     =     -2652.411106
siesta: Eso     =         0.000000
siesta: Eldau   =         0.000000
siesta: DEna    =        70.389377
siesta: DUscf   =         3.468429
siesta: DUext   =         0.000000
siesta: Exc     =     -1274.005390
siesta: eta*DQ  =         0.000000
siesta: Emadel  =         0.000000
siesta: Emeta   =         0.000000
siesta: Emolmec =         0.000000
siesta: Ekinion =         0.000000
siesta: Eharris =     -8142.092788
siesta: Etot    =     -8142.093524
siesta: FreeEng =     -8142.093524

        iscf     Eharris(eV)        E_KS(eV)     FreeEng(eV)     dDmax    Ef(eV) dHmax(eV)
ts-scf:    1    -8142.092788    -8142.093524    -8142.093524  0.000076 -4.031194  0.006548
timer: Routine,Calls,Time,% = TS             1       0.414   0.46
ts-q:         D        E1        C1        E2        C2        dQ
ts-q:    32.695    32.695     0.305    32.695     0.305 -1.534E-5
ts-Vha:  0.61383E+00 eV
ts-scf:    2    -8142.094007    -8142.093748    -8142.093748  0.000036 -4.031194  0.002220
ts-q:         D        E1        C1        E2        C2        dQ
ts-q:    32.695    32.695     0.305    32.695     0.305 -4.519E-5
ts-Vha:  0.61446E+00 eV
ts-scf:    3    -8142.093521    -8142.093644    -8142.093644  0.000018 -4.031194  0.001675
ts-q:         D        E1        C1        E2        C2        dQ
ts-q:    32.695    32.695     0.305    32.695     0.305 -2.614E-5
ts-Vha:  0.61412E+00 eV
ts-scf:    4    -8142.093808    -8142.093720    -8142.093720  0.000010 -4.031194  0.000559

SCF Convergence by DM+H criterion
max |DM_out - DM_in|         :     0.0000098843
max |H_out - H_in|      (eV) :     0.0005586943
SCF cycle converged after 4 iterations

Using DM_out to compute the final energy and forces
No. of atoms with KB's overlaping orbs in proc 0. Max # of overlaps:     103     237
ts-Vha:  0.61412E+00 eV

siesta: E_KS(eV) =            -8142.0937

siesta: E_KS - E_eggbox =     -8142.0937

siesta: Atomic forces (eV/Ang):
----------------------------------------
   Tot    0.000000   -0.000000    0.000000
----------------------------------------
   Max    0.001297
   Res    0.000372    sqrt( Sum f_i^2 / 3N )
----------------------------------------
   Max    0.001297    constrained

Stress-tensor-Voigt (kbar):       26.36       26.36       53.14       -0.00       -0.00        0.00
(Free)E + p*V (eV/cell)    -8145.5942
Target enthalpy (eV/cell)    -8142.0937

mulliken: Atomic and Orbital Populations:

Species: Au                  
Atom  Qatom  Qorb
               6s      5dxy    5dyz    5dz2    5dxz    5dx2-y2 6Ppy    6Ppz    
               6Ppx    
   1 11.000   1.003   1.907   1.919   1.892   1.919   1.907   0.152   0.149
              0.152
   2 11.000   1.003   1.907   1.919   1.892   1.919   1.907   0.152   0.149
              0.152
   3 11.000   1.003   1.907   1.919   1.892   1.919   1.907   0.152   0.149
              0.152
   4 11.000   1.003   1.907   1.919   1.892   1.919   1.907   0.152   0.149
              0.152
   5 11.000   1.003   1.907   1.919   1.892   1.919   1.907   0.152   0.149
              0.152
   6 11.000   1.003   1.907   1.919   1.892   1.919   1.907   0.152   0.149
              0.152
   7 11.000   1.003   1.907   1.919   1.892   1.919   1.907   0.152   0.149
              0.152
   8 11.000   1.003   1.907   1.919   1.892   1.919   1.907   0.152   0.149
              0.152
   9 11.000   1.003   1.907   1.919   1.892   1.919   1.907   0.152   0.149
              0.152

mulliken: Qtot =       99.000

coxmol: Writing XMOL coordinates into file bulk_au_111.xyz                                                     

siesta: Program's energy decomposition (eV):
siesta: Ebs     =      -810.878768
siesta: Eions   =     10541.024256
siesta: Ena     =       524.239359
siesta: Ekin    =      5727.252223
siesta: Enl     =     -2652.411870
siesta: Eso     =         0.000000
siesta: Eldau   =         0.000000
siesta: DEna    =        70.388560
siesta: DUscf   =         3.468390
siesta: DUext   =         0.000000
siesta: Exc     =     -1274.006125
siesta: eta*DQ  =         0.000000
siesta: Emadel  =         0.000000
siesta: Emeta   =         0.000000
siesta: Emolmec =         0.000000
siesta: Ekinion =         0.000000
siesta: Eharris =     -8142.093808
siesta: Etot    =     -8142.093720
siesta: FreeEng =     -8142.093720

siesta: Final energy (eV):
siesta:  Band Struct. =    -810.878768
siesta:       Kinetic =    5727.252223
siesta:       Hartree =     865.579983
siesta:       Eldau   =       0.000000
siesta:       Eso     =       0.000000
siesta:    Ext. field =       0.000000
siesta:   Exch.-corr. =   -1274.006125
siesta:  Ion-electron =   -6602.013457
siesta:       Ion-ion =   -6858.906344
siesta:       Ekinion =       0.000000
siesta:         Total =   -8142.093720
siesta:         Fermi =      -4.031194

siesta: Stress tensor (static) (eV/Ang**3):
siesta:     0.016452   -0.000000    0.000000
siesta:    -0.000000    0.016452   -0.000000
siesta:     0.000000   -0.000000    0.033164

siesta: Cell volume =        158.950899 Ang**3

siesta: Pressure (static):
siesta:                Solid            Molecule  Units
siesta:          -0.00023985         -0.00024030  Ry/Bohr**3
siesta:          -0.02202245         -0.02206397  eV/Ang**3
siesta:         -35.28423319        -35.35075921  kBar
(Free)E+ p_basis*V_orbitals  =       -8135.857407
(Free)Eharris+ p_basis*V_orbitals  =       -8135.857495
ts-Vha:  0.61412E+00 eV
>> End of run:   2-JUL-2017  22:23:20
Job completed
