Siesta Version  : siesta-4.0--578
Architecture    : x86_64-linux-n-62-25-35
Compiler version: GNU Fortran (GCC) 7.3.0
Compiler flags  : mpif90 -m64 -fPIC -O3 -march=native -ftree-vectorize -fexpensive-optimizationns -funroll-loops -fprefetch-loop-arrays -fno-second-underscore
PP flags        : -I/zdata/groups/common/nicpa/2018-feb/generic/build-tools/1.0/include -I/zdatta/groups/common/nicpa/2018-feb/generic/gcc/7.3.0/include -I/zdata/groups/common/nicpa/2018-feb/generic/gcc/7.3.0/include -I/zdata/groups/common/nicpa/2018-feb/XeonE5-2660v3/zlib/1.2.11/gnu-7.3.0/include -I/zdata/groups/common/nicpa/2018-feb/generic/numactl/2.0.11/include -I/zdata/groups/common/nicpa/2018-feb/XeonE5-2660v3/libxml2/2.9.7/gnu-7.3.0/include -I/zdata/groups/common/nicpa/2018-feb/XeonE5-2660v3/hwloc/1.11.9/gnu-7.3.0/include -I/zdata/groups/common/nicpa/2018-feb/XeonE5-2660v3/openmpi/3.0.0/gnu-7.3.0/include -I/zdata/groups/common/nicpa/2018-feb/XeonE5-2660v3/szip/2.1.1/gnu-7.3.0/include -I/zdata/groups/common/nicpa/2018-feb/XeonE5-2660v3/hdf5-serial/1.8.18/gnu-7.3.0/include -I/zdata/groups/common/nicpa/2018-feb/XeonE5-2660v3/netcdf-serial/4.6.0/gnu-7.3.0/include -I/zdata/groups/common/nicpa/2018-feb/XeonE5-2660v3/scalapack/204/gnu-7.3.0/include -I/zdata/groups/common/nicpa/2018-feb/XeonE5-2660v3/openblas/0.2.20/gnu-7.3.0/include -I/zdata/groups/common/nicpa/2018-feb/XeonE5-2660v3/elpa/2017.05.003/gnu-7.3.0/include -DSIESTA__ELPA -DMPI -D1 -DFC_HAVE_ABORT -DCDF -DSIESTA__MRRR -DTRANSIESTA  -DTRANSIESTA
PARALLEL version
TRANSIESTA support
NetCDF support

* Running on    8 nodes in parallel
>> Start of run:  13-JUN-2018  21:34:45

                           ***********************       
                           *  WELCOME TO SIESTA  *       
                           ***********************       

reinit: Reading from standard input
************************** Dump of input data file ****************************
SystemName  bulk_au_111
SystemLabel bulk_au_111
==================================================
==================================================
# SPECIES AND BASIS
# Number of species
NumberOfSpecies 1
%block ChemicalSpeciesLabel
  1  79 Au
%endblock ChemicalSpeciesLabel
PAO.BasisSize    SZP
PAO.EnergyShift  0.005 Ry
==================================================
==================================================
# K-points
%block kgrid_Monkhorst_Pack
8   0   0   0.0
0   8   0   0.0
0   0   60  0.5
%endblock kgrid_Monkhorst_Pack
==================================================
==================================================
# UNIT CELL AND ATOMIC POSITIONS
# UNIT CELL
LatticeConstant       2.92311 Ang
%block LatticeVectors
1.000000000   0.00000000000   0.0000000000
0.500000000   0.86602540378   0.0000000000
0.000000000   0.00000000000   2.4494897428
%endblock LatticeVectors
# Atomic coordinates
NumberOfAtoms 3
AtomicCoordinatesFormat ScaledCartesian
%block AtomicCoordinatesAndAtomicSpecies
       0.000000000       0.000000000       0.000000000    1
       0.500000000       0.288675135       0.816496581    1
       0.500000000      -0.288675135       1.632993162    1
%endblock AtomicCoordinatesAndAtomicSpecies
%block SuperCell
1 0 0
0 1 0
0 0 3
%endblock SuperCell
==================================================
==================================================
# General variables
ElectronicTemperature  100 K
MeshCutoff           350. Ry
xc.functional         LDA           # Exchange-correlation functional
xc.authors            CA
SpinPolarized .false.
SolutionMethod Transiesta
==================================================
==================================================
# SCF variables
DM.MixSCF1   T
MaxSCFIterations      300           # Maximum number of SCF iter
DM.MixingWeight       0.03          # New DM amount for next SCF cycle
DM.Tolerance          1.d-4         # Tolerance in maximum difference
DM.UseSaveDM          true          # to use continuation files
DM.NumberPulay         5
Diag.DivideAndConquer  no
Diag.ParallelOverK     yes
==================================================
==================================================
# MD variables
MD.FinalTimeStep 1
MD.TypeOfRun CG
MD.NumCGsteps     000
MD.UseSaveXV      .true.
==================================================
==================================================
# Output variables
WriteMullikenPop                1
WriteBands                      .false.
SaveRho                         .false.
SaveDeltaRho                    .false.
SaveHS                          .false.
SaveElectrostaticPotential      True
SaveTotalPotential              no
WriteCoorXmol                   .true.
WriteMDXmol                     .true.
WriteMDhistory                  .false.
WriteEigenvalues                yes
==================================================
==================================================
# Transiesta information
# GF OPTIONS
TS.ComplexContour.Emin    -30.0 eV
TS.ComplexContour.NPoles       03
TS.ComplexContour.NCircle      30
TS.ComplexContour.NLine        10
# BIAS OPTIONS
TS.biasContour.NumPoints       00
# TS OPTIONS
TS.Voltage 0.000000 eV
# TBT OPTIONS
TS.TBT.Emin -0.5 eV
TS.TBT.Emax +0.5 eV
TS.TBT.NPoints 100
TS.TBT.NEigen 3
TS.TBT.Eta        0.000001 Ry
# Write hamiltonian
TS.SaveHS   .true.
# LEFT ELECTRODE
TS.HSFileLeft  ./elec_au_111_abc.TSHS
TS.ReplicateA1Left    1
TS.ReplicateA2Left    1
TS.NumUsedAtomsLeft   03
TS.BufferAtomsLeft    0
# RIGHT ELECTRODE
TS.HSFileRight  ./elec_au_111_abc.TSHS
TS.ReplicateA1Right   1
TS.ReplicateA2Right   1
TS.NumUsedAtomsRight  03
TS.BufferAtomsRight   0
==================================================
==================================================
************************** End of input data file *****************************

reinit: -----------------------------------------------------------------------
reinit: System Name: bulk_au_111
reinit: -----------------------------------------------------------------------
reinit: System Label: bulk_au_111                                                 
reinit: -----------------------------------------------------------------------

initatom: Reading input for the pseudopotentials and atomic orbitals ----------
 Species number:            1  Label: Au Atomic number:          79
Ground state valence configuration:   6s01  5d10
Reading pseudopotential information in formatted form from Au.psf

Pseudopotential generated from a relativistic atomic calculation
There are spin-orbit pseudopotentials available
Spin-orbit interaction is not included in this calculation

Valence configuration for pseudopotential generation:
6s( 1.00) rc: 2.32
6p( 0.00) rc: 2.32
5d(10.00) rc: 2.32
5f( 0.00) rc: 2.32
For Au, standard SIESTA heuristics set lmxkb to 3
 (one more than the basis l, including polarization orbitals).
Use PS.lmax or PS.KBprojectors blocks to override.

<basis_specs>
===============================================================================
Au                   Z=  79    Mass=  196.97        Charge= 0.17977+309
Lmxo=2 Lmxkb= 3    BasisType=split      Semic=F
L=0  Nsemic=0  Cnfigmx=6
          n=1  nzeta=1  polorb=1
            splnorm:   0.15000    
               vcte:    0.0000    
               rinn:    0.0000    
               qcoe:    0.0000    
               qyuk:    0.0000    
               qwid:   0.10000E-01
                rcs:    0.0000    
            lambdas:    1.0000    
L=1  Nsemic=0  Cnfigmx=6
L=2  Nsemic=0  Cnfigmx=5
          n=1  nzeta=1  polorb=0
            splnorm:   0.15000    
               vcte:    0.0000    
               rinn:    0.0000    
               qcoe:    0.0000    
               qyuk:    0.0000    
               qwid:   0.10000E-01
                rcs:    0.0000    
            lambdas:    1.0000    
-------------------------------------------------------------------------------
L=0  Nkbl=1  erefs: 0.17977+309
L=1  Nkbl=1  erefs: 0.17977+309
L=2  Nkbl=1  erefs: 0.17977+309
L=3  Nkbl=1  erefs: 0.17977+309
===============================================================================
</basis_specs>

atom: Called for Au                    (Z =  79)

read_vps: Pseudopotential generation method:
read_vps: ATM3      Troullier-Martins                       
Total valence charge:   11.00000

xc_check: Exchange-correlation functional:
xc_check: Ceperley-Alder
V l=0 = -2*Zval/r beyond r=  3.7361
V l=1 = -2*Zval/r beyond r=  3.7361
V l=2 = -2*Zval/r beyond r=  3.7361
V l=3 = -2*Zval/r beyond r=  3.7361
All V_l potentials equal beyond r=  2.2946
This should be close to max(r_c) in ps generation
All pots = -2*Zval/r beyond r=  3.7361
Using large-core scheme for Vlocal

atom: Estimated core radius    3.73611

atom: Including non-local core corrections could be a good idea
atom: Maximum radius for 4*pi*r*r*local-pseudopot. charge    4.07775
atom: Maximum radius for r*vlocal+2*Zval:    3.78310
GHOST: No ghost state for L =  0
GHOST: No ghost state for L =  1
GHOST: No ghost state for L =  2
GHOST: No ghost state for L =  3

KBgen: Kleinman-Bylander projectors: 
   l= 0   rc=  2.382235   el= -0.445645   Ekb=  4.511922   kbcos=  0.274440
   l= 1   rc=  2.382235   el= -0.065316   Ekb=  2.560647   kbcos=  0.223707
   l= 2   rc=  2.382235   el= -0.526293   Ekb= -5.024070   kbcos= -0.676934
   l= 3   rc=  2.382235   el=  0.003438   Ekb= -2.070042   kbcos= -0.013117

KBgen: Total number of  Kleinman-Bylander projectors:   16
atom: -------------------------------------------------------------------------

atom: SANKEY-TYPE ORBITALS:

SPLIT: Orbitals with angular momentum L= 0

SPLIT: Basis orbitals for state 6s

SPLIT: PAO cut-off radius determined from an
SPLIT: energy shift=  0.005000 Ry

   izeta = 1
                 lambda =    1.000000
                     rc =    7.246712
                 energy =   -0.441368
                kinetic =    0.367640
    potential(screened) =   -0.809008
       potential(ionic) =   -8.408267

SPLIT: Orbitals with angular momentum L= 2

SPLIT: Basis orbitals for state 5d

SPLIT: PAO cut-off radius determined from an
SPLIT: energy shift=  0.005000 Ry

   izeta = 1
                 lambda =    1.000000
                     rc =    5.106662
                 energy =   -0.521343
                kinetic =    4.852314
    potential(screened) =   -5.373657
       potential(ionic) =  -16.114240

POLgen: Perturbative polarization orbital with L=  1

POLgen: Polarization orbital for state 6s

   izeta = 1
                     rc =    7.246712
                 energy =   -0.107868
                kinetic =    0.647525
    potential(screened) =   -0.755394
       potential(ionic) =   -7.869443
atom: Total number of Sankey-type orbitals:  9

atm_pop: Valence configuration (for local Pseudopot. screening):
 6s( 1.00)                                                            
 6p( 0.00)                                                            
 5d(10.00)                                                            
Vna: chval, zval:   11.00000  11.00000

Vna:  Cut-off radius for the neutral-atom potential:   7.246712

atom: _________________________________________________________________________

prinput: Basis input ----------------------------------------------------------

PAO.BasisType split     

%block ChemicalSpeciesLabel
    1   79 Au                      # Species index, atomic number, species label
%endblock ChemicalSpeciesLabel

%block PAO.Basis                 # Define Basis set
Au                    2                    # Species label, number of l-shells
 n=6   0   1 P   1                   # n, l, Nzeta, Polarization, NzetaPol
   7.247   
   1.000   
 n=5   2   1                         # n, l, Nzeta 
   5.107   
   1.000   
%endblock PAO.Basis

prinput: ----------------------------------------------------------------------

Dumping basis to NetCDF file Au.ion.nc
coor:   Atomic-coordinates input format  =     Cartesian coordinates
coor:                                          (in units of alat)

siesta: WARNING: XV file not found

siesta: Atomic coordinates (Bohr) and species
siesta:      0.00000   0.00000   0.00000  1        1
siesta:      2.76194   1.59461   4.51023  1        2
siesta:      2.76194  -1.59461   9.02046  1        3
siesta:      0.00000   0.00000  13.53069  1        4
siesta:      2.76194   1.59461  18.04092  1        5
siesta:      2.76194  -1.59461  22.55114  1        6
siesta:      0.00000   0.00000  27.06137  1        7
siesta:      2.76194   1.59461  31.57160  1        8
siesta:      2.76194  -1.59461  36.08183  1        9

siesta: System type = bulk      

initatomlists: Number of atoms, orbitals, and projectors:      9    81   144

coxmol: Writing XMOL coordinates into file bulk_au_111.xyz                                                 

siesta: ******************** Simulation parameters ****************************
siesta:
siesta: The following are some of the parameters of the simulation.
siesta: A complete list of the parameters used, including default values,
siesta: can be found in file out.fdf
siesta:
redata: Non-Collinear-spin run           =     F
redata: SpinPolarized (Up/Down) run      =     F
redata: Number of spin components        =     1
redata: Long output                      =     F
redata: Number of Atomic Species         =        1
redata: Charge density info will appear in .RHO file
redata: Write Mulliken Pop.              =     Atomic and Orbital charges
redata: Matel table size (NRTAB)         =     1024
redata: Mesh Cutoff                      =   350.0000 Ry
redata: Net charge of the system         =     0.0000 |e|
redata: Min. number of SCF Iter          =        0
redata: Max. number of SCF Iter          =      300
redata: Mix DM or H after convergence    =     F
redata: Recompute H after scf cycle      =     F
redata: Performing Pulay mixing using    =     5 iterations
redata: Mix DM in first SCF step ?       =     T
redata: Write Pulay info on disk?        =     F
redata: Discard 1st Pulay DM after  kick =     F
redata: New DM Mixing Weight             =     0.0300
redata: New DM Occupancy tolerance       = 0.000000000001
redata: No kicks to SCF
redata: DM Mixing Weight for Kicks       =     0.5000
redata: DM Tolerance for SCF             =     0.000100
redata: Require (free) Energy convergence in SCF =     F
redata: DM (free)Energy tolerance for SCF =     0.000010 eV
redata: Require Harris convergence for SCF =     F
redata: DM Harris energy tolerance for SCF =     0.000010 eV
redata: Using Saved Data (generic)   =     F
redata: Use continuation files for DM    =     T
redata: Neglect nonoverlap interactions  =     F
redata: Method of Calculation            =         Transiesta
redata: Fix the spin of the system       =     F
redata: Dynamics option                  =     Single-point calculation
redata: ***********************************************************************
Total number of electrons:    99.000000
Total ionic charge:    99.000000

* ProcessorY, Blocksize:    2  10


* Orbital distribution balance (max,min):    11    10

k-point displ. along   1 input, could be:     0.00    0.50
k-point displ. along   2 input, could be:     0.00    0.50
 Kpoints in:         1920 . Kpoints trimmed:         1920

siesta: k-grid: Number of k-points =  1920
siesta: k-grid: Cutoff (effective) =    11.692 Ang
siesta: k-grid: Supercell and displacements
siesta: k-grid:    8   0   0      0.000
siesta: k-grid:    0   8   0      0.000
siesta: k-grid:    0   0  60      0.500

ts_read_options: **************************************************************
ts_read_options: Save H and S matrices        =    T
ts_read_options: Save S and quit (onlyS)      =    F
ts_read_options: TranSIESTA no voltage applied
ts_read_options: Bulk Values in Electrodes    =    T
ts_read_options: TriDiag                      =    F
ts_read_options: Update DM Contact Reg. only  =    T
ts_read_options: N. Buffer At. Left           =    0
ts_read_options: N. Buffer At. Right          =    0
ts_read_options: N. Pts. Circle               =   30
ts_read_options: N. Pts. Line                 =   10
ts_read_options: N. Poles in Contour          =    3
ts_read_options: N. Pts. Bias Contour         =    0
ts_read_options: Contour E Min.               =   -2.2049 Ry
ts_read_options: GFEta                        =    0.000001 Ry
ts_read_options: Electronic Temperature       =    0.0006 Ry
ts_read_options: Bias Contour Method          =    gaussfermi
ts_read_options: Will not correct charge fluctuations
ts_read_options: Calc. band bottom in elec.   =    F
ts_read_options: GF title                     =    Generated GF file
ts_read_options: Left GF File                 =    bulk_au_111.TSGFL
ts_read_options: Right GF File                =    bulk_au_111.TSGFR
ts_read_options: Re-use GF file if exists     =    T
ts_read_options: Left electrode TSHS file     =    ./elec_au_111_abc.TSHS
ts_read_options: # atoms used in left elec.   =     3
ts_read_options: Left elec. repetition A1/A2  =   1 X   1
ts_read_options: Right electrode TSHS file    =    ./elec_au_111_abc.TSHS
ts_read_options: # atoms used in right elec.  =     3
ts_read_options: Right elec. repetition A1/A2 =   1 X   1
ts_read_options: **************************************************************

************************ Begin: TS CHECKS AND WARNINGS ************************
 NOTICE: Total number of energy points is not divisable by the number of nodes.
         There are no computational costs associated with increasing this.
         Used # of energy points   :   43
         Optimal # of energy points:   48
************************ End: TS CHECKS AND WARNINGS **************************

k-point displ. along   1 input, could be:     0.00    0.50
k-point displ. along   2 input, could be:     0.00    0.50
 Kpoints in:           40 . Kpoints trimmed:           37

transiesta: ts_k-grid: Number of Transport k-points =    37
transiesta: ts_k-grid: Supercell and displacements
transiesta: ts_k-grid:    8   0   0      0.000
transiesta: ts_k-grid:    0   8   0      0.000

transiesta: Atomic coordinates and regions (Ang):
##############################################
#     0.0000000     0.0000000     0.0000000  #
#     1.4615550     0.8438292     2.3867093  #     Left electrode
#     1.4615550    -0.8438292     4.7734186  #
##############################################
      0.0000000     0.0000000     7.1601280
      1.4615550     0.8438292     9.5468373        Device
      1.4615550    -0.8438292    11.9335466
##############################################
#     0.0000000     0.0000000    14.3202559  #
#     1.4615550     0.8438292    16.7069652  #     Right electrode
#     1.4615550    -0.8438292    19.0936746  #
##############################################

transiesta: contour integration path:
 Type         Re(c)[eV]    Im(c)[eV]     Re(weight)     Im(weight)
 Equilibrium:
 resi   :       0.00000      0.02707   -0.000000000   -0.003979496
 resi   :       0.00000      0.08122   -0.000000000   -0.003979496
 resi   :       0.00000      0.13536   -0.000000000   -0.003979496
 fermi  :       0.19107      0.16243    0.000000000    0.000000000
 fermi  :       0.12325      0.16243    0.000000003    0.000000000
 fermi  :       0.07467      0.16243    0.000000534    0.000000000
 fermi  :       0.03770      0.16243    0.000029330    0.000000000
 fermi  :       0.00989      0.16243    0.000426928    0.000000000
 fermi  :      -0.01288      0.16243    0.001357550    0.000000000
 fermi  :      -0.03584      0.16243    0.001649495    0.000000000
 fermi  :      -0.05723      0.16243    0.001427686    0.000000000
 fermi  :      -0.07389      0.16243    0.000994590    0.000000000
 fermi  :      -0.08379      0.16243    0.000447478    0.000000000
 circle :      -0.08714      0.23516    0.000215126   -0.013710786
 circle :      -0.09521      0.54471    0.001157073   -0.031756715
 circle :      -0.12561      1.09749    0.003634542   -0.049401014
 circle :      -0.20459      1.88534    0.008415965   -0.066235554
 circle :      -0.36789      2.89377    0.016114794   -0.081720641
 circle :      -0.65813      4.09978    0.027118691   -0.095148678
 circle :      -1.12128      5.46974    0.041517660   -0.105668982
 circle :      -1.80213      6.95781    0.059042090   -0.112355286
 circle :      -2.73913      8.50563    0.079026526   -0.114312802
 circle :      -3.95899     10.04365    0.100415832   -0.110813590
 circle :      -5.47173     11.49434    0.121826529   -0.101440259
 circle :      -7.26697     12.77737    0.141667241   -0.086211518
 circle :      -9.31220     13.81608    0.158309667   -0.065661390
 circle :     -11.55362     14.54472    0.170288177   -0.040848962
 circle :     -13.91976     14.91513    0.176495843   -0.013287325
 circle :     -16.32741     14.90206    0.176341138    0.015203238
 circle :     -18.68938     14.50597    0.169834526    0.042695837
 circle :     -20.92276     13.75304    0.157587267    0.067376718
 circle :     -22.95659     12.69217    0.140722653    0.087744902
 circle :     -24.73779     11.38973    0.120717731    0.102757281
 circle :     -26.23469      9.92269    0.099206504    0.111897544
 circle :     -27.43777      8.37152    0.077780459    0.115164267
 circle :     -28.35791      6.81361    0.057818460    0.112989841
 circle :     -29.02256      5.31823    0.040367675    0.106113622
 circle :     -29.47080      3.94333    0.026083803    0.095437569
 circle :     -29.74793      2.73423    0.015226380    0.081890824
 circle :     -29.90027      1.72409    0.007696168    0.066323044
 circle :     -29.97069      0.93543    0.003097869    0.049437567
 circle :     -29.99508      0.38235    0.000812334    0.031767873
 circle :     -29.99979      0.07273    0.000066680    0.013712003


Creating Green's function file for: left 
 Left unit cell (Ang):
  2.9231  0.0000  0.0000
  1.4616  2.5315  0.0000
  0.0000  0.0000  7.1601
 Structure of the Left electrode  | System electrode:
     X (Ang)   Y (Ang)   Z (Ang)  |   X (Ang)   Y (Ang)   Z (Ang)
     0.00000   0.00000   0.00000  |   0.00000   0.00000   0.00000
     1.46156   0.84383   2.38671  |   1.46156   0.84383   2.38671
     1.46156  -0.84383   4.77342  |   1.46156  -0.84383   4.77342
 WARNING: Connections across 2 unit cells or more in the transport direction.
 WARNING: This is inadvisable.
 WARNING: Please increase the electrode size in the transport direction.
 WARNING: Will proceed without further notice.
 Electrodes with transport k-points  (Bohr**-1) and weights:
   1    -0.42655E+00   0.24627E+00   0.31250E-01
   2    -0.28436E+00   0.16418E+00   0.31250E-01
   3    -0.14218E+00   0.82089E-01   0.31250E-01
   4     0.00000E+00   0.00000E+00   0.15625E-01
   5     0.56873E+00  -0.32836E+00   0.15625E-01
   6    -0.42655E+00   0.41045E+00   0.31250E-01
   7    -0.28436E+00   0.32836E+00   0.31250E-01
   8    -0.14218E+00   0.24627E+00   0.31250E-01
   9     0.00000E+00   0.16418E+00   0.31250E-01
  10     0.14218E+00   0.82089E-01   0.31250E-01
  11     0.28436E+00   0.25371E-16   0.31250E-01
  12     0.42655E+00  -0.82089E-01   0.31250E-01
  13     0.56873E+00  -0.16418E+00   0.31250E-01
  14    -0.42655E+00   0.57462E+00   0.31250E-01
  15    -0.28436E+00   0.49253E+00   0.31250E-01
  16    -0.14218E+00   0.41045E+00   0.31250E-01
  17     0.00000E+00   0.32836E+00   0.31250E-01
  18     0.14218E+00   0.24627E+00   0.31250E-01
  19     0.28436E+00   0.16418E+00   0.31250E-01
  20     0.42655E+00   0.82089E-01   0.31250E-01
  21     0.56873E+00   0.50742E-16   0.31250E-01
  22    -0.42655E+00   0.73880E+00   0.31250E-01
  23    -0.28436E+00   0.65671E+00   0.31250E-01
  24    -0.14218E+00   0.57462E+00   0.31250E-01
  25     0.00000E+00   0.49253E+00   0.31250E-01
  26     0.14218E+00   0.41045E+00   0.31250E-01
  27     0.28436E+00   0.32836E+00   0.31250E-01
  28     0.42655E+00   0.24627E+00   0.31250E-01
  29     0.56873E+00   0.16418E+00   0.31250E-01
  30    -0.42655E+00   0.90298E+00   0.15625E-01
  31    -0.28436E+00   0.82089E+00   0.15625E-01
  32    -0.14218E+00   0.73880E+00   0.15625E-01
  33     0.00000E+00   0.65671E+00   0.15625E-01
  34     0.14218E+00   0.57462E+00   0.15625E-01
  35     0.28436E+00   0.49253E+00   0.15625E-01
  36     0.42655E+00   0.41045E+00   0.15625E-01
  37     0.56873E+00   0.32836E+00   0.15625E-01
 Atoms available    / used atoms   :      3 /      3
 Orbitals available / used orbitals:     27 /     27
 q-points for expanding electrode (Bohr**-1):
   1     0.00000E+00   0.00000E+00   0.10000E+01
 Fermi level shift in electrode :        0.00000  eV
Done creating 'bulk_au_111.TSGFL'.

Creating Green's function file for: right
 Right unit cell (Ang):
  2.9231  0.0000  0.0000
  1.4616  2.5315  0.0000
  0.0000  0.0000  7.1601
 Structure of the Right electrode | System electrode:
     X (Ang)   Y (Ang)   Z (Ang)  |   X (Ang)   Y (Ang)   Z (Ang)
     0.00000   0.00000   0.00000  |   0.00000   0.00000   0.00000
     1.46156   0.84383   2.38671  |   1.46156   0.84383   2.38671
     1.46156  -0.84383   4.77342  |   1.46156  -0.84383   4.77342
 WARNING: Connections across 2 unit cells or more in the transport direction.
 WARNING: This is inadvisable.
 WARNING: Please increase the electrode size in the transport direction.
 WARNING: Will proceed without further notice.
 Electrodes with transport k-points  (Bohr**-1) and weights:
   1    -0.42655E+00   0.24627E+00   0.31250E-01
   2    -0.28436E+00   0.16418E+00   0.31250E-01
   3    -0.14218E+00   0.82089E-01   0.31250E-01
   4     0.00000E+00   0.00000E+00   0.15625E-01
   5     0.56873E+00  -0.32836E+00   0.15625E-01
   6    -0.42655E+00   0.41045E+00   0.31250E-01
   7    -0.28436E+00   0.32836E+00   0.31250E-01
   8    -0.14218E+00   0.24627E+00   0.31250E-01
   9     0.00000E+00   0.16418E+00   0.31250E-01
  10     0.14218E+00   0.82089E-01   0.31250E-01
  11     0.28436E+00   0.25371E-16   0.31250E-01
  12     0.42655E+00  -0.82089E-01   0.31250E-01
  13     0.56873E+00  -0.16418E+00   0.31250E-01
  14    -0.42655E+00   0.57462E+00   0.31250E-01
  15    -0.28436E+00   0.49253E+00   0.31250E-01
  16    -0.14218E+00   0.41045E+00   0.31250E-01
  17     0.00000E+00   0.32836E+00   0.31250E-01
  18     0.14218E+00   0.24627E+00   0.31250E-01
  19     0.28436E+00   0.16418E+00   0.31250E-01
  20     0.42655E+00   0.82089E-01   0.31250E-01
  21     0.56873E+00   0.50742E-16   0.31250E-01
  22    -0.42655E+00   0.73880E+00   0.31250E-01
  23    -0.28436E+00   0.65671E+00   0.31250E-01
  24    -0.14218E+00   0.57462E+00   0.31250E-01
  25     0.00000E+00   0.49253E+00   0.31250E-01
  26     0.14218E+00   0.41045E+00   0.31250E-01
  27     0.28436E+00   0.32836E+00   0.31250E-01
  28     0.42655E+00   0.24627E+00   0.31250E-01
  29     0.56873E+00   0.16418E+00   0.31250E-01
  30    -0.42655E+00   0.90298E+00   0.15625E-01
  31    -0.28436E+00   0.82089E+00   0.15625E-01
  32    -0.14218E+00   0.73880E+00   0.15625E-01
  33     0.00000E+00   0.65671E+00   0.15625E-01
  34     0.14218E+00   0.57462E+00   0.15625E-01
  35     0.28436E+00   0.49253E+00   0.15625E-01
  36     0.42655E+00   0.41045E+00   0.15625E-01
  37     0.56873E+00   0.32836E+00   0.15625E-01
 Atoms available    / used atoms   :      3 /      3
 Orbitals available / used orbitals:     27 /     27
 q-points for expanding electrode (Bohr**-1):
   1     0.00000E+00   0.00000E+00   0.10000E+01
 Fermi level shift in electrode :       -0.00000  eV
Done creating 'bulk_au_111.TSGFR'.

Left : GF atoms    / Expanded atoms    :      3 /      3
Left : GF orbitals / Expanded orbitals :     27 /     27
Right: GF atoms    / Expanded atoms    :      3 /      3
Right: GF orbitals / Expanded orbitals :     27 /     27

Naive supercell factors:     7    7    1

superc: Internal auxiliary supercell:     7 x     7 x     1  =      49
superc: Number of atoms, orbitals, and projectors:    441   3969   7056

                     ====================================
                        Single-point calculation
                     ====================================

superc: Internal auxiliary supercell:     7 x     7 x     1  =      49
superc: Number of atoms, orbitals, and projectors:    441   3969   7056

outcell: Unit cell vectors (Ang):
        2.923110    0.000000    0.000000
        1.461555    2.531488    0.000000
        0.000000    0.000000   21.480384

outcell: Cell vector modules (Ang)   :    2.923110    2.923110   21.480384
outcell: Cell angles (23,13,12) (deg):     90.0000     90.0000     60.0000
outcell: Cell volume (Ang**3)        :    158.9509
New_DM. Step:     1
Initializing Density Matrix...
TRANSIESTA: No TS-DensityMatrix file found
TRANSIESTA: Initialization runs using diagon
New grid distribution:   1
           1       1:   15    1:    8    1:   32
           2       1:   15    1:    8   33:   63
           3       1:   15    1:    8   64:   94
           4       1:   15    1:    8   95:  125
           5       1:   15    9:   15    1:   32
           6       1:   15    9:   15   33:   63
           7       1:   15    9:   15   64:   94
           8       1:   15    9:   15   95:  125

InitMesh: MESH =    30 x    30 x   250 =      225000
InitMesh: (bp) =    15 x    15 x   125 =       28125
InitMesh: Mesh cutoff (required, used) =   350.000   374.367 Ry
ExtMesh (bp) on 0 =   107 x   100 x   124 =     1326800
New grid distribution:   2
           1       1:   15    1:   15   16:   31
           2       1:   15    1:   15   47:   62
           3       1:   15    1:   15   63:   78
           4       1:   15    1:   15    1:   15
           5       1:   15    1:   15  111:  125
           6       1:   15    1:   15   32:   46
           7       1:   15    1:   15   79:   94
           8       1:   15    1:   15   95:  110
New grid distribution:   3
           1       1:   15    1:   15    1:   16
           2       1:   15    1:   15   49:   63
           3       1:   15    1:   15   64:   79
           4       1:   15    1:   15   95:  110
           5       1:   15    1:   15   17:   32
           6       1:   15    1:   15   33:   48
           7       1:   15    1:   15   80:   94
           8       1:   15    1:   15  111:  125
Setting up quadratic distribution...
ExtMesh (bp) on 0 =   107 x   107 x   108 =     1236492
PhiOnMesh: Number of (b)points on node 0 =                 3600
PhiOnMesh: nlist on node 0 =               294436

stepf: Fermi-Dirac step function

siesta: Program's energy decomposition (eV):
siesta: Ebs     =      -646.221059
siesta: Eions   =     10541.024256
siesta: Ena     =       524.239355
siesta: Ekin    =      5986.831337
siesta: Enl     =     -2812.095938
siesta: DEna    =         0.000002
siesta: DUscf   =         0.000000
siesta: DUext   =         0.000000
siesta: Exc     =     -1301.466672
siesta: eta*DQ  =         0.000000
siesta: Emadel  =         0.000000
siesta: Emeta   =         0.000000
siesta: Emolmec =         0.000000
siesta: Ekinion =         0.000000
siesta: Eharris =     -8145.893399
siesta: Etot    =     -8143.516172
siesta: FreeEng =     -8143.517427

   scf: iscf   Eharris(eV)      E_KS(eV)   FreeEng(eV)    dDmax  Ef(eV)
   scf:    1    -8145.8934    -8143.5162    -8143.5174  0.22020 -2.4745
timer: Routine,Calls,Time,% =    IterSCF     1       5.702  58.87
   scf:    2    -8145.5700    -8143.5826    -8143.5838  0.21667 -2.4925
   scf:    3    -8142.1993    -8141.8757    -8141.8765  0.10915 -2.8303
   scf:    4    -8142.1545    -8141.9596    -8141.9605  0.09524 -2.8242
   scf:    5    -8142.0942    -8141.9182    -8141.9190  0.00190 -2.8062
   scf:    6    -8142.0942    -8141.9238    -8141.9246  0.00173 -2.8043
   scf:    7    -8142.0942    -8141.9389    -8141.9397  0.00148 -2.8024
   scf:    8    -8142.0942    -8141.9621    -8141.9630  0.00076 -2.8004
   scf:    9    -8142.0942    -8142.0788    -8142.0797  0.00022 -2.8013
   scf:   10    -8142.0942    -8142.0843    -8142.0851  0.00015 -2.8014
   scf:   11    -8142.0942    -8142.0868    -8142.0876  0.00012 -2.8018
   scf:   12    -8142.0942    -8142.0869    -8142.0877  0.00011 -2.8018
   scf:   13    -8142.0942    -8142.0888    -8142.0897  0.00008 -2.8020

SCF Convergence by dMax criterion
max |DM_out - DM_in|:     0.00007721
SCF cycle converged after   13 iterations

                          ************************       
                          *   TRANSIESTA BEGIN   *       
                          ************************       

Creating update lists and calculating SIESTA charge distribution...

transiesta: Total elements / Updated elements :    96831 /    18309

Efermi from SIESTA                   :    -2.80203
Total charge                  [Qt0]  :    99.00000
Charge in update region       [Qc]   :    32.69499
Charge outside update region  [Qcn]  :    66.30501
Left electrode                [L]    :    32.69497
Left electrode/device         [L-C]  :     0.30500
Device                        [C]    :    32.69499
Device/right electrode        [C-R]  :     0.30501
Right electrode               [R]    :    32.69502
Other                         [O]    :     0.30502

 Reading GF file, with title:
   bulk_au_111.TSGFL
 Title: 'Generated GF file'

 Reading GF file, with title:
   bulk_au_111.TSGFR
 Title: 'Generated GF file'

ts-charge:        O        L      L-C        C      C-R        R       Qt
ts-charge:    0.305   32.695    0.305   32.692    0.305   32.695   98.997

siesta: Program's energy decomposition (eV):
siesta: Ebs     =      -688.940534
siesta: Eions   =     10541.024256
siesta: Ena     =       524.239355
siesta: Ekin    =      5727.244179
siesta: Enl     =     -2652.406922
siesta: DEna    =        70.390522
siesta: DUscf   =         3.468609
siesta: DUext   =         0.000000
siesta: Exc     =     -1274.005665
siesta: eta*DQ  =         0.000000
siesta: Emadel  =         0.000000
siesta: Emeta   =         0.000000
siesta: Emolmec =         0.000000
siesta: Ekinion =         0.000000
siesta: Eharris =     -8142.084035
siesta: Etot    =     -8142.094179
siesta: FreeEng =     -8142.095032

transiesta: iscf   Eharris(eV)      E_KS(eV)   FreeEng(eV)    dDmax  Ef(eV)
transiesta:    1    -8142.0840    -8142.0942    -8142.0950  0.00058 -2.8020
timer: Routine,Calls,Time,% =         TS     1       0.608   0.77
timer: Routine,Calls,Time,% =    TS_calc     2       0.606   0.77
ts-charge:        O        L      L-C        C      C-R        R       Qt
ts-charge:    0.305   32.695    0.305   32.696    0.305   32.695   99.001
transiesta:    2    -8142.0980    -8142.0938    -8142.0947  0.00029 -2.8020
ts-charge:        O        L      L-C        C      C-R        R       Qt
ts-charge:    0.305   32.695    0.305   32.695    0.305   32.695   99.000
transiesta:    3    -8142.0938    -8142.0939    -8142.0948  0.00008 -2.8020

SCF Convergence by dMax criterion
max |DM_out - DM_in|:     0.00008210
SCF cycle converged after    3 iterations

Using DM_out to compute the final energy and forces

siesta: E_KS(eV) =            -8142.0937

siesta: E_KS - E_eggbox =     -8142.0937

siesta: Atomic forces (eV/Ang):
----------------------------------------
   Tot   -0.000000   -0.000000    0.000001
----------------------------------------
   Max    0.001430
   Res    0.000394    sqrt( Sum f_i^2 / 3N )
----------------------------------------
   Max    0.001430    constrained

Stress-tensor-Voigt (kbar):       26.17       26.17       52.93       -0.00       -0.00       -0.00
(Free)E + p*V (eV/cell)    -8145.5759
Target enthalpy (eV/cell)    -8142.0946

mulliken: Atomic and Orbital Populations:

Species: Au                  
Atom  Qatom  Qorb
               6s      5dxy    5dyz    5dz2    5dxz    5dx2-y2 6Ppy    6Ppz    
               6Ppx    
   1 11.000   1.003   1.907   1.919   1.892   1.919   1.907   0.152   0.149
              0.152
   2 11.000   1.003   1.907   1.919   1.892   1.919   1.907   0.152   0.149
              0.152
   3 11.000   1.003   1.907   1.919   1.892   1.919   1.907   0.152   0.149
              0.152
   4 11.000   1.003   1.907   1.919   1.892   1.919   1.907   0.152   0.149
              0.152
   5 11.000   1.003   1.907   1.919   1.892   1.919   1.907   0.152   0.149
              0.152
   6 11.000   1.003   1.907   1.919   1.892   1.919   1.907   0.152   0.149
              0.152
   7 11.000   1.003   1.907   1.919   1.892   1.919   1.907   0.152   0.149
              0.152
   8 11.000   1.003   1.907   1.919   1.892   1.919   1.907   0.152   0.149
              0.152
   9 11.000   1.003   1.907   1.919   1.892   1.919   1.907   0.152   0.149
              0.152

mulliken: Qtot =       99.000

coxmol: Writing XMOL coordinates into file bulk_au_111.xyz                                                 

siesta: Program's energy decomposition (eV):
siesta: Ebs     =      -689.074319
siesta: Eions   =     10541.024256
siesta: Ena     =       524.239355
siesta: Ekin    =      5727.240046
siesta: Enl     =     -2652.406792
siesta: DEna    =        70.392515
siesta: DUscf   =         3.468642
siesta: DUext   =         0.000000
siesta: Exc     =     -1274.003210
siesta: eta*DQ  =         0.000000
siesta: Emadel  =         0.000000
siesta: Emeta   =         0.000000
siesta: Emolmec =         0.000000
siesta: Ekinion =         0.000000
siesta: Eharris =     -8142.093771
siesta: Etot    =     -8142.093700
siesta: FreeEng =     -8142.094553

siesta: Final energy (eV):
siesta:  Band Struct. =    -689.074319
siesta:       Kinetic =    5727.240046
siesta:       Hartree =     987.291845
siesta:    Ext. field =       0.000000
siesta:   Exch.-corr. =   -1274.003210
siesta:  Ion-electron =   -6723.716033
siesta:       Ion-ion =   -6858.906348
siesta:       Ekinion =       0.000000
siesta:         Total =   -8142.093700

siesta: Stress tensor (static) (eV/Ang**3):
siesta:     0.016334   -0.000000   -0.000000
siesta:    -0.000000    0.016334   -0.000000
siesta:    -0.000000   -0.000000    0.033037

siesta: Cell volume =        158.950899 Ang**3

siesta: Pressure (static):
siesta:                Solid            Molecule  Units
siesta:          -0.00023854         -0.00023900  Ry/Bohr**3
siesta:          -0.02190196         -0.02194442  eV/Ang**3
siesta:         -35.09119035        -35.15922136  kBar
(Free)E+ p_basis*V_orbitals  =       -8135.858240
(Free)Eharris+ p_basis*V_orbitals  =       -8135.858311
>> End of run:  13-JUN-2018  21:36:09
Job completed
