
                           ***********************       
                           *  WELCOME TO TBTRANS *       
                           ***********************       

reinit: Reading from standard input
************************** Dump of input data file ****************************
SystemName  au_111_capacitor
SystemLabel au_111_capacitor
==================================================
==================================================
# SPECIES AND BASIS
# Number of species
NumberOfSpecies 1
%block ChemicalSpeciesLabel
  1  79 Au
%endblock ChemicalSpeciesLabel
PAO.BasisSize    SZP
PAO.EnergyShift  0.005 Ry
==================================================
==================================================
# K-points
%block kgrid_Monkhorst_Pack
8   0   0   0.0
0   8   0   0.0
0   0   30  0.5
%endblock kgrid_Monkhorst_Pack
==================================================
==================================================
# UNIT CELL
LatticeConstant       2.92311 Ang
%block LatticeVectors
1.000000000   0.00000000000   0.0000000000
0.500000000   0.86602540378   0.0000000000
0.000000000   0.00000000000  10.6144555530
%endblock LatticeVectors
# Atomic coordinates
NumberOfAtoms 10
AtomicCoordinatesFormat ScaledCartesian
%block AtomicCoordinatesAndAtomicSpecies
       0.000000000       0.000000000       0.000000000    1  # A
       0.500000000       0.288675135       0.816496581    1  # B
       0.500000000      -0.288675135       1.632993162    1  # C
       0.000000000       0.000000000       2.449489743    1  # A
       0.500000000       0.288675135       3.265986324    1  # B
       0.500000000       0.288675135       6.531972648    1  # B
       0.500000000      -0.288675135       7.348469229    1  # C
       0.000000000       0.000000000       8.164965810    1  # A
       0.500000000       0.288675135       8.981462391    1  # B
       0.500000000      -0.288675135       9.797958972    1  # C
%endblock AtomicCoordinatesAndAtomicSpecies
==================================================
==================================================
# General variables
ElectronicTemperature  100 K
MeshCutoff           350. Ry
xc.functional         LDA           # Exchange-correlation functional
xc.authors            CA
SpinPolarized .false.
SolutionMethod Transiesta
==================================================
==================================================
# SCF variables
DM.MixSCF1   T
MaxSCFIterations      300           # Maximum number of SCF iter
DM.MixingWeight       0.03          # New DM amount for next SCF cycle
DM.Tolerance          1.d-4         # Tolerance in maximum difference
DM.UseSaveDM          true          # to use continuation files
DM.NumberPulay         5
Diag.DivideAndConquer     no
TS.MixH                  yes
==================================================
==================================================
# MD variables
MD.FinalTimeStep 1
MD.TypeOfRun CG
MD.NumCGsteps     000
MD.UseSaveXV      .true.
==================================================
==================================================
# Output variables
WriteMullikenPop                1
WriteBands                      .false.
SaveRho                         .false.
SaveDeltaRho                    .false.
SaveHS                          .false.
SaveElectrostaticPotential      True
SaveTotalPotential              no
WriteCoorXmol                   .true.
WriteMDXmol                     .true.
WriteMDhistory                  .false.
WriteEigenvalues                yes
==================================================
==================================================
# Parallel variables
Diag.ParallelOverK      yes
==================================================
==================================================
# Transiesta information
# GF OPTIONS
TS.ComplexContour.Emin    -30.0 eV
TS.ComplexContour.NPoles       03
TS.ComplexContour.NCircle      30
TS.ComplexContour.NLine        10
# BIAS OPTIONS
TS.biasContour.NumPoints       15
TS.UpdateDMCROnly        false
# TS OPTIONS
TS.Voltage 1.000000 eV
# TBT OPTIONS
TS.TBT.Emin -0.5 eV
TS.TBT.Emax +0.5 eV
TS.TBT.NPoints 100
TS.TBT.NEigen 3
TS.TBT.Eta        0.000001 Ry
# Write hamiltonian
TS.SaveHS   .true.
# LEFT ELECTRODE
TS.HSFileLeft  ./elec_au_111_abc.TSHS
TS.ReplicateA1Left    1
TS.ReplicateA2Left    1
TS.NumUsedAtomsLeft   03
TS.BufferAtomsLeft    0
# RIGHT ELECTRODE
TS.HSFileRight  ./elec_au_111_abc.TSHS
TS.ReplicateA1Right   1
TS.ReplicateA2Right   1
TS.NumUsedAtomsRight  03
TS.BufferAtomsRight   0
==================================================
==================================================
************************** End of input data file *****************************

reinit: -----------------------------------------------------------------------
reinit: System Name: au_111_capacitor
reinit: -----------------------------------------------------------------------
reinit: System Label: au_111_capacitor                                            
reinit: -----------------------------------------------------------------------
tbtrans: Voltage                         =     1.0000
Emin,Emax =      -0.499999      0.499999
Energy points in tbtrans =        100
tbtrans: Spin-polarized = F
 contour:  Simple Line Contour:
 contour:     -0.49500      0.00001      0.009999989   1
 contour:     -0.48500      0.00001      0.009999989   2
 contour:     -0.47500      0.00001      0.009999989   3
 contour:     -0.46500      0.00001      0.009999989   4
 contour:     -0.45500      0.00001      0.009999989   5
 contour:     -0.44500      0.00001      0.009999989   6
 contour:     -0.43500      0.00001      0.009999989   7
 contour:     -0.42500      0.00001      0.009999989   8
 contour:     -0.41500      0.00001      0.009999989   9
 contour:     -0.40500      0.00001      0.009999989  10
 contour:     -0.39500      0.00001      0.009999989  11
 contour:     -0.38500      0.00001      0.009999989  12
 contour:     -0.37500      0.00001      0.009999989  13
 contour:     -0.36500      0.00001      0.009999989  14
 contour:     -0.35500      0.00001      0.009999989  15
 contour:     -0.34500      0.00001      0.009999989  16
 contour:     -0.33500      0.00001      0.009999989  17
 contour:     -0.32500      0.00001      0.009999989  18
 contour:     -0.31500      0.00001      0.009999989  19
 contour:     -0.30500      0.00001      0.009999989  20
 contour:     -0.29500      0.00001      0.009999989  21
 contour:     -0.28500      0.00001      0.009999989  22
 contour:     -0.27500      0.00001      0.009999989  23
 contour:     -0.26500      0.00001      0.009999989  24
 contour:     -0.25500      0.00001      0.009999989  25
 contour:     -0.24500      0.00001      0.009999989  26
 contour:     -0.23500      0.00001      0.009999989  27
 contour:     -0.22500      0.00001      0.009999989  28
 contour:     -0.21500      0.00001      0.009999989  29
 contour:     -0.20500      0.00001      0.009999989  30
 contour:     -0.19500      0.00001      0.009999989  31
 contour:     -0.18500      0.00001      0.009999989  32
 contour:     -0.17500      0.00001      0.009999989  33
 contour:     -0.16500      0.00001      0.009999989  34
 contour:     -0.15500      0.00001      0.009999989  35
 contour:     -0.14500      0.00001      0.009999989  36
 contour:     -0.13500      0.00001      0.009999989  37
 contour:     -0.12500      0.00001      0.009999989  38
 contour:     -0.11500      0.00001      0.009999989  39
 contour:     -0.10500      0.00001      0.009999989  40
 contour:     -0.09500      0.00001      0.009999989  41
 contour:     -0.08500      0.00001      0.009999989  42
 contour:     -0.07500      0.00001      0.009999989  43
 contour:     -0.06500      0.00001      0.009999989  44
 contour:     -0.05500      0.00001      0.009999989  45
 contour:     -0.04500      0.00001      0.009999989  46
 contour:     -0.03500      0.00001      0.009999989  47
 contour:     -0.02500      0.00001      0.009999989  48
 contour:     -0.01500      0.00001      0.009999989  49
 contour:     -0.00500      0.00001      0.009999989  50
 contour:      0.00500      0.00001      0.009999989  51
 contour:      0.01500      0.00001      0.009999989  52
 contour:      0.02500      0.00001      0.009999989  53
 contour:      0.03500      0.00001      0.009999989  54
 contour:      0.04500      0.00001      0.009999989  55
 contour:      0.05500      0.00001      0.009999989  56
 contour:      0.06500      0.00001      0.009999989  57
 contour:      0.07500      0.00001      0.009999989  58
 contour:      0.08500      0.00001      0.009999989  59
 contour:      0.09500      0.00001      0.009999989  60
 contour:      0.10500      0.00001      0.009999989  61
 contour:      0.11500      0.00001      0.009999989  62
 contour:      0.12500      0.00001      0.009999989  63
 contour:      0.13500      0.00001      0.009999989  64
 contour:      0.14500      0.00001      0.009999989  65
 contour:      0.15500      0.00001      0.009999989  66
 contour:      0.16500      0.00001      0.009999989  67
 contour:      0.17500      0.00001      0.009999989  68
 contour:      0.18500      0.00001      0.009999989  69
 contour:      0.19500      0.00001      0.009999989  70
 contour:      0.20500      0.00001      0.009999989  71
 contour:      0.21500      0.00001      0.009999989  72
 contour:      0.22500      0.00001      0.009999989  73
 contour:      0.23500      0.00001      0.009999989  74
 contour:      0.24500      0.00001      0.009999989  75
 contour:      0.25500      0.00001      0.009999989  76
 contour:      0.26500      0.00001      0.009999989  77
 contour:      0.27500      0.00001      0.009999989  78
 contour:      0.28500      0.00001      0.009999989  79
 contour:      0.29500      0.00001      0.009999989  80
 contour:      0.30500      0.00001      0.009999989  81
 contour:      0.31500      0.00001      0.009999989  82
 contour:      0.32500      0.00001      0.009999989  83
 contour:      0.33500      0.00001      0.009999989  84
 contour:      0.34500      0.00001      0.009999989  85
 contour:      0.35500      0.00001      0.009999989  86
 contour:      0.36500      0.00001      0.009999989  87
 contour:      0.37500      0.00001      0.009999989  88
 contour:      0.38500      0.00001      0.009999989  89
 contour:      0.39500      0.00001      0.009999989  90
 contour:      0.40500      0.00001      0.009999989  91
 contour:      0.41500      0.00001      0.009999989  92
 contour:      0.42500      0.00001      0.009999989  93
 contour:      0.43500      0.00001      0.009999989  94
 contour:      0.44500      0.00001      0.009999989  95
 contour:      0.45500      0.00001      0.009999989  96
 contour:      0.46500      0.00001      0.009999989  97
 contour:      0.47500      0.00001      0.009999989  98
 contour:      0.48500      0.00001      0.009999989  99
 contour:      0.49500      0.00001      0.009999989 100

************************************************************************
 K-Points On Nodes:

 Node  Numb. K Pts.  Tot. K Pts. 
  0        5           40
  1        5           40
  2        5           40
  3        5           40
  4        5           40
  5        5           40
  6        5           40
  7        5           40
------------------------------------------------------------------------
 K-Points Coordinates and Weights (Node,kx,ky,kz,wk),:

        0    -0.42655     0.24627     0.00000     0.01562
        0    -0.28436     0.16418     0.00000     0.01562
        0    -0.14218     0.08209     0.00000     0.01562
        0     0.00000     0.00000     0.00000     0.01562
        0     0.14218    -0.08209     0.00000     0.01562
        1     0.28436    -0.16418     0.00000     0.01562
        1     0.42655    -0.24627     0.00000     0.01562
        1     0.56873    -0.32836     0.00000     0.01562
        1    -0.42655     0.41045     0.00000     0.03125
        1    -0.28436     0.32836     0.00000     0.03125
        2    -0.14218     0.24627     0.00000     0.03125
        2     0.00000     0.16418     0.00000     0.03125
        2     0.14218     0.08209     0.00000     0.03125
        2     0.28436     0.00000     0.00000     0.03125
        2     0.42655    -0.08209     0.00000     0.03125
        3     0.56873    -0.16418     0.00000     0.03125
        3    -0.42655     0.57462     0.00000     0.03125
        3    -0.28436     0.49253     0.00000     0.03125
        3    -0.14218     0.41045     0.00000     0.03125
        3     0.00000     0.32836     0.00000     0.03125
        4     0.14218     0.24627     0.00000     0.03125
        4     0.28436     0.16418     0.00000     0.03125
        4     0.42655     0.08209     0.00000     0.03125
        4     0.56873     0.00000     0.00000     0.03125
        4    -0.42655     0.73880     0.00000     0.03125
        5    -0.28436     0.65671     0.00000     0.03125
        5    -0.14218     0.57462     0.00000     0.03125
        5     0.00000     0.49253     0.00000     0.03125
        5     0.14218     0.41045     0.00000     0.03125
        5     0.28436     0.32836     0.00000     0.03125
        6     0.42655     0.24627     0.00000     0.03125
        6     0.56873     0.16418     0.00000     0.03125
        6    -0.42655     0.90298     0.00000     0.01562
        6    -0.28436     0.82089     0.00000     0.01562
        6    -0.14218     0.73880     0.00000     0.01562
        7     0.00000     0.65671     0.00000     0.01562
        7     0.14218     0.57462     0.00000     0.01562
        7     0.28436     0.49253     0.00000     0.01562
        7     0.42655     0.41045     0.00000     0.01562
        7     0.56873     0.32836     0.00000     0.01562
************************************************************************

 unit cell:
  5.5239  0.0000  0.0000
  2.7619  4.7838  0.0000
  0.0000  0.0000 13.5307
 unit cell:
  5.5239  0.0000  0.0000
  2.7619  4.7838  0.0000
  0.0000  0.0000 13.5307
 ==============================================================
  Projection Region: atoms : [         4;         7]
  Projection Region: states: [         1;        36] Tot:        36

  Starting K-Point loop for spin:   1

 Transport for spin ->  1  , kxy-point ->   1, of Node     0
           kxy=(-.427 0.246 0.000 ),w= 0.0156
    E           T(E)            TotDOS         PDOS
 -0.49500  0.58672625E-41  0.12785057E+02  0.12785057E+02
 -0.48500  0.56897531E-41  0.12762526E+02  0.12762526E+02
 -0.47500  0.55119404E-41  0.12740545E+02  0.12740545E+02
 -0.46500  0.53342837E-41  0.12719108E+02  0.12719108E+02
 -0.45500  0.51572532E-41  0.12698205E+02  0.12698205E+02
 -0.44500  0.49813297E-41  0.12677828E+02  0.12677828E+02
 -0.43500  0.48070037E-41  0.12657971E+02  0.12657971E+02
 -0.42500  0.46347754E-41  0.12638625E+02  0.12638625E+02
 -0.41500  0.44651532E-41  0.12619785E+02  0.12619785E+02
 -0.40500  0.42986540E-41  0.12601443E+02  0.12601443E+02
 -0.39500  0.41358019E-41  0.12583593E+02  0.12583593E+02
 -0.38500  0.39771277E-41  0.12566229E+02  0.12566229E+02
 -0.37500  0.38231683E-41  0.12549345E+02  0.12549345E+02
 -0.36500  0.36744658E-41  0.12532936E+02  0.12532936E+02
 -0.35500  0.35315671E-41  0.12516996E+02  0.12516996E+02
 -0.34500  0.33950229E-41  0.12501520E+02  0.12501520E+02
 -0.33500  0.32653868E-41  0.12486503E+02  0.12486503E+02
 -0.32500  0.31432149E-41  0.12471939E+02  0.12471939E+02
 -0.31500  0.30290650E-41  0.12457825E+02  0.12457825E+02
 -0.30500  0.29234952E-41  0.12444156E+02  0.12444156E+02
 -0.29500  0.28270641E-41  0.12430927E+02  0.12430927E+02
 -0.28500  0.27403290E-41  0.12418134E+02  0.12418134E+02
 -0.27500  0.26638457E-41  0.12405773E+02  0.12405773E+02
 -0.26500  0.25981675E-41  0.12393841E+02  0.12393841E+02
 -0.25500  0.25438441E-41  0.12382332E+02  0.12382332E+02
 -0.24500  0.25014214E-41  0.12371243E+02  0.12371243E+02
 -0.23500  0.24714398E-41  0.12360571E+02  0.12360571E+02
 -0.22500  0.24544341E-41  0.12350312E+02  0.12350312E+02
 -0.21500  0.24509321E-41  0.12340462E+02  0.12340462E+02
 -0.20500  0.24614541E-41  0.12331019E+02  0.12331019E+02
 -0.19500  0.24865118E-41  0.12321978E+02  0.12321978E+02
 -0.18500  0.25266076E-41  0.12313337E+02  0.12313337E+02
 -0.17500  0.25822337E-41  0.12305092E+02  0.12305092E+02
 -0.16500  0.26538710E-41  0.12297240E+02  0.12297240E+02
 -0.15500  0.27419888E-41  0.12289779E+02  0.12289779E+02
 -0.14500  0.28470433E-41  0.12282704E+02  0.12282704E+02
 -0.13500  0.29694773E-41  0.12276013E+02  0.12276013E+02
 -0.12500  0.31097190E-41  0.12269704E+02  0.12269704E+02
 -0.11500  0.32681813E-41  0.12263773E+02  0.12263773E+02
 -0.10500  0.34452611E-41  0.12258218E+02  0.12258218E+02
 -0.09500  0.36413384E-41  0.12253036E+02  0.12253036E+02
 -0.08500  0.38567753E-41  0.12248223E+02  0.12248223E+02
 -0.07500  0.40919156E-41  0.12243778E+02  0.12243778E+02
 -0.06500  0.43470838E-41  0.12239698E+02  0.12239698E+02
 -0.05500  0.46225843E-41  0.12235980E+02  0.12235980E+02
 -0.04500  0.49187010E-41  0.12232621E+02  0.12232621E+02
 -0.03500  0.52356960E-41  0.12229619E+02  0.12229619E+02
 -0.02500  0.55738097E-41  0.12226971E+02  0.12226971E+02
 -0.01500  0.59332593E-41  0.12224675E+02  0.12224675E+02
 -0.00500  0.63142387E-41  0.12222728E+02  0.12222728E+02
  0.00500  0.67169178E-41  0.12221128E+02  0.12221128E+02
  0.01500  0.71414416E-41  0.12219873E+02  0.12219873E+02
  0.02500  0.75879299E-41  0.12218959E+02  0.12218959E+02
  0.03500  0.80564768E-41  0.12218384E+02  0.12218384E+02
  0.04500  0.85471498E-41  0.12218146E+02  0.12218146E+02
  0.05500  0.90599898E-41  0.12218242E+02  0.12218242E+02
  0.06500  0.95950101E-41  0.12218671E+02  0.12218671E+02
  0.07500  0.10152197E-40  0.12219429E+02  0.12219429E+02
  0.08500  0.10731507E-40  0.12220513E+02  0.12220513E+02
  0.09500  0.11332869E-40  0.12221923E+02  0.12221923E+02
  0.10500  0.11956184E-40  0.12223654E+02  0.12223654E+02
  0.11500  0.12601323E-40  0.12225706E+02  0.12225706E+02
  0.12500  0.13268127E-40  0.12228075E+02  0.12228075E+02
  0.13500  0.13956407E-40  0.12230758E+02  0.12230758E+02
  0.14500  0.14665946E-40  0.12233754E+02  0.12233754E+02
  0.15500  0.15396495E-40  0.12237060E+02  0.12237060E+02
  0.16500  0.16147776E-40  0.12240674E+02  0.12240674E+02
  0.17500  0.16919481E-40  0.12244592E+02  0.12244592E+02
  0.18500  0.17711269E-40  0.12248814E+02  0.12248814E+02
  0.19500  0.18522772E-40  0.12253335E+02  0.12253335E+02
  0.20500  0.19353591E-40  0.12258154E+02  0.12258154E+02
  0.21500  0.20203295E-40  0.12263269E+02  0.12263269E+02
  0.22500  0.21071424E-40  0.12268676E+02  0.12268676E+02
  0.23500  0.21957489E-40  0.12274374E+02  0.12274374E+02
  0.24500  0.22860970E-40  0.12280359E+02  0.12280359E+02
  0.25500  0.23781319E-40  0.12286630E+02  0.12286630E+02
  0.26500  0.24717958E-40  0.12293185E+02  0.12293185E+02
  0.27500  0.25670284E-40  0.12300021E+02  0.12300021E+02
  0.28500  0.26637677E-40  0.12307139E+02  0.12307139E+02
  0.29500  0.27619977E-40  0.12314655E+02  0.12314655E+02
  0.30500  0.28614660E-40  0.12322141E+02  0.12322141E+02
  0.31500  0.29623110E-40  0.12330081E+02  0.12330081E+02
  0.32500  0.30643745E-40  0.12338280E+02  0.12338280E+02
  0.33500  0.31675824E-40  0.12346741E+02  0.12346741E+02
  0.34500  0.32718554E-40  0.12355463E+02  0.12355463E+02
  0.35500  0.33771115E-40  0.12364444E+02  0.12364444E+02
  0.36500  0.34832661E-40  0.12373682E+02  0.12373682E+02
  0.37500  0.35902325E-40  0.12383173E+02  0.12383173E+02
  0.38500  0.36979213E-40  0.12392915E+02  0.12392915E+02
  0.39500  0.38062412E-40  0.12402906E+02  0.12402906E+02
  0.40500  0.39150988E-40  0.12413142E+02  0.12413142E+02
  0.41500  0.40243986E-40  0.12423621E+02  0.12423621E+02
  0.42500  0.41340432E-40  0.12434340E+02  0.12434340E+02
  0.43500  0.42439334E-40  0.12445296E+02  0.12445296E+02
  0.44500  0.43539685E-40  0.12456487E+02  0.12456487E+02
  0.45500  0.44640458E-40  0.12467910E+02  0.12467910E+02
  0.46500  0.45740615E-40  0.12479561E+02  0.12479561E+02
  0.47500  0.46839103E-40  0.12491438E+02  0.12491438E+02
  0.48500  0.47934854E-40  0.12503538E+02  0.12503538E+02
  0.49500  0.49026792E-40  0.12515859E+02  0.12515859E+02
 Transport for spin ->  1  , kxy-point ->   2, of Node     0
           kxy=(-.284 0.164 0.000 ),w= 0.0156
    E           T(E)            TotDOS         PDOS
 -0.49500  0.12070823E-40  0.14979927E+02  0.14979927E+02
 -0.48500  0.12085459E-40  0.14977279E+02  0.14977279E+02
 -0.47500  0.12088623E-40  0.14974931E+02  0.14974931E+02
 -0.46500  0.12080234E-40  0.14972874E+02  0.14972874E+02
 -0.45500  0.12060237E-40  0.14971101E+02  0.14971101E+02
 -0.44500  0.12028600E-40  0.14969606E+02  0.14969606E+02
 -0.43500  0.11985317E-40  0.14968380E+02  0.14968380E+02
 -0.42500  0.11930407E-40  0.14967417E+02  0.14967417E+02
 -0.41500  0.11863912E-40  0.14966709E+02  0.14966709E+02
 -0.40500  0.11785901E-40  0.14966249E+02  0.14966249E+02
 -0.39500  0.11696469E-40  0.14966030E+02  0.14966030E+02
 -0.38500  0.11595735E-40  0.14966043E+02  0.14966043E+02
 -0.37500  0.11483843E-40  0.14966283E+02  0.14966283E+02
 -0.36500  0.11360962E-40  0.14966740E+02  0.14966740E+02
 -0.35500  0.11227287E-40  0.14967409E+02  0.14967409E+02
 -0.34500  0.11083038E-40  0.14968281E+02  0.14968281E+02
 -0.33500  0.10928457E-40  0.14969349E+02  0.14969349E+02
 -0.32500  0.10763812E-40  0.14970606E+02  0.14970606E+02
 -0.31500  0.10589394E-40  0.14972043E+02  0.14972043E+02
 -0.30500  0.10405517E-40  0.14973654E+02  0.14973654E+02
 -0.29500  0.10212518E-40  0.14975430E+02  0.14975430E+02
 -0.28500  0.10010756E-40  0.14977366E+02  0.14977366E+02
 -0.27500  0.98006109E-41  0.14979452E+02  0.14979452E+02
 -0.26500  0.95824833E-41  0.14981681E+02  0.14981681E+02
 -0.25500  0.93567942E-41  0.14984046E+02  0.14984046E+02
 -0.24500  0.91239833E-41  0.14986539E+02  0.14986539E+02
 -0.23500  0.88845089E-41  0.14989153E+02  0.14989153E+02
 -0.22500  0.86388465E-41  0.14991880E+02  0.14991880E+02
 -0.21500  0.83874882E-41  0.14994713E+02  0.14994713E+02
 -0.20500  0.81309417E-41  0.14997644E+02  0.14997644E+02
 -0.19500  0.78697290E-41  0.15000666E+02  0.15000666E+02
 -0.18500  0.76043858E-41  0.15003770E+02  0.15003770E+02
 -0.17500  0.73354600E-41  0.15006951E+02  0.15006951E+02
 -0.16500  0.70635110E-41  0.15010199E+02  0.15010199E+02
 -0.15500  0.67891082E-41  0.15013509E+02  0.15013509E+02
 -0.14500  0.65128301E-41  0.15016872E+02  0.15016872E+02
 -0.13500  0.62352633E-41  0.15020282E+02  0.15020282E+02
 -0.12500  0.59570014E-41  0.15023734E+02  0.15023734E+02
 -0.11500  0.56786460E-41  0.15027225E+02  0.15027225E+02
 -0.10500  0.54008233E-41  0.15030782E+02  0.15030782E+02
 -0.09500  0.51237982E-41  0.15033906E+02  0.15033906E+02
 -0.08500  0.48489116E-41  0.15037656E+02  0.15037656E+02
 -0.07500  0.45762070E-41  0.15041206E+02  0.15041206E+02
 -0.06500  0.43064168E-41  0.15044734E+02  0.15044734E+02
 -0.05500  0.40401517E-41  0.15048244E+02  0.15048244E+02
 -0.04500  0.37780132E-41  0.15051731E+02  0.15051731E+02
 -0.03500  0.35205965E-41  0.15055189E+02  0.15055189E+02
 -0.02500  0.32684902E-41  0.15058612E+02  0.15058612E+02
 -0.01500  0.30222754E-41  0.15061993E+02  0.15061993E+02
 -0.00500  0.27825245E-41  0.15065324E+02  0.15065324E+02
  0.00500  0.25497999E-41  0.15068599E+02  0.15068599E+02
  0.01500  0.23246527E-41  0.15071810E+02  0.15071810E+02
  0.02500  0.21076220E-41  0.15074952E+02  0.15074952E+02
  0.03500  0.18992331E-41  0.15078016E+02  0.15078016E+02
  0.04500  0.16999970E-41  0.15080997E+02  0.15080997E+02
  0.05500  0.15104089E-41  0.15083887E+02  0.15083887E+02
  0.06500  0.13309470E-41  0.15086679E+02  0.15086679E+02
  0.07500  0.11620719E-41  0.15089368E+02  0.15089368E+02
  0.08500  0.10042256E-41  0.15091946E+02  0.15091946E+02
  0.09500  0.85782992E-42  0.15094407E+02  0.15094407E+02
  0.10500  0.72328632E-42  0.15096744E+02  0.15096744E+02
  0.11500  0.60097464E-42  0.15098951E+02  0.15098951E+02
  0.12500  0.49125239E-42  0.15101021E+02  0.15101021E+02
  0.13500  0.39445396E-42  0.15102948E+02  0.15102948E+02
  0.14500  0.31088989E-42  0.15104727E+02  0.15104727E+02
  0.15500  0.24084624E-42  0.15106350E+02  0.15106350E+02
  0.16500  0.18458392E-42  0.15107812E+02  0.15107812E+02
  0.17500  0.14233818E-42  0.15109106E+02  0.15109106E+02
  0.18500  0.11431805E-42  0.15110227E+02  0.15110227E+02
  0.19500  0.10070596E-42  0.15111169E+02  0.15111169E+02
  0.20500  0.10165727E-42  0.15111925E+02  0.15111925E+02
  0.21500  0.11729999E-42  0.15112491E+02  0.15112491E+02
  0.22500  0.14773450E-42  0.15112861E+02  0.15112861E+02
  0.23500  0.19303331E-42  0.15113028E+02  0.15113028E+02
  0.24500  0.25324093E-42  0.15112988E+02  0.15112988E+02
  0.25500  0.32837375E-42  0.15112735E+02  0.15112735E+02
  0.26500  0.41842003E-42  0.15112264E+02  0.15112264E+02
  0.27500  0.52333991E-42  0.15111569E+02  0.15111569E+02
  0.28500  0.64306548E-42  0.15110646E+02  0.15110646E+02
  0.29500  0.77750094E-42  0.15109489E+02  0.15109489E+02
  0.30500  0.92652279E-42  0.15108094E+02  0.15108094E+02
  0.31500  0.10899801E-41  0.15106455E+02  0.15106455E+02
  0.32500  0.12676948E-41  0.15104568E+02  0.15104568E+02
  0.33500  0.14594622E-41  0.15102427E+02  0.15102427E+02
  0.34500  0.16650509E-41  0.15100030E+02  0.15100030E+02
  0.35500  0.18842042E-41  0.15097370E+02  0.15097370E+02
  0.36500  0.21166396E-41  0.15094444E+02  0.15094444E+02
  0.37500  0.23620501E-41  0.15091247E+02  0.15091247E+02
  0.38500  0.26201046E-41  0.15087775E+02  0.15087775E+02
  0.39500  0.28904484E-41  0.15084024E+02  0.15084024E+02
  0.40500  0.31727043E-41  0.15079990E+02  0.15079990E+02
  0.41500  0.34664731E-41  0.15075669E+02  0.15075669E+02
  0.42500  0.37713344E-41  0.15071057E+02  0.15071057E+02
  0.43500  0.40868475E-41  0.15066151E+02  0.15066151E+02
  0.44500  0.44125525E-41  0.15060947E+02  0.15060947E+02
  0.45500  0.47479708E-41  0.15055441E+02  0.15055441E+02
  0.46500  0.50926064E-41  0.15049630E+02  0.15049630E+02
  0.47500  0.54459469E-41  0.15043510E+02  0.15043510E+02
  0.48500  0.58074641E-41  0.15037080E+02  0.15037080E+02
  0.49500  0.61766156E-41  0.15030334E+02  0.15030334E+02
 Transport for spin ->  1  , kxy-point ->   3, of Node     0
           kxy=(-.142 0.082 0.000 ),w= 0.0156
    E           T(E)            TotDOS         PDOS
 -0.49500  0.23831201E-41  0.13493293E+02  0.13493293E+02
 -0.48500  0.23861125E-41  0.13478674E+02  0.13478674E+02
 -0.47500  0.23864678E-41  0.13464231E+02  0.13464231E+02
 -0.46500  0.23841852E-41  0.13449957E+02  0.13449957E+02
 -0.45500  0.23792700E-41  0.13435849E+02  0.13435849E+02
 -0.44500  0.23717337E-41  0.13421903E+02  0.13421903E+02
 -0.43500  0.23615935E-41  0.13408116E+02  0.13408116E+02
 -0.42500  0.23488728E-41  0.13394486E+02  0.13394486E+02
 -0.41500  0.23336010E-41  0.13381008E+02  0.13381008E+02
 -0.40500  0.23158130E-41  0.13367681E+02  0.13367681E+02
 -0.39500  0.22955497E-41  0.13354503E+02  0.13354503E+02
 -0.38500  0.22728572E-41  0.13341473E+02  0.13341473E+02
 -0.37500  0.22477874E-41  0.13328588E+02  0.13328588E+02
 -0.36500  0.22203973E-41  0.13315848E+02  0.13315848E+02
 -0.35500  0.21907489E-41  0.13303252E+02  0.13303252E+02
 -0.34500  0.21589094E-41  0.13290799E+02  0.13290799E+02
 -0.33500  0.21249507E-41  0.13278490E+02  0.13278490E+02
 -0.32500  0.20889494E-41  0.13266323E+02  0.13266323E+02
 -0.31500  0.20509863E-41  0.13254301E+02  0.13254301E+02
 -0.30500  0.20111467E-41  0.13242423E+02  0.13242423E+02
 -0.29500  0.19695196E-41  0.13230690E+02  0.13230690E+02
 -0.28500  0.19261981E-41  0.13219103E+02  0.13219103E+02
 -0.27500  0.18812786E-41  0.13207664E+02  0.13207664E+02
 -0.26500  0.18348612E-41  0.13196375E+02  0.13196375E+02
 -0.25500  0.17870487E-41  0.13185238E+02  0.13185238E+02
 -0.24500  0.17379471E-41  0.13174254E+02  0.13174254E+02
 -0.23500  0.16876650E-41  0.13163427E+02  0.13163427E+02
 -0.22500  0.16363132E-41  0.13152759E+02  0.13152759E+02
 -0.21500  0.15840050E-41  0.13142253E+02  0.13142253E+02
 -0.20500  0.15308553E-41  0.13131912E+02  0.13131912E+02
 -0.19500  0.14769810E-41  0.13121740E+02  0.13121740E+02
 -0.18500  0.14225000E-41  0.13111741E+02  0.13111741E+02
 -0.17500  0.13675317E-41  0.13101918E+02  0.13101918E+02
 -0.16500  0.13121964E-41  0.13092276E+02  0.13092276E+02
 -0.15500  0.12566150E-41  0.13082820E+02  0.13082820E+02
 -0.14500  0.12009087E-41  0.13073553E+02  0.13073553E+02
 -0.13500  0.11451992E-41  0.13064481E+02  0.13064481E+02
 -0.12500  0.10896080E-41  0.13055610E+02  0.13055610E+02
 -0.11500  0.10342561E-41  0.13046944E+02  0.13046944E+02
 -0.10500  0.97926428E-42  0.13038489E+02  0.13038489E+02
 -0.09500  0.92475239E-42  0.13030251E+02  0.13030251E+02
 -0.08500  0.87083930E-42  0.13022237E+02  0.13022237E+02
 -0.07500  0.81764268E-42  0.13014452E+02  0.13014452E+02
 -0.06500  0.76527873E-42  0.13006903E+02  0.13006903E+02
 -0.05500  0.71386199E-42  0.12999596E+02  0.12999596E+02
 -0.04500  0.66350513E-42  0.12992540E+02  0.12992540E+02
 -0.03500  0.61431873E-42  0.12985741E+02  0.12985741E+02
 -0.02500  0.56641110E-42  0.12979207E+02  0.12979207E+02
 -0.01500  0.51988804E-42  0.12972945E+02  0.12972945E+02
 -0.00500  0.47485272E-42  0.12966963E+02  0.12966963E+02
  0.00500  0.43140542E-42  0.12961270E+02  0.12961270E+02
  0.01500  0.38964341E-42  0.12955873E+02  0.12955873E+02
  0.02500  0.34966077E-42  0.12950782E+02  0.12950782E+02
  0.03500  0.31154820E-42  0.12946005E+02  0.12946005E+02
  0.04500  0.27539290E-42  0.12941551E+02  0.12941551E+02
  0.05500  0.24127838E-42  0.12937429E+02  0.12937429E+02
  0.06500  0.20928436E-42  0.12933649E+02  0.12933649E+02
  0.07500  0.17948662E-42  0.12930221E+02  0.12930221E+02
  0.08500  0.15195685E-42  0.12927153E+02  0.12927153E+02
  0.09500  0.12676258E-42  0.12924457E+02  0.12924457E+02
  0.10500  0.10396700E-42  0.12922142E+02  0.12922142E+02
  0.11500  0.83628913E-43  0.12920218E+02  0.12920218E+02
  0.12500  0.65802615E-43  0.12918696E+02  0.12918696E+02
  0.13500  0.50537792E-43  0.12917586E+02  0.12917586E+02
  0.14500  0.37879445E-43  0.12916899E+02  0.12916899E+02
  0.15500  0.27867813E-43  0.12916645E+02  0.12916645E+02
  0.16500  0.20538293E-43  0.12916835E+02  0.12916835E+02
  0.17500  0.15921378E-43  0.12917479E+02  0.12917479E+02
  0.18500  0.14042595E-43  0.12918588E+02  0.12918588E+02
  0.19500  0.14922444E-43  0.12920173E+02  0.12920173E+02
  0.20500  0.18576349E-43  0.12922243E+02  0.12922243E+02
  0.21500  0.25014608E-43  0.12924808E+02  0.12924808E+02
  0.22500  0.34242347E-43  0.12927878E+02  0.12927878E+02
  0.23500  0.46259473E-43  0.12931461E+02  0.12931461E+02
  0.24500  0.61060633E-43  0.12935567E+02  0.12935567E+02
  0.25500  0.78635167E-43  0.12940201E+02  0.12940201E+02
  0.26500  0.98967062E-43  0.12945372E+02  0.12945372E+02
  0.27500  0.12203490E-42  0.12951084E+02  0.12951084E+02
  0.28500  0.14781179E-42  0.12957342E+02  0.12957342E+02
  0.29500  0.17626534E-42  0.12964147E+02  0.12964147E+02
  0.30500  0.20735749E-42  0.12971500E+02  0.12971500E+02
  0.31500  0.24104454E-42  0.12979398E+02  0.12979398E+02
  0.32500  0.27727689E-42  0.12987836E+02  0.12987836E+02
  0.33500  0.31599901E-42  0.12996804E+02  0.12996804E+02
  0.34500  0.35714921E-42  0.13006290E+02  0.13006290E+02
  0.35500  0.40065937E-42  0.13016275E+02  0.13016275E+02
  0.36500  0.44645475E-42  0.13026733E+02  0.13026733E+02
  0.37500  0.49445358E-42  0.13037632E+02  0.13037632E+02
  0.38500  0.54456661E-42  0.13048931E+02  0.13048931E+02
  0.39500  0.59669661E-42  0.13060577E+02  0.13060577E+02
  0.40500  0.65073768E-42  0.13072504E+02  0.13072504E+02
  0.41500  0.70657436E-42  0.13084633E+02  0.13084633E+02
  0.42500  0.76408062E-42  0.13096860E+02  0.13096860E+02
  0.43500  0.82311849E-42  0.13109064E+02  0.13109064E+02
  0.44500  0.88353639E-42  0.13121090E+02  0.13121090E+02
  0.45500  0.94516701E-42  0.13132750E+02  0.13132750E+02
  0.46500  0.10078246E-41  0.13143815E+02  0.13143815E+02
  0.47500  0.10713016E-41  0.13153999E+02  0.13153999E+02
  0.48500  0.11353640E-41  0.13162950E+02  0.13162950E+02
  0.49500  0.11997459E-41  0.13170233E+02  0.13170233E+02
 Transport for spin ->  1  , kxy-point ->   4, of Node     0
           kxy=(0.000 0.000 0.000 ),w= 0.0156
    E           T(E)            TotDOS         PDOS
 -0.49500  0.56669842E-44  0.39042287E+01  0.39042287E+01
 -0.48500  0.25670118E-43  0.41394172E+01  0.41394172E+01
 -0.47500  0.29440305E-41  0.40287629E+02  0.40287629E+02
 -0.46500  0.19277236E-43  0.40005622E+01  0.40005622E+01
 -0.45500  0.53821794E-44  0.38118049E+01  0.38118049E+01
 -0.44500  0.25299464E-44  0.37571421E+01  0.37571421E+01
 -0.43500  0.14830437E-44  0.37237394E+01  0.37237394E+01
 -0.42500  0.98262177E-45  0.36963549E+01  0.36963549E+01
 -0.41500  0.70371908E-45  0.36710674E+01  0.36710674E+01
 -0.40500  0.53175502E-45  0.36464844E+01  0.36464844E+01
 -0.39500  0.41784298E-45  0.36219949E+01  0.36219949E+01
 -0.38500  0.33822580E-45  0.35972828E+01  0.35972828E+01
 -0.37500  0.28020725E-45  0.35721592E+01  0.35721592E+01
 -0.36500  0.23649085E-45  0.35464946E+01  0.35464946E+01
 -0.35500  0.20263533E-45  0.35201889E+01  0.35201889E+01
 -0.34500  0.17580833E-45  0.34931562E+01  0.34931562E+01
 -0.33500  0.15413241E-45  0.34653170E+01  0.34653170E+01
 -0.32500  0.13632197E-45  0.34365931E+01  0.34365931E+01
 -0.31500  0.12147190E-45  0.34069049E+01  0.34069049E+01
 -0.30500  0.10892944E-45  0.33761693E+01  0.33761693E+01
 -0.29500  0.98213903E-46  0.33442975E+01  0.33442975E+01
 -0.28500  0.88964680E-46  0.33111941E+01  0.33111941E+01
 -0.27500  0.80906792E-46  0.32767555E+01  0.32767555E+01
 -0.26500  0.73827453E-46  0.32408681E+01  0.32408681E+01
 -0.25500  0.67559816E-46  0.32034070E+01  0.32034070E+01
 -0.24500  0.61971478E-46  0.31642343E+01  0.31642343E+01
 -0.23500  0.56956218E-46  0.31231966E+01  0.31231966E+01
 -0.22500  0.52427955E-46  0.30801227E+01  0.30801227E+01
 -0.21500  0.48316278E-46  0.30348206E+01  0.30348206E+01
 -0.20500  0.44563086E-46  0.29870741E+01  0.29870741E+01
 -0.19500  0.41120035E-46  0.29366381E+01  0.29366381E+01
 -0.18500  0.37946572E-46  0.28832335E+01  0.28832335E+01
 -0.17500  0.35008408E-46  0.28265399E+01  0.28265399E+01
 -0.16500  0.32276302E-46  0.27661874E+01  0.27661874E+01
 -0.15500  0.29725102E-46  0.27017448E+01  0.27017448E+01
 -0.14500  0.27332948E-46  0.26327052E+01  0.26327052E+01
 -0.13500  0.25080615E-46  0.25584661E+01  0.25584661E+01
 -0.12500  0.22950937E-46  0.24783018E+01  0.24783018E+01
 -0.11500  0.20928281E-46  0.23913255E+01  0.23913255E+01
 -0.10500  0.18998023E-46  0.22964335E+01  0.22964335E+01
 -0.09500  0.17145967E-46  0.21922217E+01  0.21922217E+01
 -0.08500  0.15357618E-46  0.20768538E+01  0.20768538E+01
 -0.07500  0.13617125E-46  0.19478435E+01  0.19478435E+01
 -0.06500  0.11905521E-46  0.18016652E+01  0.18016652E+01
 -0.05500  0.10197379E-46  0.16329932E+01  0.16329932E+01
 -0.04500  0.84533010E-47  0.14330061E+01  0.14330061E+01
 -0.03500  0.65990835E-47  0.11847613E+01  0.11847613E+01
 -0.02500  0.44413578E-47  0.84496715E+00  0.84496715E+00
 -0.01500  0.18469009E-49  0.39104055E-02  0.39104055E-02
 -0.00500  0.28563605E-50  0.79971947E-03  0.79971947E-03
  0.00500  0.19790350E-50  0.63637879E-03  0.63637879E-03
  0.01500  0.15777455E-50  0.56518854E-03  0.56518854E-03
  0.02500  0.13345077E-50  0.52421771E-03  0.52421771E-03
  0.03500  0.11670474E-50  0.49772403E-03  0.49772403E-03
  0.04500  0.10430393E-50  0.47962868E-03  0.47962868E-03
  0.05500  0.94679621E-51  0.46703645E-03  0.46703645E-03
  0.06500  0.86964406E-51  0.45838149E-03  0.45838149E-03
  0.07500  0.80633934E-51  0.45274390E-03  0.45274390E-03
  0.08500  0.75350139E-51  0.44955363E-03  0.44955363E-03
  0.09500  0.70884283E-51  0.44844670E-03  0.44844670E-03
  0.10500  0.67075822E-51  0.44918948E-03  0.44918948E-03
  0.11500  0.63808920E-51  0.45163623E-03  0.45163623E-03
  0.12500  0.60998311E-51  0.45570435E-03  0.45570435E-03
  0.13500  0.58580442E-51  0.46135953E-03  0.46135953E-03
  0.14500  0.56507731E-51  0.46860699E-03  0.46860699E-03
  0.15500  0.54744771E-51  0.47748659E-03  0.47748659E-03
  0.16500  0.53265780E-51  0.48807054E-03  0.48807054E-03
  0.17500  0.52052898E-51  0.50046325E-03  0.50046325E-03
  0.18500  0.51095090E-51  0.51480278E-03  0.51480278E-03
  0.19500  0.50387488E-51  0.53126394E-03  0.53126394E-03
  0.20500  0.49931099E-51  0.55006305E-03  0.55006305E-03
  0.21500  0.49732833E-51  0.57146450E-03  0.57146450E-03
  0.22500  0.49805833E-51  0.59578959E-03  0.59578959E-03
  0.23500  0.50170129E-51  0.62342804E-03  0.62342804E-03
  0.24500  0.50853663E-51  0.65485313E-03  0.65485313E-03
  0.25500  0.51893767E-51  0.69064134E-03  0.69064134E-03
  0.26500  0.53339223E-51  0.73149823E-03  0.73149823E-03
  0.27500  0.55253089E-51  0.77829260E-03  0.77829260E-03
  0.28500  0.57716574E-51  0.83210212E-03  0.83210212E-03
  0.29500  0.60834369E-51  0.89427492E-03  0.89427492E-03
  0.30500  0.64742045E-51  0.96651380E-03  0.96651380E-03
  0.31500  0.69616443E-51  0.10509930E-02  0.10509930E-02
  0.32500  0.75690467E-51  0.11505230E-02  0.11505230E-02
  0.33500  0.83274526E-51  0.12687861E-02  0.12687861E-02
  0.34500  0.92788172E-51  0.14106827E-02  0.14106827E-02
  0.35500  0.10480786E-50  0.15828472E-02  0.15828472E-02
  0.36500  0.12014082E-50  0.17944412E-02  0.17944412E-02
  0.37500  0.13994256E-50  0.20584037E-02  0.20584037E-02
  0.38500  0.16590998E-50  0.23934888E-02  0.23934888E-02
  0.39500  0.20061077E-50  0.28277145E-02  0.28277145E-02
  0.40500  0.24807050E-50  0.34044580E-02  0.34044580E-02
  0.41500  0.31487471E-50  0.41938081E-02  0.41938081E-02
  0.42500  0.41237214E-50  0.53150768E-02  0.53150768E-02
  0.43500  0.56143348E-50  0.69850335E-02  0.69850335E-02
  0.44500  0.80379164E-50  0.96319248E-02  0.96319248E-02
  0.45500  0.12327931E-49  0.14202162E-01  0.14202162E-01
  0.46500  0.20931485E-49  0.23146975E-01  0.23146975E-01
  0.47500  0.42045393E-49  0.44576922E-01  0.44576922E-01
  0.48500  0.11840445E-48  0.12023971E+00  0.12023971E+00
  0.49500  0.99369842E-48  0.96588795E+00  0.96588795E+00
 Transport for spin ->  1  , kxy-point ->   5, of Node     0
           kxy=(0.142 -.082 0.000 ),w= 0.0156
    E           T(E)            TotDOS         PDOS
 -0.49500  0.23831201E-41  0.13493293E+02  0.13493293E+02
 -0.48500  0.23861125E-41  0.13478674E+02  0.13478674E+02
 -0.47500  0.23864678E-41  0.13464231E+02  0.13464231E+02
 -0.46500  0.23841852E-41  0.13449957E+02  0.13449957E+02
 -0.45500  0.23792700E-41  0.13435849E+02  0.13435849E+02
 -0.44500  0.23717337E-41  0.13421903E+02  0.13421903E+02
 -0.43500  0.23615935E-41  0.13408116E+02  0.13408116E+02
 -0.42500  0.23488728E-41  0.13394486E+02  0.13394486E+02
 -0.41500  0.23336010E-41  0.13381008E+02  0.13381008E+02
 -0.40500  0.23158130E-41  0.13367681E+02  0.13367681E+02
 -0.39500  0.22955497E-41  0.13354503E+02  0.13354503E+02
 -0.38500  0.22728572E-41  0.13341473E+02  0.13341473E+02
 -0.37500  0.22477874E-41  0.13328588E+02  0.13328588E+02
 -0.36500  0.22203973E-41  0.13315848E+02  0.13315848E+02
 -0.35500  0.21907489E-41  0.13303252E+02  0.13303252E+02
 -0.34500  0.21589094E-41  0.13290799E+02  0.13290799E+02
 -0.33500  0.21249507E-41  0.13278490E+02  0.13278490E+02
 -0.32500  0.20889494E-41  0.13266323E+02  0.13266323E+02
 -0.31500  0.20509863E-41  0.13254301E+02  0.13254301E+02
 -0.30500  0.20111467E-41  0.13242423E+02  0.13242423E+02
 -0.29500  0.19695196E-41  0.13230690E+02  0.13230690E+02
 -0.28500  0.19261981E-41  0.13219103E+02  0.13219103E+02
 -0.27500  0.18812786E-41  0.13207664E+02  0.13207664E+02
 -0.26500  0.18348612E-41  0.13196375E+02  0.13196375E+02
 -0.25500  0.17870487E-41  0.13185238E+02  0.13185238E+02
 -0.24500  0.17379471E-41  0.13174254E+02  0.13174254E+02
 -0.23500  0.16876650E-41  0.13163427E+02  0.13163427E+02
 -0.22500  0.16363132E-41  0.13152759E+02  0.13152759E+02
 -0.21500  0.15840050E-41  0.13142253E+02  0.13142253E+02
 -0.20500  0.15308553E-41  0.13131912E+02  0.13131912E+02
 -0.19500  0.14769810E-41  0.13121740E+02  0.13121740E+02
 -0.18500  0.14225000E-41  0.13111741E+02  0.13111741E+02
 -0.17500  0.13675317E-41  0.13101918E+02  0.13101918E+02
 -0.16500  0.13121964E-41  0.13092276E+02  0.13092276E+02
 -0.15500  0.12566150E-41  0.13082820E+02  0.13082820E+02
 -0.14500  0.12009087E-41  0.13073553E+02  0.13073553E+02
 -0.13500  0.11451992E-41  0.13064481E+02  0.13064481E+02
 -0.12500  0.10896080E-41  0.13055610E+02  0.13055610E+02
 -0.11500  0.10342561E-41  0.13046944E+02  0.13046944E+02
 -0.10500  0.97926428E-42  0.13038489E+02  0.13038489E+02
 -0.09500  0.92475239E-42  0.13030251E+02  0.13030251E+02
 -0.08500  0.87083930E-42  0.13022237E+02  0.13022237E+02
 -0.07500  0.81764268E-42  0.13014452E+02  0.13014452E+02
 -0.06500  0.76527873E-42  0.13006903E+02  0.13006903E+02
 -0.05500  0.71386199E-42  0.12999596E+02  0.12999596E+02
 -0.04500  0.66350513E-42  0.12992540E+02  0.12992540E+02
 -0.03500  0.61431873E-42  0.12985741E+02  0.12985741E+02
 -0.02500  0.56641110E-42  0.12979207E+02  0.12979207E+02
 -0.01500  0.51988804E-42  0.12972945E+02  0.12972945E+02
 -0.00500  0.47485272E-42  0.12966963E+02  0.12966963E+02
  0.00500  0.43140542E-42  0.12961270E+02  0.12961270E+02
  0.01500  0.38964341E-42  0.12955873E+02  0.12955873E+02
  0.02500  0.34966077E-42  0.12950782E+02  0.12950782E+02
  0.03500  0.31154820E-42  0.12946005E+02  0.12946005E+02
  0.04500  0.27539290E-42  0.12941551E+02  0.12941551E+02
  0.05500  0.24127838E-42  0.12937429E+02  0.12937429E+02
  0.06500  0.20928436E-42  0.12933649E+02  0.12933649E+02
  0.07500  0.17948662E-42  0.12930221E+02  0.12930221E+02
  0.08500  0.15195685E-42  0.12927153E+02  0.12927153E+02
  0.09500  0.12676258E-42  0.12924457E+02  0.12924457E+02
  0.10500  0.10396700E-42  0.12922142E+02  0.12922142E+02
  0.11500  0.83628913E-43  0.12920218E+02  0.12920218E+02
  0.12500  0.65802615E-43  0.12918696E+02  0.12918696E+02
  0.13500  0.50537792E-43  0.12917586E+02  0.12917586E+02
  0.14500  0.37879445E-43  0.12916899E+02  0.12916899E+02
  0.15500  0.27867813E-43  0.12916645E+02  0.12916645E+02
  0.16500  0.20538293E-43  0.12916835E+02  0.12916835E+02
  0.17500  0.15921378E-43  0.12917479E+02  0.12917479E+02
  0.18500  0.14042595E-43  0.12918588E+02  0.12918588E+02
  0.19500  0.14922444E-43  0.12920173E+02  0.12920173E+02
  0.20500  0.18576349E-43  0.12922243E+02  0.12922243E+02
  0.21500  0.25014608E-43  0.12924808E+02  0.12924808E+02
  0.22500  0.34242347E-43  0.12927878E+02  0.12927878E+02
  0.23500  0.46259473E-43  0.12931461E+02  0.12931461E+02
  0.24500  0.61060633E-43  0.12935567E+02  0.12935567E+02
  0.25500  0.78635167E-43  0.12940201E+02  0.12940201E+02
  0.26500  0.98967062E-43  0.12945372E+02  0.12945372E+02
  0.27500  0.12203490E-42  0.12951084E+02  0.12951084E+02
  0.28500  0.14781179E-42  0.12957342E+02  0.12957342E+02
  0.29500  0.17626534E-42  0.12964147E+02  0.12964147E+02
  0.30500  0.20735749E-42  0.12971500E+02  0.12971500E+02
  0.31500  0.24104454E-42  0.12979398E+02  0.12979398E+02
  0.32500  0.27727689E-42  0.12987836E+02  0.12987836E+02
  0.33500  0.31599901E-42  0.12996804E+02  0.12996804E+02
  0.34500  0.35714921E-42  0.13006290E+02  0.13006290E+02
  0.35500  0.40065937E-42  0.13016275E+02  0.13016275E+02
  0.36500  0.44645475E-42  0.13026733E+02  0.13026733E+02
  0.37500  0.49445358E-42  0.13037632E+02  0.13037632E+02
  0.38500  0.54456661E-42  0.13048931E+02  0.13048931E+02
  0.39500  0.59669661E-42  0.13060577E+02  0.13060577E+02
  0.40500  0.65073768E-42  0.13072504E+02  0.13072504E+02
  0.41500  0.70657436E-42  0.13084633E+02  0.13084633E+02
  0.42500  0.76408062E-42  0.13096860E+02  0.13096860E+02
  0.43500  0.82311849E-42  0.13109064E+02  0.13109064E+02
  0.44500  0.88353639E-42  0.13121090E+02  0.13121090E+02
  0.45500  0.94516701E-42  0.13132750E+02  0.13132750E+02
  0.46500  0.10078246E-41  0.13143815E+02  0.13143815E+02
  0.47500  0.10713016E-41  0.13153999E+02  0.13153999E+02
  0.48500  0.11353640E-41  0.13162950E+02  0.13162950E+02
  0.49500  0.11997459E-41  0.13170233E+02  0.13170233E+02
 Transport for spin ->  1  , kxy-point ->   1, of Node     1
           kxy=(0.284 -.164 0.000 ),w= 0.0156
    E           T(E)            TotDOS         PDOS
 -0.49500  0.12070823E-40  0.14979927E+02  0.14979927E+02
 -0.48500  0.12085459E-40  0.14977279E+02  0.14977279E+02
 -0.47500  0.12088623E-40  0.14974931E+02  0.14974931E+02
 -0.46500  0.12080234E-40  0.14972874E+02  0.14972874E+02
 -0.45500  0.12060237E-40  0.14971101E+02  0.14971101E+02
 -0.44500  0.12028600E-40  0.14969606E+02  0.14969606E+02
 -0.43500  0.11985317E-40  0.14968380E+02  0.14968380E+02
 -0.42500  0.11930407E-40  0.14967417E+02  0.14967417E+02
 -0.41500  0.11863912E-40  0.14966709E+02  0.14966709E+02
 -0.40500  0.11785901E-40  0.14966249E+02  0.14966249E+02
 -0.39500  0.11696469E-40  0.14966030E+02  0.14966030E+02
 -0.38500  0.11595735E-40  0.14966043E+02  0.14966043E+02
 -0.37500  0.11483843E-40  0.14966283E+02  0.14966283E+02
 -0.36500  0.11360962E-40  0.14966740E+02  0.14966740E+02
 -0.35500  0.11227287E-40  0.14967409E+02  0.14967409E+02
 -0.34500  0.11083038E-40  0.14968281E+02  0.14968281E+02
 -0.33500  0.10928457E-40  0.14969349E+02  0.14969349E+02
 -0.32500  0.10763812E-40  0.14970606E+02  0.14970606E+02
 -0.31500  0.10589394E-40  0.14972043E+02  0.14972043E+02
 -0.30500  0.10405517E-40  0.14973654E+02  0.14973654E+02
 -0.29500  0.10212518E-40  0.14975430E+02  0.14975430E+02
 -0.28500  0.10010756E-40  0.14977366E+02  0.14977366E+02
 -0.27500  0.98006109E-41  0.14979452E+02  0.14979452E+02
 -0.26500  0.95824833E-41  0.14981681E+02  0.14981681E+02
 -0.25500  0.93567942E-41  0.14984046E+02  0.14984046E+02
 -0.24500  0.91239833E-41  0.14986539E+02  0.14986539E+02
 -0.23500  0.88845089E-41  0.14989153E+02  0.14989153E+02
 -0.22500  0.86388465E-41  0.14991880E+02  0.14991880E+02
 -0.21500  0.83874882E-41  0.14994713E+02  0.14994713E+02
 -0.20500  0.81309417E-41  0.14997644E+02  0.14997644E+02
 -0.19500  0.78697290E-41  0.15000666E+02  0.15000666E+02
 -0.18500  0.76043858E-41  0.15003770E+02  0.15003770E+02
 -0.17500  0.73354600E-41  0.15006951E+02  0.15006951E+02
 -0.16500  0.70635110E-41  0.15010199E+02  0.15010199E+02
 -0.15500  0.67891082E-41  0.15013509E+02  0.15013509E+02
 -0.14500  0.65128301E-41  0.15016872E+02  0.15016872E+02
 -0.13500  0.62352633E-41  0.15020282E+02  0.15020282E+02
 -0.12500  0.59570014E-41  0.15023734E+02  0.15023734E+02
 -0.11500  0.56786460E-41  0.15027225E+02  0.15027225E+02
 -0.10500  0.54008233E-41  0.15030782E+02  0.15030782E+02
 -0.09500  0.51237982E-41  0.15033906E+02  0.15033906E+02
 -0.08500  0.48489116E-41  0.15037656E+02  0.15037656E+02
 -0.07500  0.45762070E-41  0.15041206E+02  0.15041206E+02
 -0.06500  0.43064168E-41  0.15044734E+02  0.15044734E+02
 -0.05500  0.40401517E-41  0.15048244E+02  0.15048244E+02
 -0.04500  0.37780132E-41  0.15051731E+02  0.15051731E+02
 -0.03500  0.35205965E-41  0.15055189E+02  0.15055189E+02
 -0.02500  0.32684902E-41  0.15058612E+02  0.15058612E+02
 -0.01500  0.30222754E-41  0.15061993E+02  0.15061993E+02
 -0.00500  0.27825245E-41  0.15065324E+02  0.15065324E+02
  0.00500  0.25497999E-41  0.15068599E+02  0.15068599E+02
  0.01500  0.23246527E-41  0.15071810E+02  0.15071810E+02
  0.02500  0.21076220E-41  0.15074952E+02  0.15074952E+02
  0.03500  0.18992331E-41  0.15078016E+02  0.15078016E+02
  0.04500  0.16999970E-41  0.15080997E+02  0.15080997E+02
  0.05500  0.15104089E-41  0.15083887E+02  0.15083887E+02
  0.06500  0.13309470E-41  0.15086679E+02  0.15086679E+02
  0.07500  0.11620719E-41  0.15089368E+02  0.15089368E+02
  0.08500  0.10042256E-41  0.15091946E+02  0.15091946E+02
  0.09500  0.85782992E-42  0.15094407E+02  0.15094407E+02
  0.10500  0.72328632E-42  0.15096744E+02  0.15096744E+02
  0.11500  0.60097464E-42  0.15098951E+02  0.15098951E+02
  0.12500  0.49125239E-42  0.15101021E+02  0.15101021E+02
  0.13500  0.39445396E-42  0.15102948E+02  0.15102948E+02
  0.14500  0.31088989E-42  0.15104727E+02  0.15104727E+02
  0.15500  0.24084624E-42  0.15106350E+02  0.15106350E+02
  0.16500  0.18458392E-42  0.15107812E+02  0.15107812E+02
  0.17500  0.14233818E-42  0.15109106E+02  0.15109106E+02
  0.18500  0.11431805E-42  0.15110227E+02  0.15110227E+02
  0.19500  0.10070596E-42  0.15111169E+02  0.15111169E+02
  0.20500  0.10165727E-42  0.15111925E+02  0.15111925E+02
  0.21500  0.11729999E-42  0.15112491E+02  0.15112491E+02
  0.22500  0.14773450E-42  0.15112861E+02  0.15112861E+02
  0.23500  0.19303331E-42  0.15113028E+02  0.15113028E+02
  0.24500  0.25324093E-42  0.15112988E+02  0.15112988E+02
  0.25500  0.32837375E-42  0.15112735E+02  0.15112735E+02
  0.26500  0.41842003E-42  0.15112264E+02  0.15112264E+02
  0.27500  0.52333991E-42  0.15111569E+02  0.15111569E+02
  0.28500  0.64306548E-42  0.15110646E+02  0.15110646E+02
  0.29500  0.77750094E-42  0.15109489E+02  0.15109489E+02
  0.30500  0.92652279E-42  0.15108094E+02  0.15108094E+02
  0.31500  0.10899801E-41  0.15106455E+02  0.15106455E+02
  0.32500  0.12676948E-41  0.15104568E+02  0.15104568E+02
  0.33500  0.14594622E-41  0.15102427E+02  0.15102427E+02
  0.34500  0.16650509E-41  0.15100030E+02  0.15100030E+02
  0.35500  0.18842042E-41  0.15097370E+02  0.15097370E+02
  0.36500  0.21166396E-41  0.15094444E+02  0.15094444E+02
  0.37500  0.23620501E-41  0.15091247E+02  0.15091247E+02
  0.38500  0.26201046E-41  0.15087775E+02  0.15087775E+02
  0.39500  0.28904484E-41  0.15084024E+02  0.15084024E+02
  0.40500  0.31727043E-41  0.15079990E+02  0.15079990E+02
  0.41500  0.34664731E-41  0.15075669E+02  0.15075669E+02
  0.42500  0.37713344E-41  0.15071057E+02  0.15071057E+02
  0.43500  0.40868475E-41  0.15066151E+02  0.15066151E+02
  0.44500  0.44125525E-41  0.15060947E+02  0.15060947E+02
  0.45500  0.47479708E-41  0.15055441E+02  0.15055441E+02
  0.46500  0.50926064E-41  0.15049630E+02  0.15049630E+02
  0.47500  0.54459469E-41  0.15043510E+02  0.15043510E+02
  0.48500  0.58074641E-41  0.15037080E+02  0.15037080E+02
  0.49500  0.61766156E-41  0.15030334E+02  0.15030334E+02
 Transport for spin ->  1  , kxy-point ->   2, of Node     1
           kxy=(0.427 -.246 0.000 ),w= 0.0156
    E           T(E)            TotDOS         PDOS
 -0.49500  0.58672625E-41  0.12785057E+02  0.12785057E+02
 -0.48500  0.56897531E-41  0.12762526E+02  0.12762526E+02
 -0.47500  0.55119404E-41  0.12740545E+02  0.12740545E+02
 -0.46500  0.53342837E-41  0.12719108E+02  0.12719108E+02
 -0.45500  0.51572532E-41  0.12698205E+02  0.12698205E+02
 -0.44500  0.49813297E-41  0.12677828E+02  0.12677828E+02
 -0.43500  0.48070037E-41  0.12657971E+02  0.12657971E+02
 -0.42500  0.46347754E-41  0.12638625E+02  0.12638625E+02
 -0.41500  0.44651532E-41  0.12619785E+02  0.12619785E+02
 -0.40500  0.42986540E-41  0.12601443E+02  0.12601443E+02
 -0.39500  0.41358019E-41  0.12583593E+02  0.12583593E+02
 -0.38500  0.39771277E-41  0.12566229E+02  0.12566229E+02
 -0.37500  0.38231683E-41  0.12549345E+02  0.12549345E+02
 -0.36500  0.36744658E-41  0.12532936E+02  0.12532936E+02
 -0.35500  0.35315671E-41  0.12516996E+02  0.12516996E+02
 -0.34500  0.33950229E-41  0.12501520E+02  0.12501520E+02
 -0.33500  0.32653868E-41  0.12486503E+02  0.12486503E+02
 -0.32500  0.31432149E-41  0.12471939E+02  0.12471939E+02
 -0.31500  0.30290650E-41  0.12457825E+02  0.12457825E+02
 -0.30500  0.29234952E-41  0.12444156E+02  0.12444156E+02
 -0.29500  0.28270641E-41  0.12430927E+02  0.12430927E+02
 -0.28500  0.27403290E-41  0.12418134E+02  0.12418134E+02
 -0.27500  0.26638457E-41  0.12405773E+02  0.12405773E+02
 -0.26500  0.25981675E-41  0.12393841E+02  0.12393841E+02
 -0.25500  0.25438441E-41  0.12382332E+02  0.12382332E+02
 -0.24500  0.25014214E-41  0.12371243E+02  0.12371243E+02
 -0.23500  0.24714398E-41  0.12360571E+02  0.12360571E+02
 -0.22500  0.24544341E-41  0.12350312E+02  0.12350312E+02
 -0.21500  0.24509321E-41  0.12340462E+02  0.12340462E+02
 -0.20500  0.24614541E-41  0.12331019E+02  0.12331019E+02
 -0.19500  0.24865118E-41  0.12321978E+02  0.12321978E+02
 -0.18500  0.25266076E-41  0.12313337E+02  0.12313337E+02
 -0.17500  0.25822337E-41  0.12305092E+02  0.12305092E+02
 -0.16500  0.26538710E-41  0.12297240E+02  0.12297240E+02
 -0.15500  0.27419888E-41  0.12289779E+02  0.12289779E+02
 -0.14500  0.28470433E-41  0.12282704E+02  0.12282704E+02
 -0.13500  0.29694773E-41  0.12276013E+02  0.12276013E+02
 -0.12500  0.31097190E-41  0.12269704E+02  0.12269704E+02
 -0.11500  0.32681813E-41  0.12263773E+02  0.12263773E+02
 -0.10500  0.34452611E-41  0.12258218E+02  0.12258218E+02
 -0.09500  0.36413384E-41  0.12253036E+02  0.12253036E+02
 -0.08500  0.38567753E-41  0.12248223E+02  0.12248223E+02
 -0.07500  0.40919156E-41  0.12243778E+02  0.12243778E+02
 -0.06500  0.43470838E-41  0.12239698E+02  0.12239698E+02
 -0.05500  0.46225843E-41  0.12235980E+02  0.12235980E+02
 -0.04500  0.49187010E-41  0.12232621E+02  0.12232621E+02
 -0.03500  0.52356960E-41  0.12229619E+02  0.12229619E+02
 -0.02500  0.55738097E-41  0.12226971E+02  0.12226971E+02
 -0.01500  0.59332593E-41  0.12224675E+02  0.12224675E+02
 -0.00500  0.63142387E-41  0.12222728E+02  0.12222728E+02
  0.00500  0.67169178E-41  0.12221128E+02  0.12221128E+02
  0.01500  0.71414416E-41  0.12219873E+02  0.12219873E+02
  0.02500  0.75879299E-41  0.12218959E+02  0.12218959E+02
  0.03500  0.80564768E-41  0.12218384E+02  0.12218384E+02
  0.04500  0.85471498E-41  0.12218146E+02  0.12218146E+02
  0.05500  0.90599898E-41  0.12218242E+02  0.12218242E+02
  0.06500  0.95950101E-41  0.12218671E+02  0.12218671E+02
  0.07500  0.10152197E-40  0.12219429E+02  0.12219429E+02
  0.08500  0.10731507E-40  0.12220513E+02  0.12220513E+02
  0.09500  0.11332869E-40  0.12221923E+02  0.12221923E+02
  0.10500  0.11956184E-40  0.12223654E+02  0.12223654E+02
  0.11500  0.12601323E-40  0.12225706E+02  0.12225706E+02
  0.12500  0.13268127E-40  0.12228075E+02  0.12228075E+02
  0.13500  0.13956407E-40  0.12230758E+02  0.12230758E+02
  0.14500  0.14665946E-40  0.12233754E+02  0.12233754E+02
  0.15500  0.15396495E-40  0.12237060E+02  0.12237060E+02
  0.16500  0.16147776E-40  0.12240674E+02  0.12240674E+02
  0.17500  0.16919481E-40  0.12244592E+02  0.12244592E+02
  0.18500  0.17711269E-40  0.12248814E+02  0.12248814E+02
  0.19500  0.18522772E-40  0.12253335E+02  0.12253335E+02
  0.20500  0.19353591E-40  0.12258154E+02  0.12258154E+02
  0.21500  0.20203295E-40  0.12263269E+02  0.12263269E+02
  0.22500  0.21071424E-40  0.12268676E+02  0.12268676E+02
  0.23500  0.21957489E-40  0.12274374E+02  0.12274374E+02
  0.24500  0.22860970E-40  0.12280359E+02  0.12280359E+02
  0.25500  0.23781319E-40  0.12286630E+02  0.12286630E+02
  0.26500  0.24717958E-40  0.12293185E+02  0.12293185E+02
  0.27500  0.25670284E-40  0.12300021E+02  0.12300021E+02
  0.28500  0.26637677E-40  0.12307139E+02  0.12307139E+02
  0.29500  0.27619977E-40  0.12314655E+02  0.12314655E+02
  0.30500  0.28614660E-40  0.12322141E+02  0.12322141E+02
  0.31500  0.29623110E-40  0.12330081E+02  0.12330081E+02
  0.32500  0.30643745E-40  0.12338280E+02  0.12338280E+02
  0.33500  0.31675824E-40  0.12346741E+02  0.12346741E+02
  0.34500  0.32718554E-40  0.12355463E+02  0.12355463E+02
  0.35500  0.33771115E-40  0.12364444E+02  0.12364444E+02
  0.36500  0.34832661E-40  0.12373682E+02  0.12373682E+02
  0.37500  0.35902325E-40  0.12383173E+02  0.12383173E+02
  0.38500  0.36979213E-40  0.12392915E+02  0.12392915E+02
  0.39500  0.38062412E-40  0.12402906E+02  0.12402906E+02
  0.40500  0.39150988E-40  0.12413142E+02  0.12413142E+02
  0.41500  0.40243986E-40  0.12423621E+02  0.12423621E+02
  0.42500  0.41340432E-40  0.12434340E+02  0.12434340E+02
  0.43500  0.42439334E-40  0.12445296E+02  0.12445296E+02
  0.44500  0.43539685E-40  0.12456487E+02  0.12456487E+02
  0.45500  0.44640458E-40  0.12467910E+02  0.12467910E+02
  0.46500  0.45740615E-40  0.12479561E+02  0.12479561E+02
  0.47500  0.46839103E-40  0.12491438E+02  0.12491438E+02
  0.48500  0.47934854E-40  0.12503538E+02  0.12503538E+02
  0.49500  0.49026792E-40  0.12515859E+02  0.12515859E+02
 Transport for spin ->  1  , kxy-point ->   3, of Node     1
           kxy=(0.569 -.328 0.000 ),w= 0.0156
    E           T(E)            TotDOS         PDOS
 -0.49500  0.20223200E-45  0.10302036E+02  0.10302036E+02
 -0.48500  0.20285535E-45  0.10371725E+02  0.10371725E+02
 -0.47500  0.20362882E-45  0.10440297E+02  0.10440297E+02
 -0.46500  0.20455508E-45  0.10507795E+02  0.10507795E+02
 -0.45500  0.20563602E-45  0.10574266E+02  0.10574266E+02
 -0.44500  0.20687276E-45  0.10639754E+02  0.10639754E+02
 -0.43500  0.20826563E-45  0.10704301E+02  0.10704301E+02
 -0.42500  0.20981413E-45  0.10767949E+02  0.10767949E+02
 -0.41500  0.21151691E-45  0.10830739E+02  0.10830739E+02
 -0.40500  0.21337173E-45  0.10892711E+02  0.10892711E+02
 -0.39500  0.21537549E-45  0.10953904E+02  0.10953904E+02
 -0.38500  0.21752412E-45  0.11014359E+02  0.11014359E+02
 -0.37500  0.21981265E-45  0.11074114E+02  0.11074114E+02
 -0.36500  0.22223514E-45  0.11133207E+02  0.11133207E+02
 -0.35500  0.22478472E-45  0.11191676E+02  0.11191676E+02
 -0.34500  0.22745353E-45  0.11249560E+02  0.11249560E+02
 -0.33500  0.23023277E-45  0.11306897E+02  0.11306897E+02
 -0.32500  0.23311269E-45  0.11363725E+02  0.11363725E+02
 -0.31500  0.23608260E-45  0.11420082E+02  0.11420082E+02
 -0.30500  0.23913095E-45  0.11476008E+02  0.11476008E+02
 -0.29500  0.24224534E-45  0.11531542E+02  0.11531542E+02
 -0.28500  0.24541258E-45  0.11586723E+02  0.11586723E+02
 -0.27500  0.24861882E-45  0.11641592E+02  0.11641592E+02
 -0.26500  0.25184963E-45  0.11696190E+02  0.11696190E+02
 -0.25500  0.25509019E-45  0.11750559E+02  0.11750559E+02
 -0.24500  0.25832546E-45  0.11804743E+02  0.11804743E+02
 -0.23500  0.26154040E-45  0.11858785E+02  0.11858785E+02
 -0.22500  0.26472038E-45  0.11912730E+02  0.11912730E+02
 -0.21500  0.26785150E-45  0.11966627E+02  0.11966627E+02
 -0.20500  0.27092115E-45  0.12020523E+02  0.12020523E+02
 -0.19500  0.27391870E-45  0.12074468E+02  0.12074468E+02
 -0.18500  0.27683637E-45  0.12128514E+02  0.12128514E+02
 -0.17500  0.27967042E-45  0.12182715E+02  0.12182715E+02
 -0.16500  0.28242268E-45  0.12237129E+02  0.12237129E+02
 -0.15500  0.28510272E-45  0.12291812E+02  0.12291812E+02
 -0.14500  0.28773077E-45  0.12346828E+02  0.12346828E+02
 -0.13500  0.29034187E-45  0.12402240E+02  0.12402240E+02
 -0.12500  0.29299191E-45  0.12458115E+02  0.12458115E+02
 -0.11500  0.29576659E-45  0.12514525E+02  0.12514525E+02
 -0.10500  0.29879532E-45  0.12571544E+02  0.12571544E+02
 -0.09500  0.30227343E-45  0.12629251E+02  0.12629251E+02
 -0.08500  0.30649965E-45  0.12687728E+02  0.12687728E+02
 -0.07500  0.31194282E-45  0.12747065E+02  0.12747065E+02
 -0.06500  0.31936977E-45  0.12807354E+02  0.12807354E+02
 -0.05500  0.33011394E-45  0.12868697E+02  0.12868697E+02
 -0.04500  0.34671457E-45  0.12931201E+02  0.12931201E+02
 -0.03500  0.37473706E-45  0.12994990E+02  0.12994990E+02
 -0.02500  0.42969743E-45  0.13060217E+02  0.13060217E+02
 -0.01500  0.58487701E-45  0.13127186E+02  0.13127186E+02
 -0.00500  0.30509048E-42  0.13953198E+02  0.13953198E+02
  0.00500  0.78451291E-42  0.15022362E+02  0.15022362E+02
  0.01500  0.11550101E-41  0.15694950E+02  0.15694950E+02
  0.02500  0.15029755E-41  0.16237901E+02  0.16237901E+02
  0.03500  0.18405513E-41  0.16709623E+02  0.16709623E+02
  0.04500  0.21686313E-41  0.17134993E+02  0.17134993E+02
  0.05500  0.24843099E-41  0.17527469E+02  0.17527469E+02
  0.06500  0.27829454E-41  0.17895380E+02  0.17895380E+02
  0.07500  0.30589859E-41  0.18244353E+02  0.18244353E+02
  0.08500  0.33064078E-41  0.18578449E+02  0.18578449E+02
  0.09500  0.35190136E-41  0.18900745E+02  0.18900745E+02
  0.10500  0.36906770E-41  0.19213669E+02  0.19213669E+02
  0.11500  0.38155748E-41  0.19519208E+02  0.19519208E+02
  0.12500  0.38884211E-41  0.19819032E+02  0.19819032E+02
  0.13500  0.39047128E-41  0.20114587E+02  0.20114587E+02
  0.14500  0.38609914E-41  0.20407154E+02  0.20407154E+02
  0.15500  0.37551207E-41  0.20697890E+02  0.20697890E+02
  0.16500  0.35865827E-41  0.20987866E+02  0.20987866E+02
  0.17500  0.33567873E-41  0.21278088E+02  0.21278088E+02
  0.18500  0.30693935E-41  0.21569518E+02  0.21569518E+02
  0.19500  0.27306375E-41  0.21863087E+02  0.21863087E+02
  0.20500  0.23496590E-41  0.22159710E+02  0.22159710E+02
  0.21500  0.19388177E-41  0.22460295E+02  0.22460295E+02
  0.22500  0.15139884E-41  0.22765753E+02  0.22765753E+02
  0.23500  0.10948183E-41  0.23077001E+02  0.23077001E+02
  0.24500  0.70493181E-42  0.23394974E+02  0.23394974E+02
  0.25500  0.37205922E-42  0.23720616E+02  0.23720616E+02
  0.26500  0.12806586E-42  0.24054854E+02  0.24054854E+02
  0.27500  0.88530463E-44  0.24397467E+02  0.24397467E+02
  0.28500  0.54099071E-43  0.24754579E+02  0.24754579E+02
  0.29500  0.30680350E-42  0.25121002E+02  0.25121002E+02
  0.30500  0.81259891E-42  0.25500603E+02  0.25500603E+02
  0.31500  0.16187880E-41  0.25894401E+02  0.25894401E+02
  0.32500  0.27730683E-41  0.26303583E+02  0.26303583E+02
  0.33500  0.43219074E-41  0.26729391E+02  0.26729391E+02
  0.34500  0.63085396E-41  0.27173103E+02  0.27173103E+02
  0.35500  0.87705646E-41  0.27636027E+02  0.27636027E+02
  0.36500  0.11737149E-40  0.28119486E+02  0.28119486E+02
  0.37500  0.15225857E-40  0.28624808E+02  0.28624808E+02
  0.38500  0.19239165E-40  0.29153309E+02  0.29153309E+02
  0.39500  0.23760774E-40  0.29706266E+02  0.29706266E+02
  0.40500  0.28751880E-40  0.30284895E+02  0.30284895E+02
  0.41500  0.34147624E-40  0.30890312E+02  0.30890312E+02
  0.42500  0.39854050E-40  0.31523492E+02  0.31523492E+02
  0.43500  0.45745941E-40  0.32185221E+02  0.32185221E+02
  0.44500  0.51666017E-40  0.32876033E+02  0.32876033E+02
  0.45500  0.57426022E-40  0.33596144E+02  0.33596144E+02
  0.46500  0.62810267E-40  0.34345372E+02  0.34345372E+02
  0.47500  0.67582180E-40  0.35123050E+02  0.35123050E+02
  0.48500  0.71494288E-40  0.35927933E+02  0.35927933E+02
  0.49500  0.74301857E-40  0.36758100E+02  0.36758100E+02
 Transport for spin ->  1  , kxy-point ->   4, of Node     1
           kxy=(-.427 0.410 0.000 ),w= 0.0312
    E           T(E)            TotDOS         PDOS
 -0.49500  0.19127905E-44  0.31940097E+02  0.31940097E+02
 -0.48500  0.18706187E-44  0.31409916E+02  0.31409916E+02
 -0.47500  0.18224753E-44  0.30871250E+02  0.30871250E+02
 -0.46500  0.17695169E-44  0.30327886E+02  0.30327886E+02
 -0.45500  0.17128663E-44  0.29783105E+02  0.29783105E+02
 -0.44500  0.16535783E-44  0.29239703E+02  0.29239703E+02
 -0.43500  0.15926170E-44  0.28700032E+02  0.28700032E+02
 -0.42500  0.15308437E-44  0.28166042E+02  0.28166042E+02
 -0.41500  0.14690134E-44  0.27639339E+02  0.27639339E+02
 -0.40500  0.14077785E-44  0.27121292E+02  0.27121292E+02
 -0.39500  0.13477322E-44  0.26613828E+02  0.26613828E+02
 -0.38500  0.12889981E-44  0.26111113E+02  0.26111113E+02
 -0.37500  0.12324952E-44  0.25624699E+02  0.25624699E+02
 -0.36500  0.11781877E-44  0.25148373E+02  0.25148373E+02
 -0.35500  0.11263524E-44  0.24683332E+02  0.24683332E+02
 -0.34500  0.10771684E-44  0.24229819E+02  0.24229819E+02
 -0.33500  0.10307638E-44  0.23787905E+02  0.23787905E+02
 -0.32500  0.98722647E-45  0.23357569E+02  0.23357569E+02
 -0.31500  0.94661167E-45  0.22938720E+02  0.22938720E+02
 -0.30500  0.90894848E-45  0.22531218E+02  0.22531218E+02
 -0.29500  0.87424549E-45  0.22134882E+02  0.22134882E+02
 -0.28500  0.84249566E-45  0.21749499E+02  0.21749499E+02
 -0.27500  0.81368066E-45  0.21374834E+02  0.21374834E+02
 -0.26500  0.78777467E-45  0.21010636E+02  0.21010636E+02
 -0.25500  0.76474773E-45  0.20656640E+02  0.20656640E+02
 -0.24500  0.74456871E-45  0.20312574E+02  0.20312574E+02
 -0.23500  0.72720807E-45  0.19978162E+02  0.19978162E+02
 -0.22500  0.71264028E-45  0.19653125E+02  0.19653125E+02
 -0.21500  0.70084619E-45  0.19337184E+02  0.19337184E+02
 -0.20500  0.69181527E-45  0.19030063E+02  0.19030063E+02
 -0.19500  0.68554784E-45  0.18731491E+02  0.18731491E+02
 -0.18500  0.68205740E-45  0.18441197E+02  0.18441197E+02
 -0.17500  0.68137301E-45  0.18158920E+02  0.18158920E+02
 -0.16500  0.68354197E-45  0.17884403E+02  0.17884403E+02
 -0.15500  0.68863278E-45  0.17617394E+02  0.17617394E+02
 -0.14500  0.69673855E-45  0.17357652E+02  0.17357652E+02
 -0.13500  0.70798092E-45  0.17104939E+02  0.17104939E+02
 -0.12500  0.72251482E-45  0.16859026E+02  0.16859026E+02
 -0.11500  0.74053406E-45  0.16619691E+02  0.16619691E+02
 -0.10500  0.76227821E-45  0.16386720E+02  0.16386720E+02
 -0.09500  0.78804104E-45  0.16159905E+02  0.16159905E+02
 -0.08500  0.81818091E-45  0.15939045E+02  0.15939045E+02
 -0.07500  0.85313383E-45  0.15723948E+02  0.15723948E+02
 -0.06500  0.89342991E-45  0.15514427E+02  0.15514427E+02
 -0.05500  0.93971425E-45  0.15310302E+02  0.15310302E+02
 -0.04500  0.99277385E-45  0.15111399E+02  0.15111399E+02
 -0.03500  0.10535725E-44  0.14917553E+02  0.14917553E+02
 -0.02500  0.11232964E-44  0.14728602E+02  0.14728602E+02
 -0.01500  0.12034154E-44  0.14544391E+02  0.14544391E+02
 -0.00500  0.12957640E-44  0.14364772E+02  0.14364772E+02
  0.00500  0.14026536E-44  0.14189601E+02  0.14189601E+02
  0.01500  0.15270267E-44  0.14018741E+02  0.14018741E+02
  0.02500  0.16726753E-44  0.13852058E+02  0.13852058E+02
  0.03500  0.18445553E-44  0.13689425E+02  0.13689425E+02
  0.04500  0.20492486E-44  0.13530719E+02  0.13530719E+02
  0.05500  0.22956628E-44  0.13375822E+02  0.13375822E+02
  0.06500  0.25961192E-44  0.13224621E+02  0.13224621E+02
  0.07500  0.29681066E-44  0.13077008E+02  0.13077008E+02
  0.08500  0.34372274E-44  0.12932880E+02  0.12932880E+02
  0.09500  0.40423955E-44  0.12792137E+02  0.12792137E+02
  0.10500  0.48455868E-44  0.12654687E+02  0.12654687E+02
  0.11500  0.59515882E-44  0.12520445E+02  0.12520445E+02
  0.12500  0.75522442E-44  0.12389337E+02  0.12389337E+02
  0.13500  0.10040305E-43  0.12261310E+02  0.12261310E+02
  0.14500  0.14369215E-43  0.12136364E+02  0.12136364E+02
  0.15500  0.23665154E-43  0.12014685E+02  0.12014685E+02
  0.16500  0.60053215E-43  0.11898068E+02  0.11898068E+02
  0.17500  0.70152669E-40  0.17704773E+02  0.17704773E+02
  0.18500  0.11457360E-39  0.21741985E+02  0.21741985E+02
  0.19500  0.14091829E-39  0.24505064E+02  0.24505064E+02
  0.20500  0.15852194E-39  0.26731012E+02  0.26731012E+02
  0.21500  0.17023851E-39  0.28638584E+02  0.28638584E+02
  0.22500  0.17743125E-39  0.30328149E+02  0.30328149E+02
  0.23500  0.18091013E-39  0.31855249E+02  0.31855249E+02
  0.24500  0.18123685E-39  0.33254021E+02  0.33254021E+02
  0.25500  0.17885339E-39  0.34546808E+02  0.34546808E+02
  0.26500  0.17414516E-39  0.35748771E+02  0.35748771E+02
  0.27500  0.16747509E-39  0.36870348E+02  0.36870348E+02
  0.28500  0.15920258E-39  0.37918672E+02  0.37918672E+02
  0.29500  0.14969339E-39  0.38898436E+02  0.38898436E+02
  0.30500  0.13932328E-39  0.39812455E+02  0.39812455E+02
  0.31500  0.12847683E-39  0.40662058E+02  0.40662058E+02
  0.32500  0.11754199E-39  0.41447367E+02  0.41447367E+02
  0.33500  0.10690112E-39  0.42167533E+02  0.42167533E+02
  0.34500  0.96918863E-40  0.42820939E+02  0.42820939E+02
  0.35500  0.87927740E-40  0.43405406E+02  0.43405406E+02
  0.36500  0.80212541E-40  0.43918405E+02  0.43918405E+02
  0.37500  0.73994960E-40  0.44357285E+02  0.44357285E+02
  0.38500  0.69420229E-40  0.44719520E+02  0.44719520E+02
  0.39500  0.66547658E-40  0.45002960E+02  0.45002960E+02
  0.40500  0.65346746E-40  0.45206081E+02  0.45206081E+02
  0.41500  0.65700060E-40  0.45328211E+02  0.45328211E+02
  0.42500  0.67413180E-40  0.45369704E+02  0.45369704E+02
  0.43500  0.70230961E-40  0.45332053E+02  0.45332053E+02
  0.44500  0.73858361E-40  0.45217923E+02  0.45217923E+02
  0.45500  0.77983357E-40  0.45031101E+02  0.45031101E+02
  0.46500  0.82299248E-40  0.44776368E+02  0.44776368E+02
  0.47500  0.86523938E-40  0.44459311E+02  0.44459311E+02
  0.48500  0.90414507E-40  0.44086099E+02  0.44086099E+02
  0.49500  0.93776314E-40  0.43663243E+02  0.43663243E+02
 Transport for spin ->  1  , kxy-point ->   5, of Node     1
           kxy=(-.284 0.328 0.000 ),w= 0.0312
    E           T(E)            TotDOS         PDOS
 -0.49500  0.14565933E-41  0.15322671E+02  0.15322671E+02
 -0.48500  0.13098836E-41  0.15289830E+02  0.15289830E+02
 -0.47500  0.11706830E-41  0.15257862E+02  0.15257862E+02
 -0.46500  0.10398103E-41  0.15226752E+02  0.15226752E+02
 -0.45500  0.91808138E-42  0.15196484E+02  0.15196484E+02
 -0.44500  0.80630713E-42  0.15167043E+02  0.15167043E+02
 -0.43500  0.70529121E-42  0.15138416E+02  0.15138416E+02
 -0.42500  0.61582827E-42  0.15110590E+02  0.15110590E+02
 -0.41500  0.53870193E-42  0.15083550E+02  0.15083550E+02
 -0.40500  0.47468281E-42  0.15057285E+02  0.15057285E+02
 -0.39500  0.42452656E-42  0.15031783E+02  0.15031783E+02
 -0.38500  0.38897193E-42  0.15007031E+02  0.15007031E+02
 -0.37500  0.36873883E-42  0.14983018E+02  0.14983018E+02
 -0.36500  0.36452645E-42  0.14959734E+02  0.14959734E+02
 -0.35500  0.37701140E-42  0.14937167E+02  0.14937167E+02
 -0.34500  0.40684587E-42  0.14915307E+02  0.14915307E+02
 -0.33500  0.45465585E-42  0.14894144E+02  0.14894144E+02
 -0.32500  0.52103940E-42  0.14873668E+02  0.14873668E+02
 -0.31500  0.60656490E-42  0.14853870E+02  0.14853870E+02
 -0.30500  0.71176947E-42  0.14834741E+02  0.14834741E+02
 -0.29500  0.83715736E-42  0.14816270E+02  0.14816270E+02
 -0.28500  0.98319840E-42  0.14798450E+02  0.14798450E+02
 -0.27500  0.11503266E-41  0.14781271E+02  0.14781271E+02
 -0.26500  0.13389386E-41  0.14764726E+02  0.14764726E+02
 -0.25500  0.15493925E-41  0.14748805E+02  0.14748805E+02
 -0.24500  0.17820067E-41  0.14733501E+02  0.14733501E+02
 -0.23500  0.20370583E-41  0.14718805E+02  0.14718805E+02
 -0.22500  0.23147827E-41  0.14704710E+02  0.14704710E+02
 -0.21500  0.26153717E-41  0.14691209E+02  0.14691209E+02
 -0.20500  0.29389734E-41  0.14678292E+02  0.14678292E+02
 -0.19500  0.32856909E-41  0.14665954E+02  0.14665954E+02
 -0.18500  0.36555817E-41  0.14654186E+02  0.14654186E+02
 -0.17500  0.40486570E-41  0.14642982E+02  0.14642982E+02
 -0.16500  0.44648812E-41  0.14632333E+02  0.14632333E+02
 -0.15500  0.49041710E-41  0.14622233E+02  0.14622233E+02
 -0.14500  0.53663956E-41  0.14612675E+02  0.14612675E+02
 -0.13500  0.58513650E-41  0.14603637E+02  0.14603637E+02
 -0.12500  0.63588975E-41  0.14595167E+02  0.14595167E+02
 -0.11500  0.68886638E-41  0.14587193E+02  0.14587193E+02
 -0.10500  0.74403642E-41  0.14579735E+02  0.14579735E+02
 -0.09500  0.80136266E-41  0.14572785E+02  0.14572785E+02
 -0.08500  0.86080322E-41  0.14566338E+02  0.14566338E+02
 -0.07500  0.92231149E-41  0.14560385E+02  0.14560385E+02
 -0.06500  0.98583617E-41  0.14554921E+02  0.14554921E+02
 -0.05500  0.10513213E-40  0.14549939E+02  0.14549939E+02
 -0.04500  0.11187064E-40  0.14545433E+02  0.14545433E+02
 -0.03500  0.11879264E-40  0.14541396E+02  0.14541396E+02
 -0.02500  0.12589119E-40  0.14537821E+02  0.14537821E+02
 -0.01500  0.13315891E-40  0.14534704E+02  0.14534704E+02
 -0.00500  0.14058800E-40  0.14532036E+02  0.14532036E+02
  0.00500  0.14817026E-40  0.14529812E+02  0.14529812E+02
  0.01500  0.15589707E-40  0.14528026E+02  0.14528026E+02
  0.02500  0.16375945E-40  0.14526672E+02  0.14526672E+02
  0.03500  0.17174803E-40  0.14525743E+02  0.14525743E+02
  0.04500  0.17985308E-40  0.14525232E+02  0.14525232E+02
  0.05500  0.18806455E-40  0.14525134E+02  0.14525134E+02
  0.06500  0.19637204E-40  0.14525443E+02  0.14525443E+02
  0.07500  0.20476488E-40  0.14526153E+02  0.14526153E+02
  0.08500  0.21323206E-40  0.14527256E+02  0.14527256E+02
  0.09500  0.22176235E-40  0.14528748E+02  0.14528748E+02
  0.10500  0.23034423E-40  0.14530621E+02  0.14530621E+02
  0.11500  0.23896596E-40  0.14532870E+02  0.14532870E+02
  0.12500  0.24761561E-40  0.14535488E+02  0.14535488E+02
  0.13500  0.25628103E-40  0.14538470E+02  0.14538470E+02
  0.14500  0.26494993E-40  0.14541809E+02  0.14541809E+02
  0.15500  0.27360984E-40  0.14545499E+02  0.14545499E+02
  0.16500  0.28224819E-40  0.14549534E+02  0.14549534E+02
  0.17500  0.29085231E-40  0.14553907E+02  0.14553907E+02
  0.18500  0.29940945E-40  0.14558613E+02  0.14558613E+02
  0.19500  0.30790679E-40  0.14563645E+02  0.14563645E+02
  0.20500  0.31633150E-40  0.14568997E+02  0.14568997E+02
  0.21500  0.32467073E-40  0.14574663E+02  0.14574663E+02
  0.22500  0.33291166E-40  0.14580637E+02  0.14580637E+02
  0.23500  0.34104150E-40  0.14586912E+02  0.14586912E+02
  0.24500  0.34904753E-40  0.14593482E+02  0.14593482E+02
  0.25500  0.35691711E-40  0.14600341E+02  0.14600341E+02
  0.26500  0.36463774E-40  0.14607483E+02  0.14607483E+02
  0.27500  0.37219703E-40  0.14614902E+02  0.14614902E+02
  0.28500  0.37958277E-40  0.14622590E+02  0.14622590E+02
  0.29500  0.38678292E-40  0.14630543E+02  0.14630543E+02
  0.30500  0.39378567E-40  0.14638753E+02  0.14638753E+02
  0.31500  0.40057942E-40  0.14647215E+02  0.14647215E+02
  0.32500  0.40715284E-40  0.14655921E+02  0.14655921E+02
  0.33500  0.41349488E-40  0.14664867E+02  0.14664867E+02
  0.34500  0.41959477E-40  0.14674044E+02  0.14674044E+02
  0.35500  0.42544208E-40  0.14683448E+02  0.14683448E+02
  0.36500  0.43102673E-40  0.14693071E+02  0.14693071E+02
  0.37500  0.43633897E-40  0.14702908E+02  0.14702908E+02
  0.38500  0.44136946E-40  0.14712952E+02  0.14712952E+02
  0.39500  0.44610926E-40  0.14723197E+02  0.14723197E+02
  0.40500  0.45054984E-40  0.14733635E+02  0.14733635E+02
  0.41500  0.45468312E-40  0.14744262E+02  0.14744262E+02
  0.42500  0.45850148E-40  0.14755070E+02  0.14755070E+02
  0.43500  0.46199775E-40  0.14766053E+02  0.14766053E+02
  0.44500  0.46516526E-40  0.14777205E+02  0.14777205E+02
  0.45500  0.46799785E-40  0.14788519E+02  0.14788519E+02
  0.46500  0.47048988E-40  0.14799989E+02  0.14799989E+02
  0.47500  0.47263622E-40  0.14811608E+02  0.14811608E+02
  0.48500  0.47443229E-40  0.14823370E+02  0.14823370E+02
  0.49500  0.47587408E-40  0.14835268E+02  0.14835268E+02
 Transport for spin ->  1  , kxy-point ->   1, of Node     2
           kxy=(-.142 0.246 0.000 ),w= 0.0312
    E           T(E)            TotDOS         PDOS
 -0.49500  0.36604615E-41  0.15620575E+02  0.15620575E+02
 -0.48500  0.35377886E-41  0.15605373E+02  0.15605373E+02
 -0.47500  0.34117168E-41  0.15590560E+02  0.15590560E+02
 -0.46500  0.32826336E-41  0.15576125E+02  0.15576125E+02
 -0.45500  0.31509365E-41  0.15562057E+02  0.15562057E+02
 -0.44500  0.30170316E-41  0.15548342E+02  0.15548342E+02
 -0.43500  0.28813326E-41  0.15534968E+02  0.15534968E+02
 -0.42500  0.27442595E-41  0.15521925E+02  0.15521925E+02
 -0.41500  0.26062374E-41  0.15509199E+02  0.15509199E+02
 -0.40500  0.24676953E-41  0.15496780E+02  0.15496780E+02
 -0.39500  0.23290646E-41  0.15484656E+02  0.15484656E+02
 -0.38500  0.21907783E-41  0.15472816E+02  0.15472816E+02
 -0.37500  0.20532699E-41  0.15461252E+02  0.15461252E+02
 -0.36500  0.19169736E-41  0.15449963E+02  0.15449963E+02
 -0.35500  0.17823470E-41  0.15439070E+02  0.15439070E+02
 -0.34500  0.16496614E-41  0.15427842E+02  0.15427842E+02
 -0.33500  0.15195653E-41  0.15417326E+02  0.15417326E+02
 -0.32500  0.13923538E-41  0.15406953E+02  0.15406953E+02
 -0.31500  0.12684480E-41  0.15396769E+02  0.15396769E+02
 -0.30500  0.11482496E-41  0.15386773E+02  0.15386773E+02
 -0.29500  0.10321501E-41  0.15376955E+02  0.15376955E+02
 -0.28500  0.92053035E-42  0.15367305E+02  0.15367305E+02
 -0.27500  0.81376015E-42  0.15357814E+02  0.15357814E+02
 -0.26500  0.71219699E-42  0.15348470E+02  0.15348470E+02
 -0.25500  0.61618531E-42  0.15339264E+02  0.15339264E+02
 -0.24500  0.52605566E-42  0.15330185E+02  0.15330185E+02
 -0.23500  0.44212384E-42  0.15321223E+02  0.15321223E+02
 -0.22500  0.36469016E-42  0.15312368E+02  0.15312368E+02
 -0.21500  0.29403873E-42  0.15303610E+02  0.15303610E+02
 -0.20500  0.23043675E-42  0.15294940E+02  0.15294940E+02
 -0.19500  0.17413392E-42  0.15286347E+02  0.15286347E+02
 -0.18500  0.12536189E-42  0.15277821E+02  0.15277821E+02
 -0.17500  0.84333712E-43  0.15269355E+02  0.15269355E+02
 -0.16500  0.51243398E-43  0.15260937E+02  0.15260937E+02
 -0.15500  0.26265524E-43  0.15252560E+02  0.15252560E+02
 -0.14500  0.95548678E-44  0.15244213E+02  0.15244213E+02
 -0.13500  0.12461262E-44  0.15235889E+02  0.15235889E+02
 -0.12500  0.14536705E-44  0.15227577E+02  0.15227577E+02
 -0.11500  0.10271365E-43  0.15219271E+02  0.15219271E+02
 -0.10500  0.27772436E-43  0.15210960E+02  0.15210960E+02
 -0.09500  0.54009401E-43  0.15202638E+02  0.15202638E+02
 -0.08500  0.89014040E-43  0.15194295E+02  0.15194295E+02
 -0.07500  0.13279743E-42  0.15185924E+02  0.15185924E+02
 -0.06500  0.18535004E-42  0.15177516E+02  0.15177516E+02
 -0.05500  0.24664183E-42  0.15169065E+02  0.15169065E+02
 -0.04500  0.31662248E-42  0.15160561E+02  0.15160561E+02
 -0.03500  0.39522157E-42  0.15151999E+02  0.15151999E+02
 -0.02500  0.48234892E-42  0.15143370E+02  0.15143370E+02
 -0.01500  0.57789484E-42  0.15134668E+02  0.15134668E+02
 -0.00500  0.68173058E-42  0.15125885E+02  0.15125885E+02
  0.00500  0.79370866E-42  0.15117015E+02  0.15117015E+02
  0.01500  0.91366338E-42  0.15108051E+02  0.15108051E+02
  0.02500  0.10414113E-41  0.15098986E+02  0.15098986E+02
  0.03500  0.11767517E-41  0.15089815E+02  0.15089815E+02
  0.04500  0.13194673E-41  0.15080529E+02  0.15080529E+02
  0.05500  0.14693247E-41  0.15071125E+02  0.15071125E+02
  0.06500  0.16260751E-41  0.15061595E+02  0.15061595E+02
  0.07500  0.17894547E-41  0.15051934E+02  0.15051934E+02
  0.08500  0.19591860E-41  0.15042137E+02  0.15042137E+02
  0.09500  0.21349778E-41  0.15032197E+02  0.15032197E+02
  0.10500  0.23165264E-41  0.15022109E+02  0.15022109E+02
  0.11500  0.25035161E-41  0.15011869E+02  0.15011869E+02
  0.12500  0.26956202E-41  0.15001471E+02  0.15001471E+02
  0.13500  0.28925016E-41  0.14990910E+02  0.14990910E+02
  0.14500  0.30938135E-41  0.14980181E+02  0.14980181E+02
  0.15500  0.32992007E-41  0.14969281E+02  0.14969281E+02
  0.16500  0.35082999E-41  0.14958204E+02  0.14958204E+02
  0.17500  0.37207408E-41  0.14946946E+02  0.14946946E+02
  0.18500  0.39361468E-41  0.14935503E+02  0.14935503E+02
  0.19500  0.41541361E-41  0.14923871E+02  0.14923871E+02
  0.20500  0.43743223E-41  0.14912046E+02  0.14912046E+02
  0.21500  0.45963153E-41  0.14900024E+02  0.14900024E+02
  0.22500  0.48197222E-41  0.14887802E+02  0.14887802E+02
  0.23500  0.50441480E-41  0.14875376E+02  0.14875376E+02
  0.24500  0.52691969E-41  0.14862743E+02  0.14862743E+02
  0.25500  0.54944724E-41  0.14849899E+02  0.14849899E+02
  0.26500  0.57195786E-41  0.14836842E+02  0.14836842E+02
  0.27500  0.59441212E-41  0.14823569E+02  0.14823569E+02
  0.28500  0.61677076E-41  0.14810077E+02  0.14810077E+02
  0.29500  0.63899484E-41  0.14796363E+02  0.14796363E+02
  0.30500  0.66104577E-41  0.14782425E+02  0.14782425E+02
  0.31500  0.68288542E-41  0.14768260E+02  0.14768260E+02
  0.32500  0.70447617E-41  0.14753866E+02  0.14753866E+02
  0.33500  0.72578097E-41  0.14739241E+02  0.14739241E+02
  0.34500  0.74676345E-41  0.14724382E+02  0.14724382E+02
  0.35500  0.76738795E-41  0.14709289E+02  0.14709289E+02
  0.36500  0.78761962E-41  0.14693959E+02  0.14693959E+02
  0.37500  0.80742444E-41  0.14678391E+02  0.14678391E+02
  0.38500  0.82676931E-41  0.14662582E+02  0.14662582E+02
  0.39500  0.84562210E-41  0.14646532E+02  0.14646532E+02
  0.40500  0.86395171E-41  0.14630240E+02  0.14630240E+02
  0.41500  0.88172811E-41  0.14613703E+02  0.14613703E+02
  0.42500  0.89892241E-41  0.14596922E+02  0.14596922E+02
  0.43500  0.91550688E-41  0.14579895E+02  0.14579895E+02
  0.44500  0.93145501E-41  0.14562621E+02  0.14562621E+02
  0.45500  0.94674155E-41  0.14545099E+02  0.14545099E+02
  0.46500  0.96134255E-41  0.14527329E+02  0.14527329E+02
  0.47500  0.97523539E-41  0.14509311E+02  0.14509311E+02
  0.48500  0.98839880E-41  0.14491044E+02  0.14491044E+02
  0.49500  0.10008129E-40  0.14472527E+02  0.14472527E+02
 Transport for spin ->  1  , kxy-point ->   2, of Node     2
           kxy=(0.000 0.164 0.000 ),w= 0.0312
    E           T(E)            TotDOS         PDOS
[...]
  0.17500  0.70142983E-40  0.17703770E+02  0.17703770E+02
  0.18500  0.11456080E-39  0.21739379E+02  0.21739379E+02
  0.19500  0.14090649E-39  0.24501479E+02  0.24501479E+02
  0.20500  0.15851334E-39  0.26726746E+02  0.26726746E+02
  0.21500  0.17023453E-39  0.28633838E+02  0.28633838E+02
  0.22500  0.17743283E-39  0.30323075E+02  0.30323075E+02
  0.23500  0.18091782E-39  0.31849977E+02  0.31849977E+02
  0.24500  0.18125087E-39  0.33248660E+02  0.33248660E+02
  0.25500  0.17887366E-39  0.34541457E+02  0.34541457E+02
  0.26500  0.17417132E-39  0.35743520E+02  0.35743520E+02
  0.27500  0.16750654E-39  0.36865280E+02  0.36865280E+02
  0.28500  0.15923847E-39  0.37913862E+02  0.37913862E+02
  0.29500  0.14973269E-39  0.38893954E+02  0.38893954E+02
  0.30500  0.13936482E-39  0.39808367E+02  0.39808367E+02
  0.31500  0.12851932E-39  0.40658421E+02  0.40658421E+02
  0.32500  0.11758411E-39  0.41444232E+02  0.41444232E+02
  0.33500  0.10694155E-39  0.42164944E+02  0.42164944E+02
  0.34500  0.96956374E-40  0.42818932E+02  0.42818932E+02
  0.35500  0.87961236E-40  0.43404007E+02  0.43404007E+02
  0.36500  0.80241122E-40  0.43917630E+02  0.43917630E+02
  0.37500  0.74017961E-40  0.44357141E+02  0.44357141E+02
  0.38500  0.69437253E-40  0.44720001E+02  0.44720001E+02
  0.39500  0.66558584E-40  0.45004050E+02  0.45004050E+02
  0.40500  0.65351717E-40  0.45207754E+02  0.45207754E+02
  0.41500  0.65699456E-40  0.45330429E+02  0.45330429E+02
  0.42500  0.67407571E-40  0.45372421E+02  0.45372421E+02
  0.43500  0.70221053E-40  0.45335216E+02  0.45335216E+02
  0.44500  0.73844936E-40  0.45221473E+02  0.45221473E+02
  0.45500  0.77967215E-40  0.45034977E+02  0.45034977E+02
  0.46500  0.82281158E-40  0.44780507E+02  0.44780507E+02
  0.47500  0.86504602E-40  0.44463650E+02  0.44463650E+02
  0.48500  0.90394537E-40  0.44090578E+02  0.44090578E+02
  0.49500  0.93756214E-40  0.43667806E+02  0.43667806E+02
 Transport for spin ->  1  , kxy-point ->   3, of Node     7
           kxy=(0.284 0.493 0.000 ),w= 0.0156
    E           T(E)            TotDOS         PDOS
 -0.49500  0.87520696E-45  0.27444795E+02  0.27444795E+02
 -0.48500  0.84919106E-45  0.26935461E+02  0.26935461E+02
 -0.47500  0.82288015E-45  0.26441171E+02  0.26441171E+02
 -0.46500  0.79641554E-45  0.25961444E+02  0.25961444E+02
 -0.45500  0.76992676E-45  0.25495808E+02  0.25495808E+02
 -0.44500  0.74353211E-45  0.25043814E+02  0.25043814E+02
 -0.43500  0.71733965E-45  0.24605048E+02  0.24605048E+02
 -0.42500  0.69145041E-45  0.24179230E+02  0.24179230E+02
 -0.41500  0.66599930E-45  0.23767661E+02  0.23767661E+02
 -0.40500  0.64078554E-45  0.23359897E+02  0.23359897E+02
 -0.39500  0.61630131E-45  0.22970754E+02  0.22970754E+02
 -0.38500  0.59237799E-45  0.22591548E+02  0.22591548E+02
 -0.37500  0.56909678E-45  0.22222853E+02  0.22222853E+02
 -0.36500  0.54650957E-45  0.21864430E+02  0.21864430E+02
 -0.35500  0.52466017E-45  0.21515964E+02  0.21515964E+02
 -0.34500  0.50358673E-45  0.21177132E+02  0.21177132E+02
 -0.33500  0.48332281E-45  0.20847616E+02  0.20847616E+02
 -0.32500  0.46389803E-45  0.20527107E+02  0.20527107E+02
 -0.31500  0.44533869E-45  0.20215306E+02  0.20215306E+02
 -0.30500  0.42766839E-45  0.19911925E+02  0.19911925E+02
 -0.29500  0.41090854E-45  0.19616686E+02  0.19616686E+02
 -0.28500  0.39507894E-45  0.19329322E+02  0.19329322E+02
 -0.27500  0.38019829E-45  0.19049573E+02  0.19049573E+02
 -0.26500  0.36628479E-45  0.18777193E+02  0.18777193E+02
 -0.25500  0.35335664E-45  0.18511942E+02  0.18511942E+02
 -0.24500  0.34143264E-45  0.18253589E+02  0.18253589E+02
 -0.23500  0.33053279E-45  0.18001914E+02  0.18001914E+02
 -0.22500  0.32067893E-45  0.17756703E+02  0.17756703E+02
 -0.21500  0.31189539E-45  0.17517751E+02  0.17517751E+02
 -0.20500  0.30420977E-45  0.17284859E+02  0.17284859E+02
 -0.19500  0.29765374E-45  0.17057838E+02  0.17057838E+02
 -0.18500  0.29226396E-45  0.16836505E+02  0.16836505E+02
 -0.17500  0.28808312E-45  0.16620682E+02  0.16620682E+02
 -0.16500  0.28516113E-45  0.16410199E+02  0.16410199E+02
 -0.15500  0.28355647E-45  0.16204893E+02  0.16204893E+02
 -0.14500  0.28333783E-45  0.16004606E+02  0.16004606E+02
 -0.13500  0.28458599E-45  0.15809186E+02  0.15809186E+02
 -0.12500  0.28739605E-45  0.15618486E+02  0.15618486E+02
 -0.11500  0.29188015E-45  0.15432365E+02  0.15432365E+02
 -0.10500  0.29817071E-45  0.15250686E+02  0.15250686E+02
 -0.09500  0.30642442E-45  0.15073319E+02  0.15073319E+02
 -0.08500  0.31682711E-45  0.14900136E+02  0.14900136E+02
 -0.07500  0.32959976E-45  0.14731016E+02  0.14731016E+02
 -0.06500  0.34500609E-45  0.14565841E+02  0.14565841E+02
 -0.05500  0.36336203E-45  0.14404497E+02  0.14404497E+02
 -0.04500  0.38504778E-45  0.14246875E+02  0.14246875E+02
 -0.03500  0.41052331E-45  0.14092869E+02  0.14092869E+02
 -0.02500  0.44034848E-45  0.13942376E+02  0.13942376E+02
 -0.01500  0.47520939E-45  0.13795300E+02  0.13795300E+02
 -0.00500  0.51595337E-45  0.13651543E+02  0.13651543E+02
  0.00500  0.56363616E-45  0.13511016E+02  0.13511016E+02
  0.01500  0.61958623E-45  0.13373630E+02  0.13373630E+02
  0.02500  0.68549415E-45  0.13239299E+02  0.13239299E+02
  0.03500  0.76353895E-45  0.13107942E+02  0.13107942E+02
  0.04500  0.85657035E-45  0.12979478E+02  0.12979478E+02
  0.05500  0.96837792E-45  0.12853833E+02  0.12853833E+02
  0.06500  0.11040988E-44  0.12730933E+02  0.12730933E+02
  0.07500  0.12708549E-44  0.12610708E+02  0.12610708E+02
  0.08500  0.14787834E-44  0.12493091E+02  0.12493091E+02
  0.09500  0.17427756E-44  0.12378020E+02  0.12378020E+02
  0.10500  0.20855589E-44  0.12265437E+02  0.12265437E+02
  0.11500  0.25435074E-44  0.12155290E+02  0.12155290E+02
  0.12500  0.31784709E-44  0.12047539E+02  0.12047539E+02
  0.13500  0.41043987E-44  0.11942160E+02  0.11942160E+02
  0.14500  0.55560585E-44  0.11839171E+02  0.11839171E+02
  0.15500  0.81059500E-44  0.11738699E+02  0.11738699E+02
  0.16500  0.13622248E-43  0.11641282E+02  0.11641282E+02
  0.17500  0.34395645E-43  0.11550705E+02  0.11550705E+02
  0.18500  0.47335270E-40  0.26346769E+02  0.26346769E+02
  0.19500  0.74620211E-40  0.36579048E+02  0.36579048E+02
  0.20500  0.86874224E-40  0.42072937E+02  0.42072937E+02
  0.21500  0.94267792E-40  0.45587764E+02  0.45587764E+02
  0.22500  0.99598349E-40  0.47948098E+02  0.47948098E+02
  0.23500  0.10397004E-39  0.49544932E+02  0.49544932E+02
  0.24500  0.10786853E-39  0.50601903E+02  0.50601903E+02
  0.25500  0.11150959E-39  0.51261132E+02  0.51261132E+02
  0.26500  0.11497996E-39  0.51619271E+02  0.51619271E+02
  0.27500  0.11830190E-39  0.51745233E+02  0.51745233E+02
  0.28500  0.12146519E-39  0.51689883E+02  0.51689883E+02
  0.29500  0.12444405E-39  0.51491772E+02  0.51491772E+02
  0.30500  0.12720639E-39  0.51180724E+02  0.51180724E+02
  0.31500  0.12971904E-39  0.50780191E+02  0.50780191E+02
  0.32500  0.13195070E-39  0.50308856E+02  0.50308856E+02
  0.33500  0.13387360E-39  0.49781765E+02  0.49781765E+02
  0.34500  0.13546443E-39  0.49211137E+02  0.49211137E+02
  0.35500  0.13670468E-39  0.48606963E+02  0.48606963E+02
  0.36500  0.13758074E-39  0.47977459E+02  0.47977459E+02
  0.37500  0.13808383E-39  0.47329410E+02  0.47329410E+02
  0.38500  0.13820972E-39  0.46668438E+02  0.46668438E+02
  0.39500  0.13795847E-39  0.45999209E+02  0.45999209E+02
  0.40500  0.13733401E-39  0.45325601E+02  0.45325601E+02
  0.41500  0.13634384E-39  0.44650843E+02  0.44650843E+02
  0.42500  0.13499853E-39  0.43977612E+02  0.43977612E+02
  0.43500  0.13331145E-39  0.43308134E+02  0.43308134E+02
  0.44500  0.13129828E-39  0.42644248E+02  0.42644248E+02
  0.45500  0.12897673E-39  0.41987468E+02  0.41987468E+02
  0.46500  0.12636614E-39  0.41339036E+02  0.41339036E+02
  0.47500  0.12348717E-39  0.40699960E+02  0.40699960E+02
  0.48500  0.12036152E-39  0.40071052E+02  0.40071052E+02
  0.49500  0.11701162E-39  0.39452955E+02  0.39452955E+02
 Transport for spin ->  1  , kxy-point ->   4, of Node     7
           kxy=(0.427 0.410 0.000 ),w= 0.0156
    E           T(E)            TotDOS         PDOS
 -0.49500  0.19135453E-44  0.31957512E+02  0.31957512E+02
 -0.48500  0.18714519E-44  0.31427859E+02  0.31427859E+02
 -0.47500  0.18233706E-44  0.30889552E+02  0.30889552E+02
 -0.46500  0.17704585E-44  0.30346400E+02  0.30346400E+02
 -0.45500  0.17138399E-44  0.29801701E+02  0.29801701E+02
 -0.44500  0.16545708E-44  0.29258269E+02  0.29258269E+02
 -0.43500  0.15936168E-44  0.28718470E+02  0.28718470E+02
 -0.42500  0.15318409E-44  0.28184271E+02  0.28184271E+02
 -0.41500  0.14699995E-44  0.27657293E+02  0.27657293E+02
 -0.40500  0.14087464E-44  0.27138913E+02  0.27138913E+02
 -0.39500  0.13486765E-44  0.26631071E+02  0.26631071E+02
 -0.38500  0.12899143E-44  0.26127941E+02  0.26127941E+02
 -0.37500  0.12333801E-44  0.25641085E+02  0.25641085E+02
 -0.36500  0.11790388E-44  0.25164295E+02  0.25164295E+02
 -0.35500  0.11271681E-44  0.24698775E+02  0.24698775E+02
 -0.34500  0.10779479E-44  0.24244772E+02  0.24244772E+02
 -0.33500  0.10315069E-44  0.23802364E+02  0.23802364E+02
 -0.32500  0.98793325E-45  0.23371531E+02  0.23371531E+02
 -0.31500  0.94728269E-45  0.22952187E+02  0.22952187E+02
 -0.30500  0.90958461E-45  0.22544193E+02  0.22544193E+02
 -0.29500  0.87484781E-45  0.22147369E+02  0.22147369E+02
 -0.28500  0.84306544E-45  0.21761507E+02  0.21761507E+02
 -0.27500  0.81421929E-45  0.21386373E+02  0.21386373E+02
 -0.26500  0.78828362E-45  0.21021714E+02  0.21021714E+02
 -0.25500  0.76522853E-45  0.20667269E+02  0.20667269E+02
 -0.24500  0.74502291E-45  0.20322765E+02  0.20322765E+02
 -0.23500  0.72763722E-45  0.19987926E+02  0.19987926E+02
 -0.22500  0.71304591E-45  0.19662475E+02  0.19662475E+02
 -0.21500  0.70122979E-45  0.19346134E+02  0.19346134E+02
 -0.20500  0.69217831E-45  0.19038625E+02  0.19038625E+02
 -0.19500  0.68589173E-45  0.18739676E+02  0.18739676E+02
 -0.18500  0.68238348E-45  0.18449020E+02  0.18449020E+02
 -0.17500  0.68168258E-45  0.18166392E+02  0.18166392E+02
 -0.16500  0.68383626E-45  0.17891537E+02  0.17891537E+02
 -0.15500  0.68891296E-45  0.17624203E+02  0.17624203E+02
 -0.14500  0.69700573E-45  0.17364146E+02  0.17364146E+02
 -0.13500  0.70823616E-45  0.17111131E+02  0.17111131E+02
 -0.12500  0.72275910E-45  0.16864927E+02  0.16864927E+02
 -0.11500  0.74076832E-45  0.16625313E+02  0.16625313E+02
 -0.10500  0.76250334E-45  0.16392073E+02  0.16392073E+02
 -0.09500  0.78825787E-45  0.16164999E+02  0.16164999E+02
 -0.08500  0.81839025E-45  0.15943891E+02  0.15943891E+02
 -0.07500  0.85333643E-45  0.15728555E+02  0.15728555E+02
 -0.06500  0.89362648E-45  0.15518805E+02  0.15518805E+02
 -0.05500  0.93990549E-45  0.15314460E+02  0.15314460E+02
 -0.04500  0.99296044E-45  0.15115347E+02  0.15115347E+02
 -0.03500  0.10537551E-44  0.14921299E+02  0.14921299E+02
 -0.02500  0.11234757E-44  0.14732154E+02  0.14732154E+02
 -0.01500  0.12035920E-44  0.14547757E+02  0.14547757E+02
 -0.00500  0.12959386E-44  0.14367960E+02  0.14367960E+02
  0.00500  0.14028268E-44  0.14192618E+02  0.14192618E+02
  0.01500  0.15271994E-44  0.14021594E+02  0.14021594E+02
  0.02500  0.16728484E-44  0.13854754E+02  0.13854754E+02
  0.03500  0.18447296E-44  0.13691971E+02  0.13691971E+02
  0.04500  0.20494255E-44  0.13533121E+02  0.13533121E+02
  0.05500  0.22958436E-44  0.13378086E+02  0.13378086E+02
  0.06500  0.25963057E-44  0.13226754E+02  0.13226754E+02
  0.07500  0.29683014E-44  0.13079015E+02  0.13079015E+02
  0.08500  0.34374338E-44  0.12934765E+02  0.12934765E+02
  0.09500  0.40426187E-44  0.12793906E+02  0.12793906E+02
  0.10500  0.48458344E-44  0.12656346E+02  0.12656346E+02
  0.11500  0.59518729E-44  0.12521998E+02  0.12521998E+02
  0.12500  0.75525881E-44  0.12390789E+02  0.12390789E+02
  0.13500  0.10040752E-43  0.12262666E+02  0.12262666E+02
  0.14500  0.14369864E-43  0.12137627E+02  0.12137627E+02
  0.15500  0.23666309E-43  0.12015860E+02  0.12015860E+02
  0.16500  0.60056791E-43  0.11899159E+02  0.11899159E+02
  0.17500  0.70157930E-40  0.17706606E+02  0.17706606E+02
  0.18500  0.11458033E-39  0.21744239E+02  0.21744239E+02
  0.19500  0.14092427E-39  0.24507517E+02  0.24507517E+02
  0.20500  0.15852609E-39  0.26733556E+02  0.26733556E+02
  0.21500  0.17024018E-39  0.28641145E+02  0.28641145E+02
  0.22500  0.17743008E-39  0.30330670E+02  0.30330670E+02
  0.23500  0.18090594E-39  0.31857684E+02  0.31857684E+02
  0.24500  0.18122964E-39  0.33256329E+02  0.33256329E+02
  0.25500  0.17884328E-39  0.34548952E+02  0.34548952E+02
  0.26500  0.17413239E-39  0.35750719E+02  0.35750719E+02
  0.27500  0.16746001E-39  0.36872069E+02  0.36872069E+02
  0.28500  0.15918560E-39  0.37920139E+02  0.37920139E+02
  0.29500  0.14967499E-39  0.38899624E+02  0.38899624E+02
  0.30500  0.13930399E-39  0.39813342E+02  0.39813342E+02
  0.31500  0.12845719E-39  0.40662625E+02  0.40662625E+02
  0.32500  0.11752254E-39  0.41447598E+02  0.41447598E+02
  0.33500  0.10688237E-39  0.42167416E+02  0.42167416E+02
  0.34500  0.96901266E-40  0.42820466E+02  0.42820466E+02
  0.35500  0.87911686E-40  0.43404573E+02  0.43404573E+02
  0.36500  0.80198328E-40  0.43917215E+02  0.43917215E+02
  0.37500  0.73982782E-40  0.44355745E+02  0.44355745E+02
  0.38500  0.69410178E-40  0.44717642E+02  0.44717642E+02
  0.39500  0.66539723E-40  0.45000763E+02  0.45000763E+02
  0.40500  0.65340827E-40  0.45203590E+02  0.45203590E+02
  0.41500  0.65695987E-40  0.45325454E+02  0.45325454E+02
  0.42500  0.67410734E-40  0.45366713E+02  0.45366713E+02
  0.43500  0.70229899E-40  0.45328865E+02  0.45328865E+02
  0.44500  0.73858440E-40  0.45214576E+02  0.45214576E+02
  0.45500  0.77984353E-40  0.45027635E+02  0.45027635E+02
  0.46500  0.82300969E-40  0.44772823E+02  0.44772823E+02
  0.47500  0.86526228E-40  0.44455724E+02  0.44455724E+02
  0.48500  0.90417256E-40  0.44082506E+02  0.44082506E+02
  0.49500  0.93779446E-40  0.43659676E+02  0.43659676E+02
 Transport for spin ->  1  , kxy-point ->   5, of Node     7
           kxy=(0.569 0.328 0.000 ),w= 0.0156
    E           T(E)            TotDOS         PDOS
 -0.49500  0.20211096E-45  0.10299762E+02  0.10299762E+02
 -0.48500  0.20273348E-45  0.10369508E+02  0.10369508E+02
 -0.47500  0.20350616E-45  0.10438138E+02  0.10438138E+02
 -0.46500  0.20443166E-45  0.10505696E+02  0.10505696E+02
 -0.45500  0.20551189E-45  0.10572229E+02  0.10572229E+02
 -0.44500  0.20674797E-45  0.10637780E+02  0.10637780E+02
 -0.43500  0.20814025E-45  0.10702391E+02  0.10702391E+02
 -0.42500  0.20968822E-45  0.10766105E+02  0.10766105E+02
 -0.41500  0.21139056E-45  0.10828963E+02  0.10828963E+02
 -0.40500  0.21324503E-45  0.10891004E+02  0.10891004E+02
 -0.39500  0.21524853E-45  0.10952268E+02  0.10952268E+02
 -0.38500  0.21739701E-45  0.11012795E+02  0.11012795E+02
 -0.37500  0.21968551E-45  0.11072623E+02  0.11072623E+02
 -0.36500  0.22210811E-45  0.11131790E+02  0.11131790E+02
 -0.35500  0.22465792E-45  0.11190335E+02  0.11190335E+02
 -0.34500  0.22732712E-45  0.11248296E+02  0.11248296E+02
 -0.33500  0.23010691E-45  0.11305711E+02  0.11305711E+02
 -0.32500  0.23298753E-45  0.11362619E+02  0.11362619E+02
 -0.31500  0.23595834E-45  0.11419057E+02  0.11419057E+02
 -0.30500  0.23900778E-45  0.11475065E+02  0.11475065E+02
 -0.29500  0.24212346E-45  0.11530681E+02  0.11530681E+02
 -0.28500  0.24529220E-45  0.11585946E+02  0.11585946E+02
 -0.27500  0.24850017E-45  0.11640900E+02  0.11640900E+02
 -0.26500  0.25173295E-45  0.11695585E+02  0.11695585E+02
 -0.25500  0.25497574E-45  0.11750041E+02  0.11750041E+02
 -0.24500  0.25821348E-45  0.11804312E+02  0.11804312E+02
 -0.23500  0.26143119E-45  0.11858443E+02  0.11858443E+02
 -0.22500  0.26461423E-45  0.11912478E+02  0.11912478E+02
 -0.21500  0.26774871E-45  0.11966465E+02  0.11966465E+02
 -0.20500  0.27082206E-45  0.12020451E+02  0.12020451E+02
 -0.19500  0.27382366E-45  0.12074488E+02  0.12074488E+02
 -0.18500  0.27674576E-45  0.12128627E+02  0.12128627E+02
 -0.17500  0.27958464E-45  0.12182921E+02  0.12182921E+02
 -0.16500  0.28234220E-45  0.12237428E+02  0.12237428E+02
 -0.15500  0.28502803E-45  0.12292206E+02  0.12292206E+02
 -0.14500  0.28766243E-45  0.12347316E+02  0.12347316E+02
 -0.13500  0.29028052E-45  0.12402822E+02  0.12402822E+02
 -0.12500  0.29293829E-45  0.12458793E+02  0.12458793E+02
 -0.11500  0.29572160E-45  0.12515298E+02  0.12515298E+02
 -0.10500  0.29876005E-45  0.12572413E+02  0.12572413E+02
 -0.09500  0.30224926E-45  0.12630215E+02  0.12630215E+02
 -0.08500  0.30648838E-45  0.12688789E+02  0.12688789E+02
 -0.07500  0.31194690E-45  0.12748221E+02  0.12748221E+02
 -0.06500  0.31939269E-45  0.12808606E+02  0.12808606E+02
 -0.05500  0.33016099E-45  0.12870044E+02  0.12870044E+02
 -0.04500  0.34679447E-45  0.12932644E+02  0.12932644E+02
 -0.03500  0.37486609E-45  0.12996528E+02  0.12996528E+02
 -0.02500  0.42991304E-45  0.13061850E+02  0.13061850E+02
 -0.01500  0.58531741E-45  0.13128913E+02  0.13128913E+02
 -0.00500  0.30551233E-42  0.13955169E+02  0.13955169E+02
  0.00500  0.78557181E-42  0.15024623E+02  0.15024623E+02
  0.01500  0.11565378E-41  0.15697417E+02  0.15697417E+02
  0.02500  0.15049307E-41  0.16240546E+02  0.16240546E+02
  0.03500  0.18429142E-41  0.16712427E+02  0.16712427E+02
  0.04500  0.21713869E-41  0.17137945E+02  0.17137945E+02
  0.05500  0.24874430E-41  0.17530559E+02  0.17530559E+02
  0.06500  0.27864378E-41  0.17898599E+02  0.17898599E+02
  0.07500  0.30628150E-41  0.18247694E+02  0.18247694E+02
  0.08500  0.33105457E-41  0.18581905E+02  0.18581905E+02
  0.09500  0.35234264E-41  0.18904309E+02  0.18904309E+02
  0.10500  0.36953247E-41  0.19217336E+02  0.19217336E+02
  0.11500  0.38204112E-41  0.19522970E+02  0.19522970E+02
  0.12500  0.38933937E-41  0.19822884E+02  0.19822884E+02
  0.13500  0.39097636E-41  0.20118522E+02  0.20118522E+02
  0.14500  0.38660570E-41  0.20411164E+02  0.20411164E+02
  0.15500  0.37601335E-41  0.20701969E+02  0.20701969E+02
  0.16500  0.35914721E-41  0.20992007E+02  0.20992007E+02
  0.17500  0.33614808E-41  0.21282283E+02  0.21282283E+02
  0.18500  0.30738189E-41  0.21573759E+02  0.21573759E+02
  0.19500  0.27347247E-41  0.21867364E+02  0.21867364E+02
  0.20500  0.23533428E-41  0.22164014E+02  0.22164014E+02
  0.21500  0.19420405E-41  0.22464616E+02  0.22464616E+02
  0.22500  0.15167031E-41  0.22770079E+02  0.22770079E+02
  0.23500  0.10969923E-41  0.23081320E+02  0.23081320E+02
  0.24500  0.70655049E-42  0.23399273E+02  0.23399273E+02
  0.25500  0.37312975E-42  0.23724881E+02  0.23724881E+02
  0.26500  0.12862149E-42  0.24059070E+02  0.24059070E+02
  0.27500  0.89571560E-44  0.24401614E+02  0.24401614E+02
  0.28500  0.53849097E-43  0.24758641E+02  0.24758641E+02
  0.29500  0.30633459E-42  0.25124956E+02  0.25124956E+02
  0.30500  0.81208710E-42  0.25504427E+02  0.25504427E+02
  0.31500  0.16184526E-41  0.25898070E+02  0.25898070E+02
  0.32500  0.27731734E-41  0.26307070E+02  0.26307070E+02
  0.33500  0.43227619E-41  0.26732664E+02  0.26732664E+02
  0.34500  0.63104960E-41  0.27176130E+02  0.27176130E+02
  0.35500  0.87740157E-41  0.27638770E+02  0.27638770E+02
  0.36500  0.11742523E-40  0.28121906E+02  0.28121906E+02
  0.37500  0.15233609E-40  0.28626862E+02  0.28626862E+02
  0.38500  0.19249768E-40  0.29154947E+02  0.29154947E+02
  0.39500  0.23774706E-40  0.29707436E+02  0.29707436E+02
  0.40500  0.28769608E-40  0.30285541E+02  0.30285541E+02
  0.41500  0.34169590E-40  0.30890371E+02  0.30890371E+02
  0.42500  0.39880648E-40  0.31522899E+02  0.31522899E+02
  0.43500  0.45777501E-40  0.32183905E+02  0.32183905E+02
  0.44500  0.51702779E-40  0.32873919E+02  0.32873919E+02
  0.45500  0.57468120E-40  0.33593153E+02  0.33593153E+02
  0.46500  0.62857707E-40  0.34341422E+02  0.34341422E+02
  0.47500  0.67634823E-40  0.35118057E+02  0.35118057E+02
  0.48500  0.71551834E-40  0.35921813E+02  0.35921813E+02
  0.49500  0.74363834E-40  0.36750771E+02  0.36750771E+02
 ==============================================================

 Results:

  Voltage, Current(A) =   1.00000000E+00  6.48808399E-46

 ==============================================================
