
                           ***********************       
                           *  WELCOME TO TBTRANS *       
                           ***********************       

reinit: Reading from standard input
************************** Dump of input data file ****************************
SystemName  bulk_au_111
SystemLabel bulk_au_111
==================================================
==================================================
# SPECIES AND BASIS
# Number of species
NumberOfSpecies 1
%block ChemicalSpeciesLabel
  1  79 Au
%endblock ChemicalSpeciesLabel
PAO.BasisSize    SZP
PAO.EnergyShift  0.005 Ry
==================================================
==================================================
# K-points
%block kgrid_Monkhorst_Pack
8   0   0   0.0
0   8   0   0.0
0   0   60  0.5
%endblock kgrid_Monkhorst_Pack
==================================================
==================================================
# UNIT CELL AND ATOMIC POSITIONS
# UNIT CELL
LatticeConstant       2.92311 Ang
%block LatticeVectors
1.000000000   0.00000000000   0.0000000000
0.500000000   0.86602540378   0.0000000000
0.000000000   0.00000000000   2.4494897428
%endblock LatticeVectors
# Atomic coordinates
NumberOfAtoms 3
AtomicCoordinatesFormat ScaledCartesian
%block AtomicCoordinatesAndAtomicSpecies
       0.000000000       0.000000000       0.000000000    1
       0.500000000       0.288675135       0.816496581    1
       0.500000000      -0.288675135       1.632993162    1
%endblock AtomicCoordinatesAndAtomicSpecies
%block SuperCell
1 0 0
0 1 0
0 0 3
%endblock SuperCell
==================================================
==================================================
# General variables
ElectronicTemperature  100 K
MeshCutoff           350. Ry
xc.functional         LDA           # Exchange-correlation functional
xc.authors            CA
SpinPolarized .false.
SolutionMethod Transiesta
==================================================
==================================================
# SCF variables
DM.MixSCF1   T
MaxSCFIterations      300           # Maximum number of SCF iter
DM.MixingWeight       0.03          # New DM amount for next SCF cycle
DM.Tolerance          1.d-4         # Tolerance in maximum difference
DM.UseSaveDM          true          # to use continuation files
DM.NumberPulay         5
Diag.DivideAndConquer  no
Diag.ParallelOverK     yes
==================================================
==================================================
# MD variables
MD.FinalTimeStep 1
MD.TypeOfRun CG
MD.NumCGsteps     000
MD.UseSaveXV      .true.
==================================================
==================================================
# Output variables
WriteMullikenPop                1
WriteBands                      .false.
SaveRho                         .false.
SaveDeltaRho                    .false.
SaveHS                          .false.
SaveElectrostaticPotential      True
SaveTotalPotential              no
WriteCoorXmol                   .true.
WriteMDXmol                     .true.
WriteMDhistory                  .false.
WriteEigenvalues                yes
==================================================
==================================================
# Transiesta information
# GF OPTIONS
TS.ComplexContour.Emin    -30.0 eV
TS.ComplexContour.NPoles       03
TS.ComplexContour.NCircle      30
TS.ComplexContour.NLine        10
# BIAS OPTIONS
TS.biasContour.NumPoints       00
# TS OPTIONS
TS.Voltage 0.000000 eV
# TBT OPTIONS
TS.TBT.Emin -0.5 eV
TS.TBT.Emax +0.5 eV
TS.TBT.NPoints 100
TS.TBT.NEigen 3
TS.TBT.Eta        0.000001 Ry
# Write hamiltonian
TS.SaveHS   .true.
# LEFT ELECTRODE
TS.HSFileLeft  ./elec_au_111_abc.TSHS
TS.ReplicateA1Left    1
TS.ReplicateA2Left    1
TS.NumUsedAtomsLeft   03
TS.BufferAtomsLeft    0
# RIGHT ELECTRODE
TS.HSFileRight  ./elec_au_111_abc.TSHS
TS.ReplicateA1Right   1
TS.ReplicateA2Right   1
TS.NumUsedAtomsRight  03
TS.BufferAtomsRight   0
==================================================
==================================================
************************** End of input data file *****************************

reinit: -----------------------------------------------------------------------
reinit: System Name: bulk_au_111
reinit: -----------------------------------------------------------------------
reinit: System Label: bulk_au_111                                                 
reinit: -----------------------------------------------------------------------
tbtrans: Voltage                         =     0.0000
Emin,Emax =      -0.499999      0.499999
Energy points in tbtrans =        100
tbtrans: Spin-polarized = F
 contour:  Simple Line Contour:
 contour:     -0.49500      0.00001      0.009999989   1
 contour:     -0.48500      0.00001      0.009999989   2
 contour:     -0.47500      0.00001      0.009999989   3
 contour:     -0.46500      0.00001      0.009999989   4
 contour:     -0.45500      0.00001      0.009999989   5
 contour:     -0.44500      0.00001      0.009999989   6
 contour:     -0.43500      0.00001      0.009999989   7
 contour:     -0.42500      0.00001      0.009999989   8
 contour:     -0.41500      0.00001      0.009999989   9
 contour:     -0.40500      0.00001      0.009999989  10
 contour:     -0.39500      0.00001      0.009999989  11
 contour:     -0.38500      0.00001      0.009999989  12
 contour:     -0.37500      0.00001      0.009999989  13
 contour:     -0.36500      0.00001      0.009999989  14
 contour:     -0.35500      0.00001      0.009999989  15
 contour:     -0.34500      0.00001      0.009999989  16
 contour:     -0.33500      0.00001      0.009999989  17
 contour:     -0.32500      0.00001      0.009999989  18
 contour:     -0.31500      0.00001      0.009999989  19
 contour:     -0.30500      0.00001      0.009999989  20
 contour:     -0.29500      0.00001      0.009999989  21
 contour:     -0.28500      0.00001      0.009999989  22
 contour:     -0.27500      0.00001      0.009999989  23
 contour:     -0.26500      0.00001      0.009999989  24
 contour:     -0.25500      0.00001      0.009999989  25
 contour:     -0.24500      0.00001      0.009999989  26
 contour:     -0.23500      0.00001      0.009999989  27
 contour:     -0.22500      0.00001      0.009999989  28
 contour:     -0.21500      0.00001      0.009999989  29
 contour:     -0.20500      0.00001      0.009999989  30
 contour:     -0.19500      0.00001      0.009999989  31
 contour:     -0.18500      0.00001      0.009999989  32
 contour:     -0.17500      0.00001      0.009999989  33
 contour:     -0.16500      0.00001      0.009999989  34
 contour:     -0.15500      0.00001      0.009999989  35
 contour:     -0.14500      0.00001      0.009999989  36
 contour:     -0.13500      0.00001      0.009999989  37
 contour:     -0.12500      0.00001      0.009999989  38
 contour:     -0.11500      0.00001      0.009999989  39
 contour:     -0.10500      0.00001      0.009999989  40
 contour:     -0.09500      0.00001      0.009999989  41
 contour:     -0.08500      0.00001      0.009999989  42
 contour:     -0.07500      0.00001      0.009999989  43
 contour:     -0.06500      0.00001      0.009999989  44
 contour:     -0.05500      0.00001      0.009999989  45
 contour:     -0.04500      0.00001      0.009999989  46
 contour:     -0.03500      0.00001      0.009999989  47
 contour:     -0.02500      0.00001      0.009999989  48
 contour:     -0.01500      0.00001      0.009999989  49
 contour:     -0.00500      0.00001      0.009999989  50
 contour:      0.00500      0.00001      0.009999989  51
 contour:      0.01500      0.00001      0.009999989  52
 contour:      0.02500      0.00001      0.009999989  53
 contour:      0.03500      0.00001      0.009999989  54
 contour:      0.04500      0.00001      0.009999989  55
 contour:      0.05500      0.00001      0.009999989  56
 contour:      0.06500      0.00001      0.009999989  57
 contour:      0.07500      0.00001      0.009999989  58
 contour:      0.08500      0.00001      0.009999989  59
 contour:      0.09500      0.00001      0.009999989  60
 contour:      0.10500      0.00001      0.009999989  61
 contour:      0.11500      0.00001      0.009999989  62
 contour:      0.12500      0.00001      0.009999989  63
 contour:      0.13500      0.00001      0.009999989  64
 contour:      0.14500      0.00001      0.009999989  65
 contour:      0.15500      0.00001      0.009999989  66
 contour:      0.16500      0.00001      0.009999989  67
 contour:      0.17500      0.00001      0.009999989  68
 contour:      0.18500      0.00001      0.009999989  69
 contour:      0.19500      0.00001      0.009999989  70
 contour:      0.20500      0.00001      0.009999989  71
 contour:      0.21500      0.00001      0.009999989  72
 contour:      0.22500      0.00001      0.009999989  73
 contour:      0.23500      0.00001      0.009999989  74
 contour:      0.24500      0.00001      0.009999989  75
 contour:      0.25500      0.00001      0.009999989  76
 contour:      0.26500      0.00001      0.009999989  77
 contour:      0.27500      0.00001      0.009999989  78
 contour:      0.28500      0.00001      0.009999989  79
 contour:      0.29500      0.00001      0.009999989  80
 contour:      0.30500      0.00001      0.009999989  81
 contour:      0.31500      0.00001      0.009999989  82
 contour:      0.32500      0.00001      0.009999989  83
 contour:      0.33500      0.00001      0.009999989  84
 contour:      0.34500      0.00001      0.009999989  85
 contour:      0.35500      0.00001      0.009999989  86
 contour:      0.36500      0.00001      0.009999989  87
 contour:      0.37500      0.00001      0.009999989  88
 contour:      0.38500      0.00001      0.009999989  89
 contour:      0.39500      0.00001      0.009999989  90
 contour:      0.40500      0.00001      0.009999989  91
 contour:      0.41500      0.00001      0.009999989  92
 contour:      0.42500      0.00001      0.009999989  93
 contour:      0.43500      0.00001      0.009999989  94
 contour:      0.44500      0.00001      0.009999989  95
 contour:      0.45500      0.00001      0.009999989  96
 contour:      0.46500      0.00001      0.009999989  97
 contour:      0.47500      0.00001      0.009999989  98
 contour:      0.48500      0.00001      0.009999989  99
 contour:      0.49500      0.00001      0.009999989 100

************************************************************************
 K-Points On Nodes:

 Node  Numb. K Pts.  Tot. K Pts. 
  0        5           40
  1        5           40
  2        5           40
  3        5           40
  4        5           40
  5        5           40
  6        5           40
  7        5           40
------------------------------------------------------------------------
 K-Points Coordinates and Weights (Node,kx,ky,kz,wk),:

        0    -0.42655     0.24627     0.00000     0.01562
        0    -0.28436     0.16418     0.00000     0.01562
        0    -0.14218     0.08209     0.00000     0.01562
        0     0.00000     0.00000     0.00000     0.01562
        0     0.14218    -0.08209     0.00000     0.01562
        1     0.28436    -0.16418     0.00000     0.01562
        1     0.42655    -0.24627     0.00000     0.01562
        1     0.56873    -0.32836     0.00000     0.01562
        1    -0.42655     0.41045     0.00000     0.03125
        1    -0.28436     0.32836     0.00000     0.03125
        2    -0.14218     0.24627     0.00000     0.03125
        2     0.00000     0.16418     0.00000     0.03125
        2     0.14218     0.08209     0.00000     0.03125
        2     0.28436     0.00000     0.00000     0.03125
        2     0.42655    -0.08209     0.00000     0.03125
        3     0.56873    -0.16418     0.00000     0.03125
        3    -0.42655     0.57462     0.00000     0.03125
        3    -0.28436     0.49253     0.00000     0.03125
        3    -0.14218     0.41045     0.00000     0.03125
        3     0.00000     0.32836     0.00000     0.03125
        4     0.14218     0.24627     0.00000     0.03125
        4     0.28436     0.16418     0.00000     0.03125
        4     0.42655     0.08209     0.00000     0.03125
        4     0.56873     0.00000     0.00000     0.03125
        4    -0.42655     0.73880     0.00000     0.03125
        5    -0.28436     0.65671     0.00000     0.03125
        5    -0.14218     0.57462     0.00000     0.03125
        5     0.00000     0.49253     0.00000     0.03125
        5     0.14218     0.41045     0.00000     0.03125
        5     0.28436     0.32836     0.00000     0.03125
        6     0.42655     0.24627     0.00000     0.03125
        6     0.56873     0.16418     0.00000     0.03125
        6    -0.42655     0.90298     0.00000     0.01562
        6    -0.28436     0.82089     0.00000     0.01562
        6    -0.14218     0.73880     0.00000     0.01562
        7     0.00000     0.65671     0.00000     0.01562
        7     0.14218     0.57462     0.00000     0.01562
        7     0.28436     0.49253     0.00000     0.01562
        7     0.42655     0.41045     0.00000     0.01562
        7     0.56873     0.32836     0.00000     0.01562
************************************************************************

 unit cell:
  5.5239  0.0000  0.0000
  2.7619  4.7838  0.0000
  0.0000  0.0000 13.5307
 unit cell:
  5.5239  0.0000  0.0000
  2.7619  4.7838  0.0000
  0.0000  0.0000 13.5307
 ==============================================================
  Projection Region: atoms : [         4;         6]
  Projection Region: states: [         1;        27] Tot:        27

  Starting K-Point loop for spin:   1

 Transport for spin ->  1  , kxy-point ->   1, of Node     0
           kxy=(-.427 0.246 0.000 ),w= 0.0156
    E           T(E)            TotDOS         PDOS
 -0.49500  0.20000000E+01  0.81390370E+01  0.81390370E+01
 -0.48500  0.20000000E+01  0.81385998E+01  0.81385998E+01
 -0.47500  0.20000000E+01  0.81382211E+01  0.81382211E+01
 -0.46500  0.20000000E+01  0.81379005E+01  0.81379005E+01
 -0.45500  0.20000000E+01  0.81376373E+01  0.81376373E+01
 -0.44500  0.20000000E+01  0.81374312E+01  0.81374312E+01
 -0.43500  0.20000000E+01  0.81372815E+01  0.81372815E+01
 -0.42500  0.20000000E+01  0.81371879E+01  0.81371879E+01
 -0.41500  0.20000000E+01  0.81371499E+01  0.81371499E+01
 -0.40500  0.20000000E+01  0.81371670E+01  0.81371670E+01
 -0.39500  0.20000000E+01  0.81372387E+01  0.81372387E+01
 -0.38500  0.20000000E+01  0.81373647E+01  0.81373647E+01
 -0.37500  0.20000000E+01  0.81375446E+01  0.81375446E+01
 -0.36500  0.20000000E+01  0.81377779E+01  0.81377779E+01
 -0.35500  0.20000000E+01  0.81380643E+01  0.81380643E+01
 -0.34500  0.20000000E+01  0.81384034E+01  0.81384034E+01
 -0.33500  0.20000000E+01  0.81387948E+01  0.81387948E+01
 -0.32500  0.20000000E+01  0.81392382E+01  0.81392382E+01
 -0.31500  0.20000000E+01  0.81397332E+01  0.81397332E+01
 -0.30500  0.20000000E+01  0.81402795E+01  0.81402795E+01
 -0.29500  0.20000000E+01  0.81408768E+01  0.81408768E+01
 -0.28500  0.20000000E+01  0.81415248E+01  0.81415248E+01
 -0.27500  0.20000000E+01  0.81422231E+01  0.81422231E+01
 -0.26500  0.20000000E+01  0.81429715E+01  0.81429715E+01
 -0.25500  0.20000000E+01  0.81437696E+01  0.81437696E+01
 -0.24500  0.20000000E+01  0.81446173E+01  0.81446173E+01
 -0.23500  0.20000000E+01  0.81455141E+01  0.81455141E+01
 -0.22500  0.20000000E+01  0.81464599E+01  0.81464599E+01
 -0.21500  0.20000000E+01  0.81474545E+01  0.81474545E+01
 -0.20500  0.20000000E+01  0.81484975E+01  0.81484975E+01
 -0.19500  0.20000000E+01  0.81495887E+01  0.81495887E+01
 -0.18500  0.20000000E+01  0.81507278E+01  0.81507278E+01
 -0.17500  0.20000000E+01  0.81519148E+01  0.81519148E+01
 -0.16500  0.20000000E+01  0.81531492E+01  0.81531492E+01
 -0.15500  0.20000000E+01  0.81544310E+01  0.81544310E+01
 -0.14500  0.20000000E+01  0.81557599E+01  0.81557599E+01
 -0.13500  0.20000000E+01  0.81571357E+01  0.81571357E+01
 -0.12500  0.20000000E+01  0.81585582E+01  0.81585582E+01
 -0.11500  0.20000000E+01  0.81600272E+01  0.81600272E+01
 -0.10500  0.20000000E+01  0.81615425E+01  0.81615425E+01
 -0.09500  0.20000000E+01  0.81631040E+01  0.81631040E+01
 -0.08500  0.20000000E+01  0.81647114E+01  0.81647114E+01
 -0.07500  0.20000000E+01  0.81663647E+01  0.81663647E+01
 -0.06500  0.20000000E+01  0.81680636E+01  0.81680636E+01
 -0.05500  0.20000000E+01  0.81698080E+01  0.81698080E+01
 -0.04500  0.20000000E+01  0.81715977E+01  0.81715977E+01
 -0.03500  0.20000000E+01  0.81734325E+01  0.81734325E+01
 -0.02500  0.20000000E+01  0.81753124E+01  0.81753124E+01
 -0.01500  0.20000000E+01  0.81772372E+01  0.81772372E+01
 -0.00500  0.20000000E+01  0.81792067E+01  0.81792067E+01
  0.00500  0.20000000E+01  0.81812207E+01  0.81812207E+01
  0.01500  0.20000000E+01  0.81832793E+01  0.81832793E+01
  0.02500  0.20000000E+01  0.81853822E+01  0.81853822E+01
  0.03500  0.20000000E+01  0.81875293E+01  0.81875293E+01
  0.04500  0.20000000E+01  0.81897205E+01  0.81897205E+01
  0.05500  0.20000000E+01  0.81919557E+01  0.81919557E+01
  0.06500  0.20000000E+01  0.81942347E+01  0.81942347E+01
  0.07500  0.20000000E+01  0.81965575E+01  0.81965575E+01
  0.08500  0.20000000E+01  0.81989239E+01  0.81989239E+01
  0.09500  0.20000000E+01  0.82013339E+01  0.82013339E+01
  0.10500  0.20000000E+01  0.82037873E+01  0.82037873E+01
  0.11500  0.20000000E+01  0.82062840E+01  0.82062840E+01
  0.12500  0.20000000E+01  0.82088239E+01  0.82088239E+01
  0.13500  0.20000000E+01  0.82114070E+01  0.82114070E+01
  0.14500  0.20000000E+01  0.82140331E+01  0.82140331E+01
  0.15500  0.20000000E+01  0.82167022E+01  0.82167022E+01
  0.16500  0.20000000E+01  0.82194141E+01  0.82194141E+01
  0.17500  0.19999999E+01  0.82221688E+01  0.82221688E+01
  0.18500  0.19999999E+01  0.82249662E+01  0.82249662E+01
  0.19500  0.19999999E+01  0.82278062E+01  0.82278062E+01
  0.20500  0.19999999E+01  0.82306887E+01  0.82306887E+01
  0.21500  0.19999999E+01  0.82336137E+01  0.82336137E+01
  0.22500  0.19999999E+01  0.82365811E+01  0.82365811E+01
  0.23500  0.19999999E+01  0.82395907E+01  0.82395907E+01
  0.24500  0.19999999E+01  0.82426426E+01  0.82426426E+01
  0.25500  0.19999999E+01  0.82457366E+01  0.82457366E+01
  0.26500  0.19999999E+01  0.82488727E+01  0.82488727E+01
  0.27500  0.19999999E+01  0.82520508E+01  0.82520508E+01
  0.28500  0.19999999E+01  0.82552708E+01  0.82552708E+01
  0.29500  0.19999999E+01  0.82585328E+01  0.82585328E+01
  0.30500  0.19999999E+01  0.82618365E+01  0.82618365E+01
  0.31500  0.19999999E+01  0.82651819E+01  0.82651819E+01
  0.32500  0.19999999E+01  0.82685691E+01  0.82685691E+01
  0.33500  0.19999999E+01  0.82719978E+01  0.82719978E+01
  0.34500  0.19999999E+01  0.82754681E+01  0.82754681E+01
  0.35500  0.19999999E+01  0.82789798E+01  0.82789798E+01
  0.36500  0.19999999E+01  0.82825330E+01  0.82825330E+01
  0.37500  0.19999999E+01  0.82861276E+01  0.82861276E+01
  0.38500  0.19999999E+01  0.82897634E+01  0.82897634E+01
  0.39500  0.19999999E+01  0.82934405E+01  0.82934405E+01
  0.40500  0.19999999E+01  0.82971587E+01  0.82971587E+01
  0.41500  0.19999999E+01  0.83009181E+01  0.83009181E+01
  0.42500  0.19999999E+01  0.83047185E+01  0.83047185E+01
  0.43500  0.19999999E+01  0.83085600E+01  0.83085600E+01
  0.44500  0.19999999E+01  0.83124423E+01  0.83124423E+01
  0.45500  0.19999999E+01  0.83163655E+01  0.83163655E+01
  0.46500  0.19999999E+01  0.83203296E+01  0.83203296E+01
  0.47500  0.19999999E+01  0.83243344E+01  0.83243344E+01
  0.48500  0.19999999E+01  0.83283799E+01  0.83283799E+01
  0.49500  0.19999999E+01  0.83324660E+01  0.83324660E+01
 Transport for spin ->  1  , kxy-point ->   2, of Node     0
           kxy=(-.284 0.164 0.000 ),w= 0.0156
    E           T(E)            TotDOS         PDOS
 -0.49500  0.19999999E+01  0.10778995E+02  0.10778995E+02
 -0.48500  0.19999999E+01  0.10771315E+02  0.10771315E+02
 -0.47500  0.19999999E+01  0.10763588E+02  0.10763588E+02
 -0.46500  0.19999999E+01  0.10755812E+02  0.10755812E+02
 -0.45500  0.19999999E+01  0.10747987E+02  0.10747987E+02
 -0.44500  0.19999999E+01  0.10740112E+02  0.10740112E+02
 -0.43500  0.19999999E+01  0.10732187E+02  0.10732187E+02
 -0.42500  0.19999999E+01  0.10724211E+02  0.10724211E+02
 -0.41500  0.19999999E+01  0.10716183E+02  0.10716183E+02
 -0.40500  0.19999999E+01  0.10708103E+02  0.10708103E+02
 -0.39500  0.19999999E+01  0.10699970E+02  0.10699970E+02
 -0.38500  0.19999999E+01  0.10691785E+02  0.10691785E+02
 -0.37500  0.19999999E+01  0.10683545E+02  0.10683545E+02
 -0.36500  0.19999999E+01  0.10675251E+02  0.10675251E+02
 -0.35500  0.19999999E+01  0.10666903E+02  0.10666903E+02
 -0.34500  0.19999999E+01  0.10658501E+02  0.10658501E+02
 -0.33500  0.19999999E+01  0.10650043E+02  0.10650043E+02
 -0.32500  0.19999999E+01  0.10641530E+02  0.10641530E+02
 -0.31500  0.19999999E+01  0.10632962E+02  0.10632962E+02
 -0.30500  0.19999999E+01  0.10624338E+02  0.10624338E+02
 -0.29500  0.19999999E+01  0.10615659E+02  0.10615659E+02
 -0.28500  0.19999999E+01  0.10606924E+02  0.10606924E+02
 -0.27500  0.19999999E+01  0.10598132E+02  0.10598132E+02
 -0.26500  0.19999999E+01  0.10589286E+02  0.10589286E+02
 -0.25500  0.19999999E+01  0.10580383E+02  0.10580383E+02
 -0.24500  0.19999999E+01  0.10571424E+02  0.10571424E+02
 -0.23500  0.19999999E+01  0.10562410E+02  0.10562410E+02
 -0.22500  0.19999999E+01  0.10553341E+02  0.10553341E+02
 -0.21500  0.19999999E+01  0.10544216E+02  0.10544216E+02
 -0.20500  0.19999999E+01  0.10535036E+02  0.10535036E+02
 -0.19500  0.19999999E+01  0.10525802E+02  0.10525802E+02
 -0.18500  0.19999999E+01  0.10516512E+02  0.10516512E+02
 -0.17500  0.19999999E+01  0.10507169E+02  0.10507169E+02
 -0.16500  0.19999999E+01  0.10497772E+02  0.10497772E+02
 -0.15500  0.19999999E+01  0.10488321E+02  0.10488321E+02
 -0.14500  0.19999999E+01  0.10478817E+02  0.10478817E+02
 -0.13500  0.19999999E+01  0.10469261E+02  0.10469261E+02
 -0.12500  0.19999999E+01  0.10459652E+02  0.10459652E+02
 -0.11500  0.19999999E+01  0.10449992E+02  0.10449992E+02
 -0.10500  0.19999999E+01  0.10440281E+02  0.10440281E+02
 -0.09500  0.19999999E+01  0.10430519E+02  0.10430519E+02
 -0.08500  0.19999999E+01  0.10420708E+02  0.10420708E+02
 -0.07500  0.19999999E+01  0.10410847E+02  0.10410847E+02
 -0.06500  0.19999999E+01  0.10400938E+02  0.10400938E+02
 -0.05500  0.19999999E+01  0.10390981E+02  0.10390981E+02
 -0.04500  0.19999999E+01  0.10380977E+02  0.10380977E+02
 -0.03500  0.19999999E+01  0.10370926E+02  0.10370926E+02
 -0.02500  0.19999999E+01  0.10360830E+02  0.10360830E+02
 -0.01500  0.19999999E+01  0.10350689E+02  0.10350689E+02
 -0.00500  0.19999999E+01  0.10340504E+02  0.10340504E+02
  0.00500  0.19999999E+01  0.10330276E+02  0.10330276E+02
  0.01500  0.19999999E+01  0.10320006E+02  0.10320006E+02
  0.02500  0.19999999E+01  0.10309694E+02  0.10309694E+02
  0.03500  0.19999999E+01  0.10299342E+02  0.10299342E+02
  0.04500  0.19999999E+01  0.10288950E+02  0.10288950E+02
  0.05500  0.19999999E+01  0.10278520E+02  0.10278520E+02
  0.06500  0.19999999E+01  0.10268052E+02  0.10268052E+02
  0.07500  0.19999999E+01  0.10257548E+02  0.10257548E+02
  0.08500  0.19999999E+01  0.10247007E+02  0.10247007E+02
  0.09500  0.19999999E+01  0.10236433E+02  0.10236433E+02
  0.10500  0.19999999E+01  0.10225824E+02  0.10225824E+02
  0.11500  0.19999999E+01  0.10215183E+02  0.10215183E+02
  0.12500  0.19999999E+01  0.10204511E+02  0.10204511E+02
  0.13500  0.19999999E+01  0.10193808E+02  0.10193808E+02
  0.14500  0.19999999E+01  0.10183076E+02  0.10183076E+02
  0.15500  0.19999999E+01  0.10172316E+02  0.10172316E+02
  0.16500  0.19999999E+01  0.10161529E+02  0.10161529E+02
  0.17500  0.19999999E+01  0.10150716E+02  0.10150716E+02
  0.18500  0.19999999E+01  0.10139878E+02  0.10139878E+02
  0.19500  0.19999999E+01  0.10129016E+02  0.10129016E+02
  0.20500  0.19999999E+01  0.10118132E+02  0.10118132E+02
  0.21500  0.19999999E+01  0.10107226E+02  0.10107226E+02
  0.22500  0.20000000E+01  0.10096300E+02  0.10096300E+02
  0.23500  0.20000000E+01  0.10085355E+02  0.10085355E+02
  0.24500  0.20000000E+01  0.10074392E+02  0.10074392E+02
  0.25500  0.20000000E+01  0.10063412E+02  0.10063412E+02
  0.26500  0.20000000E+01  0.10052417E+02  0.10052417E+02
  0.27500  0.20000000E+01  0.10041408E+02  0.10041408E+02
  0.28500  0.20000000E+01  0.10030385E+02  0.10030385E+02
  0.29500  0.20000000E+01  0.10019351E+02  0.10019351E+02
  0.30500  0.20000000E+01  0.10008305E+02  0.10008305E+02
  0.31500  0.20000000E+01  0.99972499E+01  0.99972499E+01
  0.32500  0.20000000E+01  0.99861864E+01  0.99861864E+01
  0.33500  0.20000000E+01  0.99751156E+01  0.99751156E+01
  0.34500  0.20000000E+01  0.99640387E+01  0.99640387E+01
  0.35500  0.20000000E+01  0.99529570E+01  0.99529570E+01
  0.36500  0.20000000E+01  0.99418715E+01  0.99418715E+01
  0.37500  0.20000000E+01  0.99307835E+01  0.99307835E+01
  0.38500  0.20000000E+01  0.99196941E+01  0.99196941E+01
  0.39500  0.20000000E+01  0.99086045E+01  0.99086045E+01
  0.40500  0.20000000E+01  0.98975159E+01  0.98975159E+01
  0.41500  0.20000000E+01  0.98864293E+01  0.98864293E+01
  0.42500  0.20000000E+01  0.98753461E+01  0.98753461E+01
  0.43500  0.20000000E+01  0.98642672E+01  0.98642672E+01
  0.44500  0.20000000E+01  0.98531939E+01  0.98531939E+01
  0.45500  0.20000000E+01  0.98421273E+01  0.98421273E+01
  0.46500  0.20000000E+01  0.98310685E+01  0.98310685E+01
  0.47500  0.20000000E+01  0.98200186E+01  0.98200186E+01
  0.48500  0.20000000E+01  0.98089787E+01  0.98089787E+01
  0.49500  0.20000000E+01  0.97979500E+01  0.97979500E+01
 Transport for spin ->  1  , kxy-point ->   3, of Node     0
           kxy=(-.142 0.082 0.000 ),w= 0.0156
    E           T(E)            TotDOS         PDOS
 -0.49500  0.20000000E+01  0.93484117E+01  0.93484117E+01
 -0.48500  0.20000000E+01  0.93230274E+01  0.93230274E+01
 -0.47500  0.20000000E+01  0.92978787E+01  0.92978787E+01
 -0.46500  0.20000000E+01  0.92729648E+01  0.92729648E+01
 -0.45500  0.20000000E+01  0.92482847E+01  0.92482847E+01
 -0.44500  0.20000000E+01  0.92238376E+01  0.92238376E+01
 -0.43500  0.20000000E+01  0.91996225E+01  0.91996225E+01
 -0.42500  0.20000000E+01  0.91756385E+01  0.91756385E+01
 -0.41500  0.20000000E+01  0.91518847E+01  0.91518847E+01
 -0.40500  0.20000000E+01  0.91283601E+01  0.91283601E+01
 -0.39500  0.20000000E+01  0.91050638E+01  0.91050638E+01
 -0.38500  0.20000000E+01  0.90819948E+01  0.90819948E+01
 -0.37500  0.20000000E+01  0.90591523E+01  0.90591523E+01
 -0.36500  0.20000000E+01  0.90365352E+01  0.90365352E+01
 -0.35500  0.20000000E+01  0.90141426E+01  0.90141426E+01
 -0.34500  0.20000000E+01  0.89919737E+01  0.89919737E+01
 -0.33500  0.20000000E+01  0.89700274E+01  0.89700274E+01
 -0.32500  0.20000000E+01  0.89483029E+01  0.89483029E+01
 -0.31500  0.20000000E+01  0.89267992E+01  0.89267992E+01
 -0.30500  0.20000000E+01  0.89055155E+01  0.89055155E+01
 -0.29500  0.20000000E+01  0.88844508E+01  0.88844508E+01
 -0.28500  0.20000000E+01  0.88636044E+01  0.88636044E+01
 -0.27500  0.20000000E+01  0.88429754E+01  0.88429754E+01
 -0.26500  0.20000000E+01  0.88225630E+01  0.88225630E+01
 -0.25500  0.20000000E+01  0.88023663E+01  0.88023663E+01
 -0.24500  0.20000000E+01  0.87823845E+01  0.87823845E+01
 -0.23500  0.20000000E+01  0.87626170E+01  0.87626170E+01
 -0.22500  0.20000000E+01  0.87430630E+01  0.87430630E+01
 -0.21500  0.20000000E+01  0.87237217E+01  0.87237217E+01
 -0.20500  0.20000000E+01  0.87045926E+01  0.87045926E+01
 -0.19500  0.20000000E+01  0.86856749E+01  0.86856749E+01
 -0.18500  0.20000000E+01  0.86669681E+01  0.86669681E+01
 -0.17500  0.20000000E+01  0.86484715E+01  0.86484715E+01
 -0.16500  0.20000000E+01  0.86301847E+01  0.86301847E+01
 -0.15500  0.20000000E+01  0.86121071E+01  0.86121071E+01
 -0.14500  0.20000000E+01  0.85942383E+01  0.85942383E+01
 -0.13500  0.20000000E+01  0.85765778E+01  0.85765778E+01
 -0.12500  0.20000000E+01  0.85591252E+01  0.85591252E+01
 -0.11500  0.20000000E+01  0.85418803E+01  0.85418803E+01
 -0.10500  0.20000000E+01  0.85248427E+01  0.85248427E+01
 -0.09500  0.20000000E+01  0.85080122E+01  0.85080122E+01
 -0.08500  0.20000000E+01  0.84913886E+01  0.84913886E+01
 -0.07500  0.20000000E+01  0.84749718E+01  0.84749718E+01
 -0.06500  0.20000000E+01  0.84587617E+01  0.84587617E+01
 -0.05500  0.20000000E+01  0.84427582E+01  0.84427582E+01
 -0.04500  0.20000000E+01  0.84269615E+01  0.84269615E+01
 -0.03500  0.20000000E+01  0.84113716E+01  0.84113716E+01
 -0.02500  0.20000000E+01  0.83959886E+01  0.83959886E+01
 -0.01500  0.20000000E+01  0.83808129E+01  0.83808129E+01
 -0.00500  0.20000000E+01  0.83658447E+01  0.83658447E+01
  0.00500  0.20000000E+01  0.83510844E+01  0.83510844E+01
  0.01500  0.20000000E+01  0.83365324E+01  0.83365324E+01
  0.02500  0.20000000E+01  0.83221894E+01  0.83221894E+01
  0.03500  0.20000000E+01  0.83080558E+01  0.83080558E+01
  0.04500  0.20000000E+01  0.82941324E+01  0.82941324E+01
  0.05500  0.20000000E+01  0.82804200E+01  0.82804200E+01
  0.06500  0.20000000E+01  0.82669194E+01  0.82669194E+01
  0.07500  0.19999999E+01  0.82536317E+01  0.82536317E+01
  0.08500  0.19999999E+01  0.82405580E+01  0.82405580E+01
  0.09500  0.19999999E+01  0.82276993E+01  0.82276993E+01
  0.10500  0.19999999E+01  0.82150571E+01  0.82150571E+01
  0.11500  0.19999999E+01  0.82026326E+01  0.82026326E+01
  0.12500  0.19999999E+01  0.81904275E+01  0.81904275E+01
  0.13500  0.19999999E+01  0.81784434E+01  0.81784434E+01
  0.14500  0.19999999E+01  0.81666821E+01  0.81666821E+01
  0.15500  0.19999999E+01  0.81551454E+01  0.81551454E+01
  0.16500  0.19999999E+01  0.81438355E+01  0.81438355E+01
  0.17500  0.19999999E+01  0.81327544E+01  0.81327544E+01
  0.18500  0.19999999E+01  0.81219047E+01  0.81219047E+01
  0.19500  0.19999999E+01  0.81112888E+01  0.81112888E+01
  0.20500  0.19999999E+01  0.81009094E+01  0.81009094E+01
  0.21500  0.19999999E+01  0.80907694E+01  0.80907694E+01
  0.22500  0.19999999E+01  0.80808718E+01  0.80808718E+01
  0.23500  0.19999999E+01  0.80712198E+01  0.80712198E+01
  0.24500  0.19999999E+01  0.80618169E+01  0.80618169E+01
  0.25500  0.19999999E+01  0.80526668E+01  0.80526668E+01
  0.26500  0.19999999E+01  0.80437734E+01  0.80437734E+01
  0.27500  0.19999999E+01  0.80351407E+01  0.80351407E+01
  0.28500  0.19999999E+01  0.80267732E+01  0.80267732E+01
  0.29500  0.19999999E+01  0.80186754E+01  0.80186754E+01
  0.30500  0.19999999E+01  0.80108523E+01  0.80108523E+01
  0.31500  0.19999999E+01  0.80033091E+01  0.80033091E+01
  0.32500  0.19999999E+01  0.79960513E+01  0.79960513E+01
  0.33500  0.19999999E+01  0.79890847E+01  0.79890847E+01
  0.34500  0.19999999E+01  0.79824154E+01  0.79824154E+01
  0.35500  0.19999999E+01  0.79760501E+01  0.79760501E+01
  0.36500  0.19999999E+01  0.79699956E+01  0.79699956E+01
  0.37500  0.19999999E+01  0.79642592E+01  0.79642592E+01
  0.38500  0.19999999E+01  0.79588486E+01  0.79588486E+01
  0.39500  0.19999999E+01  0.79537721E+01  0.79537721E+01
  0.40500  0.19999999E+01  0.79490382E+01  0.79490382E+01
  0.41500  0.19999999E+01  0.79446563E+01  0.79446563E+01
  0.42500  0.19999999E+01  0.79406359E+01  0.79406359E+01
  0.43500  0.19999999E+01  0.79369873E+01  0.79369873E+01
  0.44500  0.19999999E+01  0.79337216E+01  0.79337216E+01
  0.45500  0.19999999E+01  0.79308501E+01  0.79308501E+01
  0.46500  0.19999999E+01  0.79283852E+01  0.79283852E+01
  0.47500  0.19999999E+01  0.79263398E+01  0.79263398E+01
  0.48500  0.19999999E+01  0.79247277E+01  0.79247277E+01
  0.49500  0.19999999E+01  0.79235634E+01  0.79235634E+01
 Transport for spin ->  1  , kxy-point ->   4, of Node     0
           kxy=(0.000 0.000 0.000 ),w= 0.0156
    E           T(E)            TotDOS         PDOS
 -0.49500  0.16897948E-06  0.80585790E-02  0.80585790E-02
 -0.48500  0.71552109E-07  0.43498627E-02  0.43498627E-02
 -0.47500  0.38620331E-07  0.28111375E-02  0.28111375E-02
 -0.46500  0.23851782E-07  0.20075916E-02  0.20075916E-02
 -0.45500  0.16054797E-07  0.15282104E-02  0.15282104E-02
 -0.44500  0.11473602E-07  0.12161187E-02  0.12161187E-02
 -0.43500  0.85698578E-08  0.99996902E-03  0.99996902E-03
 -0.42500  0.66220688E-08  0.84318950E-03  0.84318950E-03
 -0.41500  0.52567560E-08  0.72532389E-03  0.72532389E-03
 -0.40500  0.42654610E-08  0.63414046E-03  0.63414046E-03
 -0.39500  0.35246950E-08  0.56192903E-03  0.56192903E-03
 -0.38500  0.29576847E-08  0.50361700E-03  0.50361700E-03
 -0.37500  0.25147520E-08  0.45574652E-03  0.45574652E-03
 -0.36500  0.21626497E-08  0.41588903E-03  0.41588903E-03
 -0.35500  0.18784771E-08  0.38229478E-03  0.38229478E-03
 -0.34500  0.16460625E-08  0.35367496E-03  0.35367496E-03
 -0.33500  0.14537351E-08  0.32906184E-03  0.32906184E-03
 -0.32500  0.12929091E-08  0.30771629E-03  0.30771629E-03
 -0.31500  0.11571603E-08  0.28906527E-03  0.28906527E-03
 -0.30500  0.10416076E-08  0.27265845E-03  0.27265845E-03
 -0.29500  0.94249173E-09  0.25813762E-03  0.25813762E-03
 -0.28500  0.85688103E-09  0.24521474E-03  0.24521474E-03
 -0.27500  0.78246353E-09  0.23365582E-03  0.23365582E-03
 -0.26500  0.71739711E-09  0.22326912E-03  0.22326912E-03
 -0.25500  0.66020007E-09  0.21389614E-03  0.21389614E-03
 -0.24500  0.60967029E-09  0.20540489E-03  0.20540489E-03
 -0.23500  0.56482461E-09  0.19768465E-03  0.19768465E-03
 -0.22500  0.52485298E-09  0.19064197E-03  0.19064197E-03
 -0.21500  0.48908335E-09  0.18419745E-03  0.18419745E-03
 -0.20500  0.45695460E-09  0.17828330E-03  0.17828330E-03
 -0.19500  0.42799539E-09  0.17284127E-03  0.17284127E-03
 -0.18500  0.40180759E-09  0.16782112E-03  0.16782112E-03
 -0.17500  0.37805313E-09  0.16317928E-03  0.16317928E-03
 -0.16500  0.35644352E-09  0.15887782E-03  0.15887782E-03
 -0.15500  0.33673143E-09  0.15488356E-03  0.15488356E-03
 -0.14500  0.31870387E-09  0.15116741E-03  0.15116741E-03
 -0.13500  0.30217669E-09  0.14770372E-03  0.14770372E-03
 -0.12500  0.28699003E-09  0.14446981E-03  0.14446981E-03
 -0.11500  0.27300461E-09  0.14144559E-03  0.14144559E-03
 -0.10500  0.26009863E-09  0.13861318E-03  0.13861318E-03
 -0.09500  0.24816526E-09  0.13595662E-03  0.13595662E-03
 -0.08500  0.23711045E-09  0.13346164E-03  0.13346164E-03
 -0.07500  0.22685118E-09  0.13111542E-03  0.13111542E-03
 -0.06500  0.21731395E-09  0.12890647E-03  0.12890647E-03
 -0.05500  0.20843351E-09  0.12682438E-03  0.12682438E-03
 -0.04500  0.20015177E-09  0.12485978E-03  0.12485978E-03
 -0.03500  0.19241688E-09  0.12300418E-03  0.12300418E-03
 -0.02500  0.18518248E-09  0.12124985E-03  0.12124985E-03
 -0.01500  0.17840698E-09  0.11958979E-03  0.11958979E-03
 -0.00500  0.17205300E-09  0.11801760E-03  0.11801760E-03
  0.00500  0.16608690E-09  0.11652745E-03  0.11652745E-03
  0.01500  0.16047829E-09  0.11511401E-03  0.11511401E-03
  0.02500  0.15519971E-09  0.11377239E-03  0.11377239E-03
  0.03500  0.15022627E-09  0.11249810E-03  0.11249810E-03
  0.04500  0.14553540E-09  0.11128702E-03  0.11128702E-03
  0.05500  0.14110656E-09  0.11013535E-03  0.11013535E-03
  0.06500  0.13692103E-09  0.10903961E-03  0.10903961E-03
  0.07500  0.13296177E-09  0.10799655E-03  0.10799655E-03
  0.08500  0.12921317E-09  0.10700320E-03  0.10700320E-03
  0.09500  0.12566098E-09  0.10605678E-03  0.10605678E-03
  0.10500  0.12229210E-09  0.10515475E-03  0.10515475E-03
  0.11500  0.11909455E-09  0.10429471E-03  0.10429471E-03
  0.12500  0.11605728E-09  0.10347447E-03  0.10347447E-03
  0.13500  0.11317015E-09  0.10269197E-03  0.10269197E-03
  0.14500  0.11042379E-09  0.10194530E-03  0.10194530E-03
  0.15500  0.10780959E-09  0.10123267E-03  0.10123267E-03
  0.16500  0.10531956E-09  0.10055242E-03  0.10055242E-03
  0.17500  0.10294632E-09  0.99902997E-04  0.99902997E-04
  0.18500  0.10068306E-09  0.99282947E-04  0.99282947E-04
  0.19500  0.98523426E-10  0.98690911E-04  0.98690911E-04
  0.20500  0.96461560E-10  0.98125613E-04  0.98125613E-04
  0.21500  0.94491998E-10  0.97585861E-04  0.97585861E-04
  0.22500  0.92609667E-10  0.97070533E-04  0.97070533E-04
  0.23500  0.90809843E-10  0.96578578E-04  0.96578578E-04
  0.24500  0.89088125E-10  0.96109006E-04  0.96109006E-04
  0.25500  0.87440409E-10  0.95660887E-04  0.95660887E-04
  0.26500  0.85862864E-10  0.95233345E-04  0.95233345E-04
  0.27500  0.84351913E-10  0.94825557E-04  0.94825557E-04
  0.28500  0.82904208E-10  0.94436745E-04  0.94436745E-04
  0.29500  0.81516619E-10  0.94066175E-04  0.94066175E-04
  0.30500  0.80186214E-10  0.93713157E-04  0.93713157E-04
  0.31500  0.78910244E-10  0.93377036E-04  0.93377036E-04
  0.32500  0.77686133E-10  0.93057197E-04  0.93057197E-04
  0.33500  0.76511460E-10  0.92753055E-04  0.92753055E-04
  0.34500  0.75383954E-10  0.92464058E-04  0.92464058E-04
  0.35500  0.74301479E-10  0.92189684E-04  0.92189684E-04
  0.36500  0.73262025E-10  0.91929439E-04  0.91929439E-04
  0.37500  0.72263703E-10  0.91682855E-04  0.91682855E-04
  0.38500  0.71304732E-10  0.91449486E-04  0.91449486E-04
  0.39500  0.70383434E-10  0.91228913E-04  0.91228913E-04
  0.40500  0.69498228E-10  0.91020737E-04  0.91020737E-04
  0.41500  0.68647622E-10  0.90824577E-04  0.90824577E-04
  0.42500  0.67830207E-10  0.90640077E-04  0.90640077E-04
  0.43500  0.67044654E-10  0.90466893E-04  0.90466893E-04
  0.44500  0.66289706E-10  0.90304702E-04  0.90304702E-04
  0.45500  0.65564175E-10  0.90153196E-04  0.90153196E-04
  0.46500  0.64866939E-10  0.90012082E-04  0.90012082E-04
  0.47500  0.64196935E-10  0.89881084E-04  0.89881084E-04
  0.48500  0.63553157E-10  0.89759935E-04  0.89759935E-04
  0.49500  0.62934653E-10  0.89648386E-04  0.89648386E-04
 Transport for spin ->  1  , kxy-point ->   5, of Node     0
           kxy=(0.142 -.082 0.000 ),w= 0.0156
    E           T(E)            TotDOS         PDOS
 -0.49500  0.20000000E+01  0.93484117E+01  0.93484117E+01
 -0.48500  0.20000000E+01  0.93230274E+01  0.93230274E+01
 -0.47500  0.20000000E+01  0.92978787E+01  0.92978787E+01
 -0.46500  0.20000000E+01  0.92729648E+01  0.92729648E+01
 -0.45500  0.20000000E+01  0.92482847E+01  0.92482847E+01
 -0.44500  0.20000000E+01  0.92238376E+01  0.92238376E+01
 -0.43500  0.20000000E+01  0.91996225E+01  0.91996225E+01
 -0.42500  0.20000000E+01  0.91756385E+01  0.91756385E+01
 -0.41500  0.20000000E+01  0.91518847E+01  0.91518847E+01
 -0.40500  0.20000000E+01  0.91283601E+01  0.91283601E+01
 -0.39500  0.20000000E+01  0.91050638E+01  0.91050638E+01
 -0.38500  0.20000000E+01  0.90819948E+01  0.90819948E+01
 -0.37500  0.20000000E+01  0.90591523E+01  0.90591523E+01
 -0.36500  0.20000000E+01  0.90365352E+01  0.90365352E+01
 -0.35500  0.20000000E+01  0.90141426E+01  0.90141426E+01
 -0.34500  0.20000000E+01  0.89919737E+01  0.89919737E+01
 -0.33500  0.20000000E+01  0.89700274E+01  0.89700274E+01
 -0.32500  0.20000000E+01  0.89483029E+01  0.89483029E+01
 -0.31500  0.20000000E+01  0.89267992E+01  0.89267992E+01
 -0.30500  0.20000000E+01  0.89055155E+01  0.89055155E+01
 -0.29500  0.20000000E+01  0.88844508E+01  0.88844508E+01
 -0.28500  0.20000000E+01  0.88636044E+01  0.88636044E+01
 -0.27500  0.20000000E+01  0.88429754E+01  0.88429754E+01
 -0.26500  0.20000000E+01  0.88225630E+01  0.88225630E+01
 -0.25500  0.20000000E+01  0.88023663E+01  0.88023663E+01
 -0.24500  0.20000000E+01  0.87823845E+01  0.87823845E+01
 -0.23500  0.20000000E+01  0.87626170E+01  0.87626170E+01
 -0.22500  0.20000000E+01  0.87430630E+01  0.87430630E+01
 -0.21500  0.20000000E+01  0.87237217E+01  0.87237217E+01
 -0.20500  0.20000000E+01  0.87045926E+01  0.87045926E+01
 -0.19500  0.20000000E+01  0.86856749E+01  0.86856749E+01
 -0.18500  0.20000000E+01  0.86669681E+01  0.86669681E+01
 -0.17500  0.20000000E+01  0.86484715E+01  0.86484715E+01
 -0.16500  0.20000000E+01  0.86301847E+01  0.86301847E+01
 -0.15500  0.20000000E+01  0.86121071E+01  0.86121071E+01
 -0.14500  0.20000000E+01  0.85942383E+01  0.85942383E+01
 -0.13500  0.20000000E+01  0.85765778E+01  0.85765778E+01
 -0.12500  0.20000000E+01  0.85591252E+01  0.85591252E+01
 -0.11500  0.20000000E+01  0.85418803E+01  0.85418803E+01
 -0.10500  0.20000000E+01  0.85248427E+01  0.85248427E+01
 -0.09500  0.20000000E+01  0.85080122E+01  0.85080122E+01
 -0.08500  0.20000000E+01  0.84913886E+01  0.84913886E+01
 -0.07500  0.20000000E+01  0.84749718E+01  0.84749718E+01
 -0.06500  0.20000000E+01  0.84587617E+01  0.84587617E+01
 -0.05500  0.20000000E+01  0.84427582E+01  0.84427582E+01
 -0.04500  0.20000000E+01  0.84269615E+01  0.84269615E+01
 -0.03500  0.20000000E+01  0.84113716E+01  0.84113716E+01
 -0.02500  0.20000000E+01  0.83959886E+01  0.83959886E+01
 -0.01500  0.20000000E+01  0.83808129E+01  0.83808129E+01
 -0.00500  0.20000000E+01  0.83658447E+01  0.83658447E+01
  0.00500  0.20000000E+01  0.83510844E+01  0.83510844E+01
  0.01500  0.20000000E+01  0.83365324E+01  0.83365324E+01
  0.02500  0.20000000E+01  0.83221894E+01  0.83221894E+01
  0.03500  0.20000000E+01  0.83080558E+01  0.83080558E+01
  0.04500  0.20000000E+01  0.82941324E+01  0.82941324E+01
  0.05500  0.20000000E+01  0.82804200E+01  0.82804200E+01
  0.06500  0.20000000E+01  0.82669194E+01  0.82669194E+01
  0.07500  0.19999999E+01  0.82536317E+01  0.82536317E+01
  0.08500  0.19999999E+01  0.82405580E+01  0.82405580E+01
  0.09500  0.19999999E+01  0.82276993E+01  0.82276993E+01
  0.10500  0.19999999E+01  0.82150571E+01  0.82150571E+01
  0.11500  0.19999999E+01  0.82026326E+01  0.82026326E+01
  0.12500  0.19999999E+01  0.81904275E+01  0.81904275E+01
  0.13500  0.19999999E+01  0.81784434E+01  0.81784434E+01
  0.14500  0.19999999E+01  0.81666821E+01  0.81666821E+01
  0.15500  0.19999999E+01  0.81551454E+01  0.81551454E+01
  0.16500  0.19999999E+01  0.81438355E+01  0.81438355E+01
  0.17500  0.19999999E+01  0.81327544E+01  0.81327544E+01
  0.18500  0.19999999E+01  0.81219047E+01  0.81219047E+01
  0.19500  0.19999999E+01  0.81112888E+01  0.81112888E+01
  0.20500  0.19999999E+01  0.81009094E+01  0.81009094E+01
  0.21500  0.19999999E+01  0.80907694E+01  0.80907694E+01
  0.22500  0.19999999E+01  0.80808718E+01  0.80808718E+01
  0.23500  0.19999999E+01  0.80712198E+01  0.80712198E+01
  0.24500  0.19999999E+01  0.80618169E+01  0.80618169E+01
  0.25500  0.19999999E+01  0.80526668E+01  0.80526668E+01
  0.26500  0.19999999E+01  0.80437734E+01  0.80437734E+01
  0.27500  0.19999999E+01  0.80351407E+01  0.80351407E+01
  0.28500  0.19999999E+01  0.80267732E+01  0.80267732E+01
  0.29500  0.19999999E+01  0.80186754E+01  0.80186754E+01
  0.30500  0.19999999E+01  0.80108523E+01  0.80108523E+01
  0.31500  0.19999999E+01  0.80033091E+01  0.80033091E+01
  0.32500  0.19999999E+01  0.79960513E+01  0.79960513E+01
  0.33500  0.19999999E+01  0.79890847E+01  0.79890847E+01
  0.34500  0.19999999E+01  0.79824154E+01  0.79824154E+01
  0.35500  0.19999999E+01  0.79760501E+01  0.79760501E+01
  0.36500  0.19999999E+01  0.79699956E+01  0.79699956E+01
  0.37500  0.19999999E+01  0.79642592E+01  0.79642592E+01
  0.38500  0.19999999E+01  0.79588486E+01  0.79588486E+01
  0.39500  0.19999999E+01  0.79537721E+01  0.79537721E+01
  0.40500  0.19999999E+01  0.79490382E+01  0.79490382E+01
  0.41500  0.19999999E+01  0.79446563E+01  0.79446563E+01
  0.42500  0.19999999E+01  0.79406359E+01  0.79406359E+01
  0.43500  0.19999999E+01  0.79369873E+01  0.79369873E+01
  0.44500  0.19999999E+01  0.79337216E+01  0.79337216E+01
  0.45500  0.19999999E+01  0.79308501E+01  0.79308501E+01
  0.46500  0.19999999E+01  0.79283852E+01  0.79283852E+01
  0.47500  0.19999999E+01  0.79263398E+01  0.79263398E+01
  0.48500  0.19999999E+01  0.79247277E+01  0.79247277E+01
  0.49500  0.19999999E+01  0.79235634E+01  0.79235634E+01
 Transport for spin ->  1  , kxy-point ->   1, of Node     1
           kxy=(0.284 -.164 0.000 ),w= 0.0156
    E           T(E)            TotDOS         PDOS
 -0.49500  0.19999999E+01  0.10778995E+02  0.10778995E+02
 -0.48500  0.19999999E+01  0.10771315E+02  0.10771315E+02
 -0.47500  0.19999999E+01  0.10763588E+02  0.10763588E+02
 -0.46500  0.19999999E+01  0.10755812E+02  0.10755812E+02
 -0.45500  0.19999999E+01  0.10747987E+02  0.10747987E+02
 -0.44500  0.19999999E+01  0.10740112E+02  0.10740112E+02
 -0.43500  0.19999999E+01  0.10732187E+02  0.10732187E+02
 -0.42500  0.19999999E+01  0.10724211E+02  0.10724211E+02
 -0.41500  0.19999999E+01  0.10716183E+02  0.10716183E+02
 -0.40500  0.19999999E+01  0.10708103E+02  0.10708103E+02
 -0.39500  0.19999999E+01  0.10699970E+02  0.10699970E+02
 -0.38500  0.19999999E+01  0.10691785E+02  0.10691785E+02
 -0.37500  0.19999999E+01  0.10683545E+02  0.10683545E+02
 -0.36500  0.19999999E+01  0.10675251E+02  0.10675251E+02
 -0.35500  0.19999999E+01  0.10666903E+02  0.10666903E+02
 -0.34500  0.19999999E+01  0.10658501E+02  0.10658501E+02
 -0.33500  0.19999999E+01  0.10650043E+02  0.10650043E+02
 -0.32500  0.19999999E+01  0.10641530E+02  0.10641530E+02
 -0.31500  0.19999999E+01  0.10632962E+02  0.10632962E+02
 -0.30500  0.19999999E+01  0.10624338E+02  0.10624338E+02
 -0.29500  0.19999999E+01  0.10615659E+02  0.10615659E+02
 -0.28500  0.19999999E+01  0.10606924E+02  0.10606924E+02
 -0.27500  0.19999999E+01  0.10598132E+02  0.10598132E+02
 -0.26500  0.19999999E+01  0.10589286E+02  0.10589286E+02
 -0.25500  0.19999999E+01  0.10580383E+02  0.10580383E+02
 -0.24500  0.19999999E+01  0.10571424E+02  0.10571424E+02
 -0.23500  0.19999999E+01  0.10562410E+02  0.10562410E+02
 -0.22500  0.19999999E+01  0.10553341E+02  0.10553341E+02
 -0.21500  0.19999999E+01  0.10544216E+02  0.10544216E+02
 -0.20500  0.19999999E+01  0.10535036E+02  0.10535036E+02
 -0.19500  0.19999999E+01  0.10525802E+02  0.10525802E+02
 -0.18500  0.19999999E+01  0.10516512E+02  0.10516512E+02
 -0.17500  0.19999999E+01  0.10507169E+02  0.10507169E+02
 -0.16500  0.19999999E+01  0.10497772E+02  0.10497772E+02
 -0.15500  0.19999999E+01  0.10488321E+02  0.10488321E+02
 -0.14500  0.19999999E+01  0.10478817E+02  0.10478817E+02
 -0.13500  0.19999999E+01  0.10469261E+02  0.10469261E+02
 -0.12500  0.19999999E+01  0.10459652E+02  0.10459652E+02
 -0.11500  0.19999999E+01  0.10449992E+02  0.10449992E+02
 -0.10500  0.19999999E+01  0.10440281E+02  0.10440281E+02
 -0.09500  0.19999999E+01  0.10430519E+02  0.10430519E+02
 -0.08500  0.19999999E+01  0.10420708E+02  0.10420708E+02
 -0.07500  0.19999999E+01  0.10410847E+02  0.10410847E+02
 -0.06500  0.19999999E+01  0.10400938E+02  0.10400938E+02
 -0.05500  0.19999999E+01  0.10390981E+02  0.10390981E+02
 -0.04500  0.19999999E+01  0.10380977E+02  0.10380977E+02
 -0.03500  0.19999999E+01  0.10370926E+02  0.10370926E+02
 -0.02500  0.19999999E+01  0.10360830E+02  0.10360830E+02
 -0.01500  0.19999999E+01  0.10350689E+02  0.10350689E+02
 -0.00500  0.19999999E+01  0.10340504E+02  0.10340504E+02
  0.00500  0.19999999E+01  0.10330276E+02  0.10330276E+02
  0.01500  0.19999999E+01  0.10320006E+02  0.10320006E+02
  0.02500  0.19999999E+01  0.10309694E+02  0.10309694E+02
  0.03500  0.19999999E+01  0.10299342E+02  0.10299342E+02
  0.04500  0.19999999E+01  0.10288950E+02  0.10288950E+02
  0.05500  0.19999999E+01  0.10278520E+02  0.10278520E+02
  0.06500  0.19999999E+01  0.10268052E+02  0.10268052E+02
  0.07500  0.19999999E+01  0.10257548E+02  0.10257548E+02
  0.08500  0.19999999E+01  0.10247007E+02  0.10247007E+02
  0.09500  0.19999999E+01  0.10236433E+02  0.10236433E+02
  0.10500  0.19999999E+01  0.10225824E+02  0.10225824E+02
  0.11500  0.19999999E+01  0.10215183E+02  0.10215183E+02
  0.12500  0.19999999E+01  0.10204511E+02  0.10204511E+02
  0.13500  0.19999999E+01  0.10193808E+02  0.10193808E+02
  0.14500  0.19999999E+01  0.10183076E+02  0.10183076E+02
  0.15500  0.19999999E+01  0.10172316E+02  0.10172316E+02
  0.16500  0.19999999E+01  0.10161529E+02  0.10161529E+02
  0.17500  0.19999999E+01  0.10150716E+02  0.10150716E+02
  0.18500  0.19999999E+01  0.10139878E+02  0.10139878E+02
  0.19500  0.19999999E+01  0.10129016E+02  0.10129016E+02
  0.20500  0.19999999E+01  0.10118132E+02  0.10118132E+02
  0.21500  0.19999999E+01  0.10107226E+02  0.10107226E+02
  0.22500  0.20000000E+01  0.10096300E+02  0.10096300E+02
  0.23500  0.20000000E+01  0.10085355E+02  0.10085355E+02
  0.24500  0.20000000E+01  0.10074392E+02  0.10074392E+02
  0.25500  0.20000000E+01  0.10063412E+02  0.10063412E+02
  0.26500  0.20000000E+01  0.10052417E+02  0.10052417E+02
  0.27500  0.20000000E+01  0.10041408E+02  0.10041408E+02
  0.28500  0.20000000E+01  0.10030385E+02  0.10030385E+02
  0.29500  0.20000000E+01  0.10019351E+02  0.10019351E+02
  0.30500  0.20000000E+01  0.10008305E+02  0.10008305E+02
  0.31500  0.20000000E+01  0.99972499E+01  0.99972499E+01
  0.32500  0.20000000E+01  0.99861864E+01  0.99861864E+01
  0.33500  0.20000000E+01  0.99751156E+01  0.99751156E+01
  0.34500  0.20000000E+01  0.99640387E+01  0.99640387E+01
  0.35500  0.20000000E+01  0.99529570E+01  0.99529570E+01
  0.36500  0.20000000E+01  0.99418715E+01  0.99418715E+01
  0.37500  0.20000000E+01  0.99307835E+01  0.99307835E+01
  0.38500  0.20000000E+01  0.99196941E+01  0.99196941E+01
  0.39500  0.20000000E+01  0.99086045E+01  0.99086045E+01
  0.40500  0.20000000E+01  0.98975159E+01  0.98975159E+01
  0.41500  0.20000000E+01  0.98864293E+01  0.98864293E+01
  0.42500  0.20000000E+01  0.98753461E+01  0.98753461E+01
  0.43500  0.20000000E+01  0.98642672E+01  0.98642672E+01
  0.44500  0.20000000E+01  0.98531939E+01  0.98531939E+01
  0.45500  0.20000000E+01  0.98421273E+01  0.98421273E+01
  0.46500  0.20000000E+01  0.98310685E+01  0.98310685E+01
  0.47500  0.20000000E+01  0.98200186E+01  0.98200186E+01
  0.48500  0.20000000E+01  0.98089787E+01  0.98089787E+01
  0.49500  0.20000000E+01  0.97979500E+01  0.97979500E+01
 Transport for spin ->  1  , kxy-point ->   2, of Node     1
           kxy=(0.427 -.246 0.000 ),w= 0.0156
    E           T(E)            TotDOS         PDOS
 -0.49500  0.20000000E+01  0.81390370E+01  0.81390370E+01
 -0.48500  0.20000000E+01  0.81385998E+01  0.81385998E+01
 -0.47500  0.20000000E+01  0.81382211E+01  0.81382211E+01
 -0.46500  0.20000000E+01  0.81379005E+01  0.81379005E+01
 -0.45500  0.20000000E+01  0.81376373E+01  0.81376373E+01
 -0.44500  0.20000000E+01  0.81374312E+01  0.81374312E+01
 -0.43500  0.20000000E+01  0.81372815E+01  0.81372815E+01
 -0.42500  0.20000000E+01  0.81371879E+01  0.81371879E+01
 -0.41500  0.20000000E+01  0.81371499E+01  0.81371499E+01
 -0.40500  0.20000000E+01  0.81371670E+01  0.81371670E+01
 -0.39500  0.20000000E+01  0.81372387E+01  0.81372387E+01
 -0.38500  0.20000000E+01  0.81373647E+01  0.81373647E+01
 -0.37500  0.20000000E+01  0.81375446E+01  0.81375446E+01
 -0.36500  0.20000000E+01  0.81377779E+01  0.81377779E+01
 -0.35500  0.20000000E+01  0.81380643E+01  0.81380643E+01
 -0.34500  0.20000000E+01  0.81384034E+01  0.81384034E+01
 -0.33500  0.20000000E+01  0.81387948E+01  0.81387948E+01
 -0.32500  0.20000000E+01  0.81392382E+01  0.81392382E+01
 -0.31500  0.20000000E+01  0.81397332E+01  0.81397332E+01
 -0.30500  0.20000000E+01  0.81402795E+01  0.81402795E+01
 -0.29500  0.20000000E+01  0.81408768E+01  0.81408768E+01
 -0.28500  0.20000000E+01  0.81415248E+01  0.81415248E+01
 -0.27500  0.20000000E+01  0.81422231E+01  0.81422231E+01
 -0.26500  0.20000000E+01  0.81429715E+01  0.81429715E+01
 -0.25500  0.20000000E+01  0.81437696E+01  0.81437696E+01
 -0.24500  0.20000000E+01  0.81446173E+01  0.81446173E+01
 -0.23500  0.20000000E+01  0.81455141E+01  0.81455141E+01
 -0.22500  0.20000000E+01  0.81464599E+01  0.81464599E+01
 -0.21500  0.20000000E+01  0.81474545E+01  0.81474545E+01
 -0.20500  0.20000000E+01  0.81484975E+01  0.81484975E+01
 -0.19500  0.20000000E+01  0.81495887E+01  0.81495887E+01
 -0.18500  0.20000000E+01  0.81507278E+01  0.81507278E+01
 -0.17500  0.20000000E+01  0.81519148E+01  0.81519148E+01
 -0.16500  0.20000000E+01  0.81531492E+01  0.81531492E+01
 -0.15500  0.20000000E+01  0.81544310E+01  0.81544310E+01
 -0.14500  0.20000000E+01  0.81557599E+01  0.81557599E+01
 -0.13500  0.20000000E+01  0.81571357E+01  0.81571357E+01
 -0.12500  0.20000000E+01  0.81585582E+01  0.81585582E+01
 -0.11500  0.20000000E+01  0.81600272E+01  0.81600272E+01
 -0.10500  0.20000000E+01  0.81615425E+01  0.81615425E+01
 -0.09500  0.20000000E+01  0.81631040E+01  0.81631040E+01
 -0.08500  0.20000000E+01  0.81647114E+01  0.81647114E+01
 -0.07500  0.20000000E+01  0.81663647E+01  0.81663647E+01
 -0.06500  0.20000000E+01  0.81680636E+01  0.81680636E+01
 -0.05500  0.20000000E+01  0.81698080E+01  0.81698080E+01
 -0.04500  0.20000000E+01  0.81715977E+01  0.81715977E+01
 -0.03500  0.20000000E+01  0.81734325E+01  0.81734325E+01
 -0.02500  0.20000000E+01  0.81753124E+01  0.81753124E+01
 -0.01500  0.20000000E+01  0.81772372E+01  0.81772372E+01
 -0.00500  0.20000000E+01  0.81792067E+01  0.81792067E+01
  0.00500  0.20000000E+01  0.81812207E+01  0.81812207E+01
  0.01500  0.20000000E+01  0.81832793E+01  0.81832793E+01
  0.02500  0.20000000E+01  0.81853822E+01  0.81853822E+01
  0.03500  0.20000000E+01  0.81875293E+01  0.81875293E+01
  0.04500  0.20000000E+01  0.81897205E+01  0.81897205E+01
  0.05500  0.20000000E+01  0.81919557E+01  0.81919557E+01
  0.06500  0.20000000E+01  0.81942347E+01  0.81942347E+01
  0.07500  0.20000000E+01  0.81965575E+01  0.81965575E+01
  0.08500  0.20000000E+01  0.81989239E+01  0.81989239E+01
  0.09500  0.20000000E+01  0.82013339E+01  0.82013339E+01
  0.10500  0.20000000E+01  0.82037873E+01  0.82037873E+01
  0.11500  0.20000000E+01  0.82062840E+01  0.82062840E+01
  0.12500  0.20000000E+01  0.82088239E+01  0.82088239E+01
  0.13500  0.20000000E+01  0.82114070E+01  0.82114070E+01
  0.14500  0.20000000E+01  0.82140331E+01  0.82140331E+01
  0.15500  0.20000000E+01  0.82167022E+01  0.82167022E+01
  0.16500  0.20000000E+01  0.82194141E+01  0.82194141E+01
  0.17500  0.19999999E+01  0.82221688E+01  0.82221688E+01
  0.18500  0.19999999E+01  0.82249662E+01  0.82249662E+01
  0.19500  0.19999999E+01  0.82278062E+01  0.82278062E+01
  0.20500  0.19999999E+01  0.82306887E+01  0.82306887E+01
  0.21500  0.19999999E+01  0.82336137E+01  0.82336137E+01
  0.22500  0.19999999E+01  0.82365811E+01  0.82365811E+01
  0.23500  0.19999999E+01  0.82395907E+01  0.82395907E+01
  0.24500  0.19999999E+01  0.82426426E+01  0.82426426E+01
  0.25500  0.19999999E+01  0.82457366E+01  0.82457366E+01
  0.26500  0.19999999E+01  0.82488727E+01  0.82488727E+01
  0.27500  0.19999999E+01  0.82520508E+01  0.82520508E+01
  0.28500  0.19999999E+01  0.82552708E+01  0.82552708E+01
  0.29500  0.19999999E+01  0.82585328E+01  0.82585328E+01
  0.30500  0.19999999E+01  0.82618365E+01  0.82618365E+01
  0.31500  0.19999999E+01  0.82651819E+01  0.82651819E+01
  0.32500  0.19999999E+01  0.82685691E+01  0.82685691E+01
  0.33500  0.19999999E+01  0.82719978E+01  0.82719978E+01
  0.34500  0.19999999E+01  0.82754681E+01  0.82754681E+01
  0.35500  0.19999999E+01  0.82789798E+01  0.82789798E+01
  0.36500  0.19999999E+01  0.82825330E+01  0.82825330E+01
  0.37500  0.19999999E+01  0.82861276E+01  0.82861276E+01
  0.38500  0.19999999E+01  0.82897634E+01  0.82897634E+01
  0.39500  0.19999999E+01  0.82934405E+01  0.82934405E+01
  0.40500  0.19999999E+01  0.82971587E+01  0.82971587E+01
  0.41500  0.19999999E+01  0.83009181E+01  0.83009181E+01
  0.42500  0.19999999E+01  0.83047185E+01  0.83047185E+01
  0.43500  0.19999999E+01  0.83085600E+01  0.83085600E+01
  0.44500  0.19999999E+01  0.83124423E+01  0.83124423E+01
  0.45500  0.19999999E+01  0.83163655E+01  0.83163655E+01
  0.46500  0.19999999E+01  0.83203296E+01  0.83203296E+01
  0.47500  0.19999999E+01  0.83243344E+01  0.83243344E+01
  0.48500  0.19999999E+01  0.83283799E+01  0.83283799E+01
  0.49500  0.19999999E+01  0.83324660E+01  0.83324660E+01
 Transport for spin ->  1  , kxy-point ->   3, of Node     1
           kxy=(0.569 -.328 0.000 ),w= 0.0156
    E           T(E)            TotDOS         PDOS
 -0.49500  0.19999995E+01  0.51221549E+02  0.51221549E+02
 -0.48500  0.19999995E+01  0.38565172E+02  0.38565172E+02
 -0.47500  0.19999996E+01  0.32492471E+02  0.32492471E+02
 -0.46500  0.19999997E+01  0.28789213E+02  0.28789213E+02
 -0.45500  0.19999997E+01  0.26249432E+02  0.26249432E+02
 -0.44500  0.19999998E+01  0.24380639E+02  0.24380639E+02
 -0.43500  0.19999998E+01  0.22939505E+02  0.22939505E+02
 -0.42500  0.19999998E+01  0.21790307E+02  0.21790307E+02
 -0.41500  0.19999998E+01  0.20850650E+02  0.20850650E+02
 -0.40500  0.19999998E+01  0.20067279E+02  0.20067279E+02
 -0.39500  0.19999998E+01  0.19404067E+02  0.19404067E+02
 -0.38500  0.19999999E+01  0.18835539E+02  0.18835539E+02
 -0.37500  0.19999999E+01  0.18343163E+02  0.18343163E+02
 -0.36500  0.19999999E+01  0.17913097E+02  0.17913097E+02
 -0.35500  0.19999999E+01  0.17534774E+02  0.17534774E+02
 -0.34500  0.19999999E+01  0.17199970E+02  0.17199970E+02
 -0.33500  0.19999999E+01  0.16902185E+02  0.16902185E+02
 -0.32500  0.19999999E+01  0.16636200E+02  0.16636200E+02
 -0.31500  0.19999999E+01  0.16397778E+02  0.16397778E+02
 -0.30500  0.19999999E+01  0.16183439E+02  0.16183439E+02
 -0.29500  0.19999999E+01  0.15990294E+02  0.15990294E+02
 -0.28500  0.19999999E+01  0.15815926E+02  0.15815926E+02
 -0.27500  0.19999999E+01  0.15658296E+02  0.15658296E+02
 -0.26500  0.19999999E+01  0.15515669E+02  0.15515669E+02
 -0.25500  0.19999999E+01  0.15386563E+02  0.15386563E+02
 -0.24500  0.19999999E+01  0.15269702E+02  0.15269702E+02
 -0.23500  0.19999999E+01  0.15163981E+02  0.15163981E+02
 -0.22500  0.19999999E+01  0.15068441E+02  0.15068441E+02
 -0.21500  0.19999999E+01  0.14982242E+02  0.14982242E+02
 -0.20500  0.19999999E+01  0.14904648E+02  0.14904648E+02
 -0.19500  0.19999999E+01  0.14835014E+02  0.14835014E+02
 -0.18500  0.19999999E+01  0.14772766E+02  0.14772766E+02
 -0.17500  0.19999999E+01  0.14717397E+02  0.14717397E+02
 -0.16500  0.19999999E+01  0.14668459E+02  0.14668459E+02
 -0.15500  0.19999999E+01  0.14625549E+02  0.14625549E+02
 -0.14500  0.19999999E+01  0.14588310E+02  0.14588310E+02
 -0.13500  0.19999999E+01  0.14556423E+02  0.14556423E+02
 -0.12500  0.19999999E+01  0.14529600E+02  0.14529600E+02
 -0.11500  0.19999999E+01  0.14507585E+02  0.14507585E+02
 -0.10500  0.19999999E+01  0.14490148E+02  0.14490148E+02
 -0.09500  0.19999999E+01  0.14477081E+02  0.14477081E+02
 -0.08500  0.19999999E+01  0.14468199E+02  0.14468199E+02
 -0.07500  0.19999999E+01  0.14463334E+02  0.14463334E+02
 -0.06500  0.19999999E+01  0.14462337E+02  0.14462337E+02
 -0.05500  0.19999999E+01  0.14465074E+02  0.14465074E+02
 -0.04500  0.19999999E+01  0.14471423E+02  0.14471423E+02
 -0.03500  0.19999999E+01  0.14481277E+02  0.14481277E+02
 -0.02500  0.19999999E+01  0.14494541E+02  0.14494541E+02
 -0.01500  0.19999999E+01  0.14511129E+02  0.14511129E+02
 -0.00500  0.19999999E+01  0.14530966E+02  0.14530966E+02
  0.00500  0.19999999E+01  0.14553986E+02  0.14553986E+02
  0.01500  0.19999999E+01  0.14580133E+02  0.14580133E+02
  0.02500  0.19999999E+01  0.14609355E+02  0.14609355E+02
  0.03500  0.19999999E+01  0.14641611E+02  0.14641611E+02
  0.04500  0.19999999E+01  0.14676866E+02  0.14676866E+02
  0.05500  0.19999999E+01  0.14715091E+02  0.14715091E+02
  0.06500  0.19999999E+01  0.14756264E+02  0.14756264E+02
  0.07500  0.19999999E+01  0.14800369E+02  0.14800369E+02
  0.08500  0.19999999E+01  0.14847394E+02  0.14847394E+02
  0.09500  0.19999999E+01  0.14897334E+02  0.14897334E+02
  0.10500  0.19999999E+01  0.14950189E+02  0.14950189E+02
  0.11500  0.19999999E+01  0.15005964E+02  0.15005964E+02
  0.12500  0.19999999E+01  0.15064668E+02  0.15064668E+02
  0.13500  0.19999999E+01  0.15126317E+02  0.15126317E+02
  0.14500  0.19999999E+01  0.15190928E+02  0.15190928E+02
  0.15500  0.19999999E+01  0.15258527E+02  0.15258527E+02
  0.16500  0.19999999E+01  0.15329140E+02  0.15329140E+02
  0.17500  0.19999999E+01  0.15402802E+02  0.15402802E+02
  0.18500  0.19999999E+01  0.15479548E+02  0.15479548E+02
  0.19500  0.19999999E+01  0.15559421E+02  0.15559421E+02
  0.20500  0.19999999E+01  0.15642467E+02  0.15642467E+02
  0.21500  0.19999999E+01  0.15728737E+02  0.15728737E+02
  0.22500  0.19999999E+01  0.15818285E+02  0.15818285E+02
  0.23500  0.19999999E+01  0.15911172E+02  0.15911172E+02
  0.24500  0.19999999E+01  0.16007462E+02  0.16007462E+02
  0.25500  0.19999999E+01  0.16107223E+02  0.16107223E+02
  0.26500  0.19999999E+01  0.16210532E+02  0.16210532E+02
  0.27500  0.19999999E+01  0.16317465E+02  0.16317465E+02
  0.28500  0.19999999E+01  0.16428108E+02  0.16428108E+02
  0.29500  0.19999999E+01  0.16542550E+02  0.16542550E+02
  0.30500  0.19999999E+01  0.16660885E+02  0.16660885E+02
  0.31500  0.19999999E+01  0.16783214E+02  0.16783214E+02
  0.32500  0.19999999E+01  0.16909644E+02  0.16909644E+02
  0.33500  0.19999999E+01  0.17040285E+02  0.17040285E+02
  0.34500  0.19999999E+01  0.17175258E+02  0.17175258E+02
  0.35500  0.19999999E+01  0.17314686E+02  0.17314686E+02
  0.36500  0.19999999E+01  0.17458701E+02  0.17458701E+02
  0.37500  0.19999999E+01  0.17607442E+02  0.17607442E+02
  0.38500  0.19999999E+01  0.17761054E+02  0.17761054E+02
  0.39500  0.19999999E+01  0.17919691E+02  0.17919691E+02
  0.40500  0.19999999E+01  0.18083515E+02  0.18083515E+02
  0.41500  0.19999999E+01  0.18252694E+02  0.18252694E+02
  0.42500  0.19999999E+01  0.18427409E+02  0.18427409E+02
  0.43500  0.19999999E+01  0.18607846E+02  0.18607846E+02
  0.44500  0.19999999E+01  0.18794202E+02  0.18794202E+02
  0.45500  0.19999999E+01  0.18986685E+02  0.18986685E+02
  0.46500  0.19999999E+01  0.19185513E+02  0.19185513E+02
  0.47500  0.19999999E+01  0.19390914E+02  0.19390914E+02
  0.48500  0.19999999E+01  0.19603130E+02  0.19603130E+02
  0.49500  0.19999999E+01  0.19822412E+02  0.19822412E+02
 Transport for spin ->  1  , kxy-point ->   4, of Node     1
           kxy=(-.427 0.410 0.000 ),w= 0.0312
    E           T(E)            TotDOS         PDOS
 -0.49500  0.27464605E-09  0.57563746E-03  0.57563746E-03
 -0.48500  0.32728484E-09  0.63579516E-03  0.63579516E-03
 -0.47500  0.39491010E-09  0.70803229E-03  0.70803229E-03
 -0.46500  0.48325914E-09  0.79585357E-03  0.79585357E-03
 -0.45500  0.60091330E-09  0.90415001E-03  0.90415001E-03
 -0.44500  0.76108530E-09  0.10399181E-02  0.10399181E-02
 -0.43500  0.98481450E-09  0.12134578E-02  0.12134578E-02
 -0.42500  0.13069530E-08  0.14404538E-02  0.14404538E-02
 -0.41500  0.17880212E-08  0.17457768E-02  0.17457768E-02
 -0.40500  0.25393150E-08  0.21708550E-02  0.21708550E-02
 -0.39500  0.37806555E-08  0.27890709E-02  0.27890709E-02
 -0.38500  0.59878990E-08  0.37410900E-02  0.37410900E-02
 -0.37500  0.10325508E-07  0.53265853E-02  0.53265853E-02
 -0.36500  0.20183664E-07  0.82868881E-02  0.82868881E-02
 -0.35500  0.48485233E-07  0.14932010E-01  0.14932010E-01
 -0.34500  0.17593887E-06  0.36193193E-01  0.36193193E-01
 -0.33500  0.25149673E-05  0.23789831E+00  0.23789831E+00
 -0.32500  0.19999741E+01  0.20108826E+03  0.20108826E+03
 -0.31500  0.19999877E+01  0.12149862E+03  0.12149862E+03
 -0.30500  0.19999916E+01  0.97116908E+02  0.97116908E+02
 -0.29500  0.19999935E+01  0.84533722E+02  0.84533722E+02
 -0.28500  0.19999945E+01  0.76735460E+02  0.76735460E+02
 -0.27500  0.19999952E+01  0.71425011E+02  0.71425011E+02
 -0.26500  0.19999957E+01  0.67599402E+02  0.67599402E+02
 -0.25500  0.19999961E+01  0.64741841E+02  0.64741841E+02
 -0.24500  0.19999963E+01  0.62554908E+02  0.62554908E+02
 -0.23500  0.19999965E+01  0.60852938E+02  0.60852938E+02
 -0.22500  0.19999967E+01  0.59512289E+02  0.59512289E+02
 -0.21500  0.19999968E+01  0.58445933E+02  0.58445933E+02
 -0.20500  0.19999969E+01  0.57589451E+02  0.57589451E+02
 -0.19500  0.19999970E+01  0.56892814E+02  0.56892814E+02
 -0.18500  0.19999970E+01  0.56315352E+02  0.56315352E+02
 -0.17500  0.19999970E+01  0.55822554E+02  0.55822554E+02
 -0.16500  0.19999971E+01  0.55384046E+02  0.55384046E+02
 -0.15500  0.19999971E+01  0.54972338E+02  0.54972338E+02
 -0.14500  0.19999971E+01  0.54562156E+02  0.54562156E+02
 -0.13500  0.19999971E+01  0.54130221E+02  0.54130221E+02
 -0.12500  0.19999972E+01  0.53655398E+02  0.53655398E+02
 -0.11500  0.19999972E+01  0.53119128E+02  0.53119128E+02
 -0.10500  0.19999972E+01  0.52506041E+02  0.52506041E+02
 -0.09500  0.19999973E+01  0.51804643E+02  0.51804643E+02
 -0.08500  0.19999973E+01  0.51007913E+02  0.51007913E+02
 -0.07500  0.19999974E+01  0.50113694E+02  0.50113694E+02
 -0.06500  0.19999975E+01  0.49124740E+02  0.49124740E+02
 -0.05500  0.19999975E+01  0.48048382E+02  0.48048382E+02
 -0.04500  0.19999976E+01  0.46895815E+02  0.46895815E+02
 -0.03500  0.19999977E+01  0.45681109E+02  0.45681109E+02
 -0.02500  0.19999978E+01  0.44420053E+02  0.44420053E+02
 -0.01500  0.19999979E+01  0.43129020E+02  0.43129020E+02
 -0.00500  0.19999980E+01  0.41823944E+02  0.41823944E+02
  0.00500  0.19999981E+01  0.40519520E+02  0.40519520E+02
  0.01500  0.19999982E+01  0.39228666E+02  0.39228666E+02
  0.02500  0.19999983E+01  0.37962226E+02  0.37962226E+02
  0.03500  0.19999984E+01  0.36728890E+02  0.36728890E+02
  0.04500  0.19999985E+01  0.35535270E+02  0.35535270E+02
  0.05500  0.19999985E+01  0.34386092E+02  0.34386092E+02
  0.06500  0.19999986E+01  0.33284435E+02  0.33284435E+02
  0.07500  0.19999987E+01  0.32232003E+02  0.32232003E+02
  0.08500  0.19999988E+01  0.31229382E+02  0.31229382E+02
  0.09500  0.19999988E+01  0.30276292E+02  0.30276292E+02
  0.10500  0.19999989E+01  0.29371843E+02  0.29371843E+02
  0.11500  0.19999990E+01  0.28514161E+02  0.28514161E+02
  0.12500  0.19999990E+01  0.27702206E+02  0.27702206E+02
  0.13500  0.19999991E+01  0.26933546E+02  0.26933546E+02
  0.14500  0.19999991E+01  0.26206128E+02  0.26206128E+02
  0.15500  0.19999992E+01  0.25517786E+02  0.25517786E+02
  0.16500  0.19999992E+01  0.24866346E+02  0.24866346E+02
  0.17500  0.19999993E+01  0.24249669E+02  0.24249669E+02
  0.18500  0.19999993E+01  0.23665681E+02  0.23665681E+02
  0.19500  0.19999993E+01  0.23112387E+02  0.23112387E+02
  0.20500  0.19999994E+01  0.22587887E+02  0.22587887E+02
  0.21500  0.19999994E+01  0.22090380E+02  0.22090380E+02
  0.22500  0.19999994E+01  0.21618171E+02  0.21618171E+02
  0.23500  0.19999995E+01  0.21169663E+02  0.21169663E+02
  0.24500  0.19999995E+01  0.20743364E+02  0.20743364E+02
  0.25500  0.19999995E+01  0.20337878E+02  0.20337878E+02
  0.26500  0.19999995E+01  0.19951903E+02  0.19951903E+02
  0.27500  0.19999996E+01  0.19584224E+02  0.19584224E+02
  0.28500  0.19999996E+01  0.19233713E+02  0.19233713E+02
  0.29500  0.19999996E+01  0.18899317E+02  0.18899317E+02
  0.30500  0.19999996E+01  0.18580059E+02  0.18580059E+02
  0.31500  0.19999996E+01  0.18275028E+02  0.18275028E+02
  0.32500  0.19999997E+01  0.17983379E+02  0.17983379E+02
  0.33500  0.19999997E+01  0.17704325E+02  0.17704325E+02
  0.34500  0.19999997E+01  0.17437134E+02  0.17437134E+02
  0.35500  0.19999997E+01  0.17181123E+02  0.17181123E+02
  0.36500  0.19999997E+01  0.16935659E+02  0.16935659E+02
  0.37500  0.19999997E+01  0.16700150E+02  0.16700150E+02
  0.38500  0.19999997E+01  0.16474046E+02  0.16474046E+02
  0.39500  0.19999998E+01  0.16256831E+02  0.16256831E+02
  0.40500  0.19999998E+01  0.16048026E+02  0.16048026E+02
  0.41500  0.19999998E+01  0.15847184E+02  0.15847184E+02
  0.42500  0.19999998E+01  0.15653885E+02  0.15653885E+02
  0.43500  0.19999998E+01  0.15467738E+02  0.15467738E+02
  0.44500  0.19999998E+01  0.15288377E+02  0.15288377E+02
  0.45500  0.19999998E+01  0.15115459E+02  0.15115459E+02
  0.46500  0.19999998E+01  0.14948662E+02  0.14948662E+02
  0.47500  0.19999998E+01  0.14787684E+02  0.14787684E+02
  0.48500  0.19999998E+01  0.14632243E+02  0.14632243E+02
  0.49500  0.19999998E+01  0.14482073E+02  0.14482073E+02
 Transport for spin ->  1  , kxy-point ->   5, of Node     1
           kxy=(-.284 0.328 0.000 ),w= 0.0312
    E           T(E)            TotDOS         PDOS
 -0.49500  0.20000000E+01  0.10595624E+02  0.10595624E+02
 -0.48500  0.20000000E+01  0.10588397E+02  0.10588397E+02
 -0.47500  0.20000000E+01  0.10581232E+02  0.10581232E+02
 -0.46500  0.20000000E+01  0.10574127E+02  0.10574127E+02
 -0.45500  0.20000000E+01  0.10567083E+02  0.10567083E+02
 -0.44500  0.20000000E+01  0.10560099E+02  0.10560099E+02
 -0.43500  0.20000000E+01  0.10553173E+02  0.10553173E+02
 -0.42500  0.20000000E+01  0.10546305E+02  0.10546305E+02
 -0.41500  0.20000000E+01  0.10539494E+02  0.10539494E+02
 -0.40500  0.20000000E+01  0.10532741E+02  0.10532741E+02
 -0.39500  0.20000000E+01  0.10526043E+02  0.10526043E+02
 -0.38500  0.20000000E+01  0.10519400E+02  0.10519400E+02
 -0.37500  0.20000000E+01  0.10512812E+02  0.10512812E+02
 -0.36500  0.20000000E+01  0.10506278E+02  0.10506278E+02
 -0.35500  0.20000000E+01  0.10499797E+02  0.10499797E+02
 -0.34500  0.20000000E+01  0.10493369E+02  0.10493369E+02
 -0.33500  0.20000000E+01  0.10486993E+02  0.10486993E+02
 -0.32500  0.19999999E+01  0.10480668E+02  0.10480668E+02
 -0.31500  0.19999999E+01  0.10474393E+02  0.10474393E+02
 -0.30500  0.19999999E+01  0.10468169E+02  0.10468169E+02
 -0.29500  0.19999999E+01  0.10461993E+02  0.10461993E+02
 -0.28500  0.19999999E+01  0.10455867E+02  0.10455867E+02
 -0.27500  0.19999999E+01  0.10449788E+02  0.10449788E+02
 -0.26500  0.19999999E+01  0.10443757E+02  0.10443757E+02
 -0.25500  0.19999999E+01  0.10437772E+02  0.10437772E+02
 -0.24500  0.19999999E+01  0.10431833E+02  0.10431833E+02
 -0.23500  0.19999999E+01  0.10425940E+02  0.10425940E+02
 -0.22500  0.19999999E+01  0.10420092E+02  0.10420092E+02
 -0.21500  0.19999999E+01  0.10414287E+02  0.10414287E+02
 -0.20500  0.19999999E+01  0.10408527E+02  0.10408527E+02
 -0.19500  0.19999999E+01  0.10402809E+02  0.10402809E+02
 -0.18500  0.19999999E+01  0.10397133E+02  0.10397133E+02
 -0.17500  0.19999999E+01  0.10391499E+02  0.10391499E+02
 -0.16500  0.19999999E+01  0.10385906E+02  0.10385906E+02
 -0.15500  0.19999999E+01  0.10380353E+02  0.10380353E+02
 -0.14500  0.19999999E+01  0.10374841E+02  0.10374841E+02
 -0.13500  0.19999999E+01  0.10369367E+02  0.10369367E+02
 -0.12500  0.19999999E+01  0.10363932E+02  0.10363932E+02
 -0.11500  0.19999999E+01  0.10358535E+02  0.10358535E+02
 -0.10500  0.19999999E+01  0.10353175E+02  0.10353175E+02
 -0.09500  0.19999999E+01  0.10347852E+02  0.10347852E+02
 -0.08500  0.19999999E+01  0.10342565E+02  0.10342565E+02
 -0.07500  0.19999999E+01  0.10337313E+02  0.10337313E+02
 -0.06500  0.19999999E+01  0.10332097E+02  0.10332097E+02
 -0.05500  0.19999999E+01  0.10326915E+02  0.10326915E+02
 -0.04500  0.19999999E+01  0.10321766E+02  0.10321766E+02
 -0.03500  0.19999999E+01  0.10316651E+02  0.10316651E+02
 -0.02500  0.19999999E+01  0.10311568E+02  0.10311568E+02
 -0.01500  0.19999999E+01  0.10306518E+02  0.10306518E+02
 -0.00500  0.19999999E+01  0.10301499E+02  0.10301499E+02
  0.00500  0.19999999E+01  0.10296510E+02  0.10296510E+02
  0.01500  0.19999999E+01  0.10291552E+02  0.10291552E+02
  0.02500  0.19999999E+01  0.10286624E+02  0.10286624E+02
  0.03500  0.19999999E+01  0.10281725E+02  0.10281725E+02
  0.04500  0.19999999E+01  0.10276855E+02  0.10276855E+02
  0.05500  0.19999999E+01  0.10272012E+02  0.10272012E+02
  0.06500  0.19999999E+01  0.10267197E+02  0.10267197E+02
  0.07500  0.19999999E+01  0.10262409E+02  0.10262409E+02
  0.08500  0.19999999E+01  0.10257648E+02  0.10257648E+02
  0.09500  0.19999999E+01  0.10252912E+02  0.10252912E+02
  0.10500  0.19999999E+01  0.10248201E+02  0.10248201E+02
  0.11500  0.19999999E+01  0.10243516E+02  0.10243516E+02
  0.12500  0.19999999E+01  0.10238854E+02  0.10238854E+02
  0.13500  0.19999999E+01  0.10234217E+02  0.10234217E+02
  0.14500  0.19999999E+01  0.10229602E+02  0.10229602E+02
  0.15500  0.19999999E+01  0.10225011E+02  0.10225011E+02
  0.16500  0.19999999E+01  0.10220441E+02  0.10220441E+02
  0.17500  0.19999999E+01  0.10215893E+02  0.10215893E+02
  0.18500  0.19999999E+01  0.10211367E+02  0.10211367E+02
  0.19500  0.19999999E+01  0.10206861E+02  0.10206861E+02
  0.20500  0.19999999E+01  0.10202376E+02  0.10202376E+02
  0.21500  0.19999999E+01  0.10197910E+02  0.10197910E+02
  0.22500  0.19999999E+01  0.10193463E+02  0.10193463E+02
  0.23500  0.19999999E+01  0.10189035E+02  0.10189035E+02
  0.24500  0.19999999E+01  0.10184626E+02  0.10184626E+02
  0.25500  0.19999999E+01  0.10180234E+02  0.10180234E+02
  0.26500  0.19999999E+01  0.10175860E+02  0.10175860E+02
  0.27500  0.19999999E+01  0.10171503E+02  0.10171503E+02
  0.28500  0.19999999E+01  0.10167162E+02  0.10167162E+02
  0.29500  0.19999999E+01  0.10162838E+02  0.10162838E+02
  0.30500  0.19999999E+01  0.10158529E+02  0.10158529E+02
  0.31500  0.19999999E+01  0.10154236E+02  0.10154236E+02
  0.32500  0.19999999E+01  0.10149957E+02  0.10149957E+02
  0.33500  0.19999999E+01  0.10145693E+02  0.10145693E+02
  0.34500  0.19999999E+01  0.10141443E+02  0.10141443E+02
  0.35500  0.19999999E+01  0.10137206E+02  0.10137206E+02
  0.36500  0.19999999E+01  0.10132988E+02  0.10132988E+02
  0.37500  0.19999999E+01  0.10128771E+02  0.10128771E+02
  0.38500  0.19999999E+01  0.10124573E+02  0.10124573E+02
  0.39500  0.19999999E+01  0.10120388E+02  0.10120388E+02
  0.40500  0.19999999E+01  0.10116214E+02  0.10116214E+02
  0.41500  0.19999999E+01  0.10112052E+02  0.10112052E+02
  0.42500  0.19999999E+01  0.10107900E+02  0.10107900E+02
  0.43500  0.19999999E+01  0.10103760E+02  0.10103760E+02
  0.44500  0.19999999E+01  0.10099630E+02  0.10099630E+02
  0.45500  0.19999999E+01  0.10095510E+02  0.10095510E+02
  0.46500  0.19999999E+01  0.10091400E+02  0.10091400E+02
  0.47500  0.19999999E+01  0.10087299E+02  0.10087299E+02
  0.48500  0.19999999E+01  0.10083208E+02  0.10083208E+02
  0.49500  0.19999999E+01  0.10079126E+02  0.10079126E+02
 Transport for spin ->  1  , kxy-point ->   1, of Node     2
           kxy=(-.142 0.246 0.000 ),w= 0.0312
    E           T(E)            TotDOS         PDOS
 -0.49500  0.19999999E+01  0.11265239E+02  0.11265239E+02
 -0.48500  0.19999999E+01  0.11238078E+02  0.11238078E+02
 -0.47500  0.19999999E+01  0.11211066E+02  0.11211066E+02
 -0.46500  0.19999999E+01  0.11184205E+02  0.11184205E+02
 -0.45500  0.19999999E+01  0.11157493E+02  0.11157493E+02
 -0.44500  0.19999999E+01  0.11130931E+02  0.11130931E+02
 -0.43500  0.19999999E+01  0.11104520E+02  0.11104520E+02
 -0.42500  0.19999999E+01  0.11078258E+02  0.11078258E+02
 -0.41500  0.19999999E+01  0.11052147E+02  0.11052147E+02
 -0.40500  0.19999999E+01  0.11026186E+02  0.11026186E+02
 -0.39500  0.19999999E+01  0.11000376E+02  0.11000376E+02
 -0.38500  0.19999999E+01  0.10974715E+02  0.10974715E+02
 -0.37500  0.19999999E+01  0.10949205E+02  0.10949205E+02
 -0.36500  0.19999999E+01  0.10923845E+02  0.10923845E+02
 -0.35500  0.19999999E+01  0.10898635E+02  0.10898635E+02
 -0.34500  0.19999999E+01  0.10873574E+02  0.10873574E+02
 -0.33500  0.19999999E+01  0.10848663E+02  0.10848663E+02
 -0.32500  0.19999999E+01  0.10823902E+02  0.10823902E+02
 -0.31500  0.19999999E+01  0.10799290E+02  0.10799290E+02
 -0.30500  0.19999999E+01  0.10774827E+02  0.10774827E+02
 -0.29500  0.19999999E+01  0.10750513E+02  0.10750513E+02
 -0.28500  0.19999999E+01  0.10726347E+02  0.10726347E+02
 -0.27500  0.19999999E+01  0.10702329E+02  0.10702329E+02
 -0.26500  0.19999999E+01  0.10678460E+02  0.10678460E+02
 -0.25500  0.19999999E+01  0.10654738E+02  0.10654738E+02
 -0.24500  0.19999999E+01  0.10631163E+02  0.10631163E+02
 -0.23500  0.19999999E+01  0.10607736E+02  0.10607736E+02
 -0.22500  0.19999999E+01  0.10584454E+02  0.10584454E+02
 -0.21500  0.19999999E+01  0.10561319E+02  0.10561319E+02
 -0.20500  0.19999999E+01  0.10538330E+02  0.10538330E+02
 -0.19500  0.19999999E+01  0.10515486E+02  0.10515486E+02
 -0.18500  0.19999999E+01  0.10492787E+02  0.10492787E+02
 -0.17500  0.19999999E+01  0.10470232E+02  0.10470232E+02
 -0.16500  0.19999999E+01  0.10447822E+02  0.10447822E+02
 -0.15500  0.19999999E+01  0.10425555E+02  0.10425555E+02
 -0.14500  0.19999999E+01  0.10403430E+02  0.10403430E+02
 -0.13500  0.19999999E+01  0.10381449E+02  0.10381449E+02
 -0.12500  0.19999999E+01  0.10359609E+02  0.10359609E+02
 -0.11500  0.19999999E+01  0.10337911E+02  0.10337911E+02
 -0.10500  0.19999999E+01  0.10316353E+02  0.10316353E+02
 -0.09500  0.19999999E+01  0.10294936E+02  0.10294936E+02
 -0.08500  0.19999999E+01  0.10273659E+02  0.10273659E+02
 -0.07500  0.20000000E+01  0.10252521E+02  0.10252521E+02
 -0.06500  0.20000000E+01  0.10231521E+02  0.10231521E+02
 -0.05500  0.20000000E+01  0.10210660E+02  0.10210660E+02
 -0.04500  0.20000000E+01  0.10189935E+02  0.10189935E+02
 -0.03500  0.20000000E+01  0.10169348E+02  0.10169348E+02
 -0.02500  0.20000000E+01  0.10148897E+02  0.10148897E+02
 -0.01500  0.20000000E+01  0.10128581E+02  0.10128581E+02
 -0.00500  0.20000000E+01  0.10108401E+02  0.10108401E+02
  0.00500  0.20000000E+01  0.10088354E+02  0.10088354E+02
  0.01500  0.20000000E+01  0.10068441E+02  0.10068441E+02
  0.02500  0.20000000E+01  0.10048661E+02  0.10048661E+02
  0.03500  0.20000000E+01  0.10029014E+02  0.10029014E+02
  0.04500  0.20000000E+01  0.10009498E+02  0.10009498E+02
  0.05500  0.20000000E+01  0.99901127E+01  0.99901127E+01
  0.06500  0.20000000E+01  0.99708579E+01  0.99708579E+01
  0.07500  0.20000000E+01  0.99517327E+01  0.99517327E+01
  0.08500  0.20000000E+01  0.99327364E+01  0.99327364E+01
  0.09500  0.20000000E+01  0.99138683E+01  0.99138683E+01
  0.10500  0.20000000E+01  0.98951277E+01  0.98951277E+01
  0.11500  0.20000000E+01  0.98765138E+01  0.98765138E+01
  0.12500  0.20000000E+01  0.98580261E+01  0.98580261E+01
  0.13500  0.20000000E+01  0.98396638E+01  0.98396638E+01
  0.14500  0.20000000E+01  0.98214261E+01  0.98214261E+01
  0.15500  0.20000000E+01  0.98033124E+01  0.98033124E+01
  0.16500  0.20000000E+01  0.97853220E+01  0.97853220E+01
  0.17500  0.20000000E+01  0.97674541E+01  0.97674541E+01
  0.18500  0.20000000E+01  0.97497080E+01  0.97497080E+01
  0.19500  0.20000000E+01  0.97320830E+01  0.97320830E+01
  0.20500  0.20000000E+01  0.97145783E+01  0.97145783E+01
  0.21500  0.20000000E+01  0.96971934E+01  0.96971934E+01
  0.22500  0.20000000E+01  0.96799273E+01  0.96799273E+01
  0.23500  0.20000000E+01  0.96627794E+01  0.96627794E+01
  0.24500  0.20000000E+01  0.96457491E+01  0.96457491E+01
  0.25500  0.20000000E+01  0.96288354E+01  0.96288354E+01
  0.26500  0.20000000E+01  0.96120378E+01  0.96120378E+01
  0.27500  0.20000000E+01  0.95953555E+01  0.95953555E+01
  0.28500  0.20000000E+01  0.95787878E+01  0.95787878E+01
  0.29500  0.20000000E+01  0.95623339E+01  0.95623339E+01
  0.30500  0.20000000E+01  0.95459932E+01  0.95459932E+01
  0.31500  0.20000000E+01  0.95297648E+01  0.95297648E+01
  0.32500  0.20000000E+01  0.95136482E+01  0.95136482E+01
  0.33500  0.20000000E+01  0.94976425E+01  0.94976425E+01
  0.34500  0.20000000E+01  0.94817470E+01  0.94817470E+01
  0.35500  0.20000000E+01  0.94659610E+01  0.94659610E+01
  0.36500  0.20000000E+01  0.94502839E+01  0.94502839E+01
  0.37500  0.20000000E+01  0.94347148E+01  0.94347148E+01
  0.38500  0.20000000E+01  0.94192531E+01  0.94192531E+01
  0.39500  0.20000000E+01  0.94038981E+01  0.94038981E+01
  0.40500  0.20000000E+01  0.93886490E+01  0.93886490E+01
  0.41500  0.20000000E+01  0.93735052E+01  0.93735052E+01
  0.42500  0.20000000E+01  0.93584658E+01  0.93584658E+01
  0.43500  0.20000000E+01  0.93435304E+01  0.93435304E+01
  0.44500  0.20000000E+01  0.93286980E+01  0.93286980E+01
  0.45500  0.20000000E+01  0.93139681E+01  0.93139681E+01
  0.46500  0.20000000E+01  0.92993399E+01  0.92993399E+01
  0.47500  0.20000000E+01  0.92848127E+01  0.92848127E+01
  0.48500  0.20000000E+01  0.92703859E+01  0.92703859E+01
  0.49500  0.20000000E+01  0.92560588E+01  0.92560588E+01
 Transport for spin ->  1  , kxy-point ->   2, of Node     2
           kxy=(0.000 0.164 0.000 ),w= 0.0312
    E           T(E)            TotDOS         PDOS
 -0.49500  0.20000000E+01  0.93484118E+01  0.93484118E+01
 -0.48500  0.20000000E+01  0.93230274E+01  0.93230274E+01
 -0.47500  0.20000000E+01  0.92978788E+01  0.92978788E+01
 -0.46500  0.20000000E+01  0.92729648E+01  0.92729648E+01
 -0.45500  0.20000000E+01  0.92482848E+01  0.92482848E+01
 -0.44500  0.20000000E+01  0.92238376E+01  0.92238376E+01
 -0.43500  0.20000000E+01  0.91996225E+01  0.91996225E+01
 -0.42500  0.20000000E+01  0.91756385E+01  0.91756385E+01
 -0.41500  0.20000000E+01  0.91518847E+01  0.91518847E+01
 -0.40500  0.20000000E+01  0.91283601E+01  0.91283601E+01
 -0.39500  0.20000000E+01  0.91050638E+01  0.91050638E+01
[...]
  0.17500  0.19999993E+01  0.24249668E+02  0.24249668E+02
  0.18500  0.19999993E+01  0.23665680E+02  0.23665680E+02
  0.19500  0.19999993E+01  0.23112386E+02  0.23112386E+02
  0.20500  0.19999994E+01  0.22587886E+02  0.22587886E+02
  0.21500  0.19999994E+01  0.22090380E+02  0.22090380E+02
  0.22500  0.19999994E+01  0.21618170E+02  0.21618170E+02
  0.23500  0.19999995E+01  0.21169662E+02  0.21169662E+02
  0.24500  0.19999995E+01  0.20743363E+02  0.20743363E+02
  0.25500  0.19999995E+01  0.20337877E+02  0.20337877E+02
  0.26500  0.19999995E+01  0.19951902E+02  0.19951902E+02
  0.27500  0.19999996E+01  0.19584224E+02  0.19584224E+02
  0.28500  0.19999996E+01  0.19233712E+02  0.19233712E+02
  0.29500  0.19999996E+01  0.18899317E+02  0.18899317E+02
  0.30500  0.19999996E+01  0.18580058E+02  0.18580058E+02
  0.31500  0.19999996E+01  0.18275028E+02  0.18275028E+02
  0.32500  0.19999997E+01  0.17983379E+02  0.17983379E+02
  0.33500  0.19999997E+01  0.17704325E+02  0.17704325E+02
  0.34500  0.19999997E+01  0.17437133E+02  0.17437133E+02
  0.35500  0.19999997E+01  0.17181123E+02  0.17181123E+02
  0.36500  0.19999997E+01  0.16935659E+02  0.16935659E+02
  0.37500  0.19999997E+01  0.16700150E+02  0.16700150E+02
  0.38500  0.19999997E+01  0.16474045E+02  0.16474045E+02
  0.39500  0.19999998E+01  0.16256830E+02  0.16256830E+02
  0.40500  0.19999998E+01  0.16048026E+02  0.16048026E+02
  0.41500  0.19999998E+01  0.15847183E+02  0.15847183E+02
  0.42500  0.19999998E+01  0.15653885E+02  0.15653885E+02
  0.43500  0.19999998E+01  0.15467738E+02  0.15467738E+02
  0.44500  0.19999998E+01  0.15288377E+02  0.15288377E+02
  0.45500  0.19999998E+01  0.15115459E+02  0.15115459E+02
  0.46500  0.19999998E+01  0.14948662E+02  0.14948662E+02
  0.47500  0.19999998E+01  0.14787684E+02  0.14787684E+02
  0.48500  0.19999998E+01  0.14632243E+02  0.14632243E+02
  0.49500  0.19999998E+01  0.14482073E+02  0.14482073E+02
 Transport for spin ->  1  , kxy-point ->   3, of Node     7
           kxy=(0.284 0.493 0.000 ),w= 0.0156
    E           T(E)            TotDOS         PDOS
 -0.49500  0.51140208E-11  0.60463857E-03  0.60463857E-03
 -0.48500  0.68250350E-11  0.66764333E-03  0.66764333E-03
 -0.47500  0.94469502E-11  0.74282303E-03  0.74282303E-03
 -0.46500  0.13471757E-10  0.83353533E-03  0.83353533E-03
 -0.45500  0.19690160E-10  0.94438751E-03  0.94438751E-03
 -0.44500  0.29402959E-10  0.10818407E-02  0.10818407E-02
 -0.43500  0.44809684E-10  0.12551853E-02  0.12551853E-02
 -0.42500  0.69752224E-10  0.14781734E-02  0.14781734E-02
 -0.41500  0.11120605E-09  0.17718691E-02  0.17718691E-02
 -0.40500  0.18244213E-09  0.21698803E-02  0.21698803E-02
 -0.39500  0.31019882E-09  0.27285563E-02  0.27285563E-02
 -0.38500  0.55236178E-09  0.35483945E-02  0.35483945E-02
 -0.37500  0.10464022E-08  0.48233829E-02  0.48233829E-02
 -0.36500  0.21618723E-08  0.69695682E-02  0.69695682E-02
 -0.35500  0.50825548E-08  0.11021719E-01  0.11021719E-01
 -0.34500  0.14776929E-07  0.20207705E-01  0.20207705E-01
 -0.33500  0.65186114E-07  0.49582251E-01  0.49582251E-01
 -0.32500  0.10250636E-05  0.29942159E+00  0.29942159E+00
 -0.31500  0.19998308E+01  0.42940592E+03  0.42940592E+03
 -0.30500  0.19999402E+01  0.22312777E+03  0.22312777E+03
 -0.29500  0.19999640E+01  0.16240145E+03  0.16240145E+03
 -0.28500  0.19999747E+01  0.13036686E+03  0.13036686E+03
 -0.27500  0.19999808E+01  0.10990891E+03  0.10990891E+03
 -0.26500  0.19999847E+01  0.95490423E+02  0.95490423E+02
 -0.25500  0.19999874E+01  0.84690786E+02  0.84690786E+02
 -0.24500  0.19999894E+01  0.76258070E+02  0.76258070E+02
 -0.23500  0.19999910E+01  0.69470341E+02  0.69470341E+02
 -0.22500  0.19999922E+01  0.63878133E+02  0.63878133E+02
 -0.21500  0.19999931E+01  0.59185180E+02  0.59185180E+02
 -0.20500  0.19999939E+01  0.55187371E+02  0.55187371E+02
 -0.19500  0.19999946E+01  0.51739028E+02  0.51739028E+02
 -0.18500  0.19999951E+01  0.48733122E+02  0.48733122E+02
 -0.17500  0.19999956E+01  0.46089103E+02  0.46089103E+02
 -0.16500  0.19999960E+01  0.43745094E+02  0.43745094E+02
 -0.15500  0.19999964E+01  0.41652716E+02  0.41652716E+02
 -0.14500  0.19999967E+01  0.39773567E+02  0.39773567E+02
 -0.13500  0.19999969E+01  0.38076746E+02  0.38076746E+02
 -0.12500  0.19999972E+01  0.36537093E+02  0.36537093E+02
 -0.11500  0.19999974E+01  0.35133907E+02  0.35133907E+02
 -0.10500  0.19999976E+01  0.33849989E+02  0.33849989E+02
 -0.09500  0.19999977E+01  0.32670927E+02  0.32670927E+02
 -0.08500  0.19999979E+01  0.31584551E+02  0.31584551E+02
 -0.07500  0.19999980E+01  0.30580511E+02  0.30580511E+02
 -0.06500  0.19999981E+01  0.29649946E+02  0.29649946E+02
 -0.05500  0.19999982E+01  0.28785224E+02  0.28785224E+02
 -0.04500  0.19999983E+01  0.27979736E+02  0.27979736E+02
 -0.03500  0.19999984E+01  0.27227729E+02  0.27227729E+02
 -0.02500  0.19999985E+01  0.26524173E+02  0.26524173E+02
 -0.01500  0.19999986E+01  0.25864646E+02  0.25864646E+02
 -0.00500  0.19999987E+01  0.25245250E+02  0.25245250E+02
  0.00500  0.19999987E+01  0.24662532E+02  0.24662532E+02
  0.01500  0.19999988E+01  0.24113423E+02  0.24113423E+02
  0.02500  0.19999989E+01  0.23595186E+02  0.23595186E+02
  0.03500  0.19999989E+01  0.23105372E+02  0.23105372E+02
  0.04500  0.19999990E+01  0.22641785E+02  0.22641785E+02
  0.05500  0.19999990E+01  0.22202447E+02  0.22202447E+02
  0.06500  0.19999991E+01  0.21785576E+02  0.21785576E+02
  0.07500  0.19999991E+01  0.21389565E+02  0.21389565E+02
  0.08500  0.19999991E+01  0.21013044E+02  0.21013044E+02
  0.09500  0.19999992E+01  0.20654139E+02  0.20654139E+02
  0.10500  0.19999992E+01  0.20312458E+02  0.20312458E+02
  0.11500  0.19999992E+01  0.19986447E+02  0.19986447E+02
  0.12500  0.19999993E+01  0.19675143E+02  0.19675143E+02
  0.13500  0.19999993E+01  0.19377623E+02  0.19377623E+02
  0.14500  0.19999993E+01  0.19093038E+02  0.19093038E+02
  0.15500  0.19999994E+01  0.18820602E+02  0.18820602E+02
  0.16500  0.19999994E+01  0.18559592E+02  0.18559592E+02
  0.17500  0.19999994E+01  0.18309343E+02  0.18309343E+02
  0.18500  0.19999994E+01  0.18069236E+02  0.18069236E+02
  0.19500  0.19999995E+01  0.17838702E+02  0.17838702E+02
  0.20500  0.19999995E+01  0.17617209E+02  0.17617209E+02
  0.21500  0.19999995E+01  0.17404267E+02  0.17404267E+02
  0.22500  0.19999995E+01  0.17199419E+02  0.17199419E+02
  0.23500  0.19999995E+01  0.17002240E+02  0.17002240E+02
  0.24500  0.19999995E+01  0.16812332E+02  0.16812332E+02
  0.25500  0.19999996E+01  0.16629327E+02  0.16629327E+02
  0.26500  0.19999996E+01  0.16452878E+02  0.16452878E+02
  0.27500  0.19999996E+01  0.16282662E+02  0.16282662E+02
  0.28500  0.19999996E+01  0.16118377E+02  0.16118377E+02
  0.29500  0.19999996E+01  0.15959740E+02  0.15959740E+02
  0.30500  0.19999996E+01  0.15806484E+02  0.15806484E+02
  0.31500  0.19999996E+01  0.15658359E+02  0.15658359E+02
  0.32500  0.19999997E+01  0.15515131E+02  0.15515131E+02
  0.33500  0.19999997E+01  0.15376580E+02  0.15376580E+02
  0.34500  0.19999997E+01  0.15242496E+02  0.15242496E+02
  0.35500  0.19999997E+01  0.15112685E+02  0.15112685E+02
  0.36500  0.19999997E+01  0.14986961E+02  0.14986961E+02
  0.37500  0.19999997E+01  0.14865150E+02  0.14865150E+02
  0.38500  0.19999997E+01  0.14747088E+02  0.14747088E+02
  0.39500  0.19999997E+01  0.14632617E+02  0.14632617E+02
  0.40500  0.19999997E+01  0.14521591E+02  0.14521591E+02
  0.41500  0.19999997E+01  0.14413871E+02  0.14413871E+02
  0.42500  0.19999998E+01  0.14309323E+02  0.14309323E+02
  0.43500  0.19999998E+01  0.14207823E+02  0.14207823E+02
  0.44500  0.19999998E+01  0.14109252E+02  0.14109252E+02
  0.45500  0.19999998E+01  0.14013496E+02  0.14013496E+02
  0.46500  0.19999998E+01  0.13920449E+02  0.13920449E+02
  0.47500  0.19999998E+01  0.13830008E+02  0.13830008E+02
  0.48500  0.19999998E+01  0.13742077E+02  0.13742077E+02
  0.49500  0.19999998E+01  0.13656562E+02  0.13656562E+02
 Transport for spin ->  1  , kxy-point ->   4, of Node     7
           kxy=(0.427 0.410 0.000 ),w= 0.0156
    E           T(E)            TotDOS         PDOS
 -0.49500  0.27464605E-09  0.57563747E-03  0.57563747E-03
 -0.48500  0.32728484E-09  0.63579516E-03  0.63579516E-03
 -0.47500  0.39491010E-09  0.70803229E-03  0.70803229E-03
 -0.46500  0.48325914E-09  0.79585357E-03  0.79585357E-03
 -0.45500  0.60091330E-09  0.90415001E-03  0.90415001E-03
 -0.44500  0.76108531E-09  0.10399181E-02  0.10399181E-02
 -0.43500  0.98481450E-09  0.12134578E-02  0.12134578E-02
 -0.42500  0.13069530E-08  0.14404538E-02  0.14404538E-02
 -0.41500  0.17880212E-08  0.17457768E-02  0.17457768E-02
 -0.40500  0.25393150E-08  0.21708550E-02  0.21708550E-02
 -0.39500  0.37806555E-08  0.27890709E-02  0.27890709E-02
 -0.38500  0.59878991E-08  0.37410901E-02  0.37410901E-02
 -0.37500  0.10325508E-07  0.53265854E-02  0.53265854E-02
 -0.36500  0.20183664E-07  0.82868881E-02  0.82868881E-02
 -0.35500  0.48485234E-07  0.14932010E-01  0.14932010E-01
 -0.34500  0.17593888E-06  0.36193194E-01  0.36193194E-01
 -0.33500  0.25149675E-05  0.23789832E+00  0.23789832E+00
 -0.32500  0.19999741E+01  0.20108825E+03  0.20108825E+03
 -0.31500  0.19999877E+01  0.12149862E+03  0.12149862E+03
 -0.30500  0.19999916E+01  0.97116908E+02  0.97116908E+02
 -0.29500  0.19999935E+01  0.84533722E+02  0.84533722E+02
 -0.28500  0.19999945E+01  0.76735460E+02  0.76735460E+02
 -0.27500  0.19999952E+01  0.71425011E+02  0.71425011E+02
 -0.26500  0.19999957E+01  0.67599402E+02  0.67599402E+02
 -0.25500  0.19999961E+01  0.64741841E+02  0.64741841E+02
 -0.24500  0.19999963E+01  0.62554908E+02  0.62554908E+02
 -0.23500  0.19999965E+01  0.60852938E+02  0.60852938E+02
 -0.22500  0.19999967E+01  0.59512289E+02  0.59512289E+02
 -0.21500  0.19999968E+01  0.58445933E+02  0.58445933E+02
 -0.20500  0.19999969E+01  0.57589451E+02  0.57589451E+02
 -0.19500  0.19999970E+01  0.56892814E+02  0.56892814E+02
 -0.18500  0.19999970E+01  0.56315352E+02  0.56315352E+02
 -0.17500  0.19999970E+01  0.55822554E+02  0.55822554E+02
 -0.16500  0.19999971E+01  0.55384046E+02  0.55384046E+02
 -0.15500  0.19999971E+01  0.54972338E+02  0.54972338E+02
 -0.14500  0.19999971E+01  0.54562156E+02  0.54562156E+02
 -0.13500  0.19999971E+01  0.54130221E+02  0.54130221E+02
 -0.12500  0.19999972E+01  0.53655398E+02  0.53655398E+02
 -0.11500  0.19999972E+01  0.53119128E+02  0.53119128E+02
 -0.10500  0.19999972E+01  0.52506041E+02  0.52506041E+02
 -0.09500  0.19999973E+01  0.51804643E+02  0.51804643E+02
 -0.08500  0.19999973E+01  0.51007913E+02  0.51007913E+02
 -0.07500  0.19999974E+01  0.50113694E+02  0.50113694E+02
 -0.06500  0.19999975E+01  0.49124740E+02  0.49124740E+02
 -0.05500  0.19999975E+01  0.48048382E+02  0.48048382E+02
 -0.04500  0.19999976E+01  0.46895815E+02  0.46895815E+02
 -0.03500  0.19999977E+01  0.45681109E+02  0.45681109E+02
 -0.02500  0.19999978E+01  0.44420053E+02  0.44420053E+02
 -0.01500  0.19999979E+01  0.43129020E+02  0.43129020E+02
 -0.00500  0.19999980E+01  0.41823944E+02  0.41823944E+02
  0.00500  0.19999981E+01  0.40519520E+02  0.40519520E+02
  0.01500  0.19999982E+01  0.39228666E+02  0.39228666E+02
  0.02500  0.19999983E+01  0.37962226E+02  0.37962226E+02
  0.03500  0.19999984E+01  0.36728890E+02  0.36728890E+02
  0.04500  0.19999985E+01  0.35535270E+02  0.35535270E+02
  0.05500  0.19999985E+01  0.34386092E+02  0.34386092E+02
  0.06500  0.19999986E+01  0.33284435E+02  0.33284435E+02
  0.07500  0.19999987E+01  0.32232003E+02  0.32232003E+02
  0.08500  0.19999988E+01  0.31229382E+02  0.31229382E+02
  0.09500  0.19999988E+01  0.30276292E+02  0.30276292E+02
  0.10500  0.19999989E+01  0.29371843E+02  0.29371843E+02
  0.11500  0.19999990E+01  0.28514161E+02  0.28514161E+02
  0.12500  0.19999990E+01  0.27702206E+02  0.27702206E+02
  0.13500  0.19999991E+01  0.26933546E+02  0.26933546E+02
  0.14500  0.19999991E+01  0.26206128E+02  0.26206128E+02
  0.15500  0.19999992E+01  0.25517786E+02  0.25517786E+02
  0.16500  0.19999992E+01  0.24866346E+02  0.24866346E+02
  0.17500  0.19999993E+01  0.24249669E+02  0.24249669E+02
  0.18500  0.19999993E+01  0.23665681E+02  0.23665681E+02
  0.19500  0.19999993E+01  0.23112387E+02  0.23112387E+02
  0.20500  0.19999994E+01  0.22587887E+02  0.22587887E+02
  0.21500  0.19999994E+01  0.22090380E+02  0.22090380E+02
  0.22500  0.19999994E+01  0.21618171E+02  0.21618171E+02
  0.23500  0.19999995E+01  0.21169663E+02  0.21169663E+02
  0.24500  0.19999995E+01  0.20743364E+02  0.20743364E+02
  0.25500  0.19999995E+01  0.20337878E+02  0.20337878E+02
  0.26500  0.19999995E+01  0.19951903E+02  0.19951903E+02
  0.27500  0.19999996E+01  0.19584224E+02  0.19584224E+02
  0.28500  0.19999996E+01  0.19233713E+02  0.19233713E+02
  0.29500  0.19999996E+01  0.18899317E+02  0.18899317E+02
  0.30500  0.19999996E+01  0.18580059E+02  0.18580059E+02
  0.31500  0.19999996E+01  0.18275028E+02  0.18275028E+02
  0.32500  0.19999997E+01  0.17983379E+02  0.17983379E+02
  0.33500  0.19999997E+01  0.17704325E+02  0.17704325E+02
  0.34500  0.19999997E+01  0.17437134E+02  0.17437134E+02
  0.35500  0.19999997E+01  0.17181123E+02  0.17181123E+02
  0.36500  0.19999997E+01  0.16935659E+02  0.16935659E+02
  0.37500  0.19999997E+01  0.16700150E+02  0.16700150E+02
  0.38500  0.19999997E+01  0.16474046E+02  0.16474046E+02
  0.39500  0.19999998E+01  0.16256831E+02  0.16256831E+02
  0.40500  0.19999998E+01  0.16048026E+02  0.16048026E+02
  0.41500  0.19999998E+01  0.15847184E+02  0.15847184E+02
  0.42500  0.19999998E+01  0.15653885E+02  0.15653885E+02
  0.43500  0.19999998E+01  0.15467738E+02  0.15467738E+02
  0.44500  0.19999998E+01  0.15288377E+02  0.15288377E+02
  0.45500  0.19999998E+01  0.15115459E+02  0.15115459E+02
  0.46500  0.19999998E+01  0.14948662E+02  0.14948662E+02
  0.47500  0.19999998E+01  0.14787684E+02  0.14787684E+02
  0.48500  0.19999998E+01  0.14632243E+02  0.14632243E+02
  0.49500  0.19999998E+01  0.14482073E+02  0.14482073E+02
 Transport for spin ->  1  , kxy-point ->   5, of Node     7
           kxy=(0.569 0.328 0.000 ),w= 0.0156
    E           T(E)            TotDOS         PDOS
 -0.49500  0.19999995E+01  0.51221549E+02  0.51221549E+02
 -0.48500  0.19999995E+01  0.38565172E+02  0.38565172E+02
 -0.47500  0.19999996E+01  0.32492471E+02  0.32492471E+02
 -0.46500  0.19999997E+01  0.28789213E+02  0.28789213E+02
 -0.45500  0.19999997E+01  0.26249432E+02  0.26249432E+02
 -0.44500  0.19999998E+01  0.24380639E+02  0.24380639E+02
 -0.43500  0.19999998E+01  0.22939505E+02  0.22939505E+02
 -0.42500  0.19999998E+01  0.21790307E+02  0.21790307E+02
 -0.41500  0.19999998E+01  0.20850650E+02  0.20850650E+02
 -0.40500  0.19999998E+01  0.20067279E+02  0.20067279E+02
 -0.39500  0.19999998E+01  0.19404067E+02  0.19404067E+02
 -0.38500  0.19999999E+01  0.18835539E+02  0.18835539E+02
 -0.37500  0.19999999E+01  0.18343163E+02  0.18343163E+02
 -0.36500  0.19999999E+01  0.17913097E+02  0.17913097E+02
 -0.35500  0.19999999E+01  0.17534774E+02  0.17534774E+02
 -0.34500  0.19999999E+01  0.17199970E+02  0.17199970E+02
 -0.33500  0.19999999E+01  0.16902185E+02  0.16902185E+02
 -0.32500  0.19999999E+01  0.16636200E+02  0.16636200E+02
 -0.31500  0.19999999E+01  0.16397778E+02  0.16397778E+02
 -0.30500  0.19999999E+01  0.16183439E+02  0.16183439E+02
 -0.29500  0.19999999E+01  0.15990294E+02  0.15990294E+02
 -0.28500  0.19999999E+01  0.15815926E+02  0.15815926E+02
 -0.27500  0.19999999E+01  0.15658296E+02  0.15658296E+02
 -0.26500  0.19999999E+01  0.15515669E+02  0.15515669E+02
 -0.25500  0.19999999E+01  0.15386563E+02  0.15386563E+02
 -0.24500  0.19999999E+01  0.15269702E+02  0.15269702E+02
 -0.23500  0.19999999E+01  0.15163981E+02  0.15163981E+02
 -0.22500  0.19999999E+01  0.15068441E+02  0.15068441E+02
 -0.21500  0.19999999E+01  0.14982242E+02  0.14982242E+02
 -0.20500  0.19999999E+01  0.14904648E+02  0.14904648E+02
 -0.19500  0.19999999E+01  0.14835014E+02  0.14835014E+02
 -0.18500  0.19999999E+01  0.14772766E+02  0.14772766E+02
 -0.17500  0.19999999E+01  0.14717397E+02  0.14717397E+02
 -0.16500  0.19999999E+01  0.14668459E+02  0.14668459E+02
 -0.15500  0.19999999E+01  0.14625549E+02  0.14625549E+02
 -0.14500  0.19999999E+01  0.14588310E+02  0.14588310E+02
 -0.13500  0.19999999E+01  0.14556423E+02  0.14556423E+02
 -0.12500  0.19999999E+01  0.14529600E+02  0.14529600E+02
 -0.11500  0.19999999E+01  0.14507585E+02  0.14507585E+02
 -0.10500  0.19999999E+01  0.14490148E+02  0.14490148E+02
 -0.09500  0.19999999E+01  0.14477081E+02  0.14477081E+02
 -0.08500  0.19999999E+01  0.14468199E+02  0.14468199E+02
 -0.07500  0.19999999E+01  0.14463334E+02  0.14463334E+02
 -0.06500  0.19999999E+01  0.14462337E+02  0.14462337E+02
 -0.05500  0.19999999E+01  0.14465074E+02  0.14465074E+02
 -0.04500  0.19999999E+01  0.14471423E+02  0.14471423E+02
 -0.03500  0.19999999E+01  0.14481277E+02  0.14481277E+02
 -0.02500  0.19999999E+01  0.14494541E+02  0.14494541E+02
 -0.01500  0.19999999E+01  0.14511129E+02  0.14511129E+02
 -0.00500  0.19999999E+01  0.14530966E+02  0.14530966E+02
  0.00500  0.19999999E+01  0.14553986E+02  0.14553986E+02
  0.01500  0.19999999E+01  0.14580133E+02  0.14580133E+02
  0.02500  0.19999999E+01  0.14609355E+02  0.14609355E+02
  0.03500  0.19999999E+01  0.14641611E+02  0.14641611E+02
  0.04500  0.19999999E+01  0.14676866E+02  0.14676866E+02
  0.05500  0.19999999E+01  0.14715091E+02  0.14715091E+02
  0.06500  0.19999999E+01  0.14756264E+02  0.14756264E+02
  0.07500  0.19999999E+01  0.14800369E+02  0.14800369E+02
  0.08500  0.19999999E+01  0.14847394E+02  0.14847394E+02
  0.09500  0.19999999E+01  0.14897334E+02  0.14897334E+02
  0.10500  0.19999999E+01  0.14950189E+02  0.14950189E+02
  0.11500  0.19999999E+01  0.15005964E+02  0.15005964E+02
  0.12500  0.19999999E+01  0.15064668E+02  0.15064668E+02
  0.13500  0.19999999E+01  0.15126317E+02  0.15126317E+02
  0.14500  0.19999999E+01  0.15190928E+02  0.15190928E+02
  0.15500  0.19999999E+01  0.15258527E+02  0.15258527E+02
  0.16500  0.19999999E+01  0.15329140E+02  0.15329140E+02
  0.17500  0.19999999E+01  0.15402802E+02  0.15402802E+02
  0.18500  0.19999999E+01  0.15479548E+02  0.15479548E+02
  0.19500  0.19999999E+01  0.15559421E+02  0.15559421E+02
  0.20500  0.19999999E+01  0.15642467E+02  0.15642467E+02
  0.21500  0.19999999E+01  0.15728737E+02  0.15728737E+02
  0.22500  0.19999999E+01  0.15818285E+02  0.15818285E+02
  0.23500  0.19999999E+01  0.15911172E+02  0.15911172E+02
  0.24500  0.19999999E+01  0.16007462E+02  0.16007462E+02
  0.25500  0.19999999E+01  0.16107223E+02  0.16107223E+02
  0.26500  0.19999999E+01  0.16210532E+02  0.16210532E+02
  0.27500  0.19999999E+01  0.16317465E+02  0.16317465E+02
  0.28500  0.19999999E+01  0.16428108E+02  0.16428108E+02
  0.29500  0.19999999E+01  0.16542550E+02  0.16542550E+02
  0.30500  0.19999999E+01  0.16660885E+02  0.16660885E+02
  0.31500  0.19999999E+01  0.16783214E+02  0.16783214E+02
  0.32500  0.19999999E+01  0.16909644E+02  0.16909644E+02
  0.33500  0.19999999E+01  0.17040285E+02  0.17040285E+02
  0.34500  0.19999999E+01  0.17175258E+02  0.17175258E+02
  0.35500  0.19999999E+01  0.17314686E+02  0.17314686E+02
  0.36500  0.19999999E+01  0.17458701E+02  0.17458701E+02
  0.37500  0.19999999E+01  0.17607442E+02  0.17607442E+02
  0.38500  0.19999999E+01  0.17761054E+02  0.17761054E+02
  0.39500  0.19999999E+01  0.17919691E+02  0.17919691E+02
  0.40500  0.19999999E+01  0.18083515E+02  0.18083515E+02
  0.41500  0.19999999E+01  0.18252694E+02  0.18252694E+02
  0.42500  0.19999999E+01  0.18427409E+02  0.18427409E+02
  0.43500  0.19999999E+01  0.18607846E+02  0.18607846E+02
  0.44500  0.19999999E+01  0.18794202E+02  0.18794202E+02
  0.45500  0.19999999E+01  0.18986685E+02  0.18986685E+02
  0.46500  0.19999999E+01  0.19185513E+02  0.19185513E+02
  0.47500  0.19999999E+01  0.19390914E+02  0.19390914E+02
  0.48500  0.19999999E+01  0.19603130E+02  0.19603130E+02
  0.49500  0.19999999E+01  0.19822412E+02  0.19822412E+02
 ==============================================================

 Results:

  Voltage, Current(A) =   0.00000000E+00  0.00000000E+00

 ==============================================================
