Siesta Version  : trunk-755
Architecture    : unknown
Compiler version: GNU Fortran (Ubuntu 5.4.0-6ubuntu1~16.04.10) 5.4.0 20160609
Compiler flags  : mpif90 -O2 -fPIC -ftree-vectorize
PP flags        : -DFC_HAVE_ABORT -DMPI -DFC_HAVE_FLUSH -DFC_HAVE_ABORT -DGRID_DP -DPHI_GRID_SP -DSIESTA__HAS__SPGLIB  -DSIESTA__DIAG_2STAGE
Libraries       : libsiestaLAPACK.a libsiestaBLAS.a libfdict.a  /usr/lib/libscalapack-openmpi.so   libsiestaLAPACK.a libsiestaBLAS.a libfdict.a /usr/lib/libblacsF77init-openmpi.so /usr/lib/libblacsCinit-openmpi.so /usr/lib/libblacs-openmpi.so
Directory       : /home/ICN2/aakhtar/Projects/spglib-inclusion/Obj-spg/Tests/Space_Group/06-cubic-cF.34-spg228/work
PARALLEL version

* Running on 8 nodes in parallel
>> Start of run:   2-APR-2019  17:13:56

                           ***********************       
                           *  WELCOME TO SIESTA  *       
                           ***********************       

reinit: Reading from ../06-cubic-cF.34-spg228.fdf

reinit: -----------------------------------------------------------------------
reinit: System Name: 
reinit: -----------------------------------------------------------------------
reinit: System Label: 06-cubic-cF.34-spg228.inp
reinit: -----------------------------------------------------------------------

initatom: Reading input for the pseudopotentials and atomic orbitals ----------
Species number:   1 Atomic number:    1 Label: H

Ground state valence configuration:   1s01
Reading pseudopotential information in formatted form from H.psf

Valence configuration for pseudopotential generation:
1s( 1.00) rc: 1.25
2p( 0.00) rc: 1.25
3d( 0.00) rc: 1.25
4f( 0.00) rc: 1.25
For H, standard SIESTA heuristics set lmxkb to 2
 (one more than the basis l, including polarization orbitals).
Use PS.lmax or PS.KBprojectors blocks to override.

<basis_specs>
===============================================================================
H                    Z=   1    Mass=  1.0100        Charge= 0.17977+309
Lmxo=0 Lmxkb= 2    BasisType=split      Semic=F
L=0  Nsemic=0  Cnfigmx=1
          n=1  nzeta=2  polorb=1
            splnorm:   0.15000    
               vcte:    0.0000    
               rinn:    0.0000    
               qcoe:    0.0000    
               qyuk:    0.0000    
               qwid:   0.10000E-01
                rcs:    0.0000      0.0000    
            lambdas:    1.0000      1.0000    
-------------------------------------------------------------------------------
L=0  Nkbl=1  erefs: 0.17977+309
L=1  Nkbl=1  erefs: 0.17977+309
L=2  Nkbl=1  erefs: 0.17977+309
===============================================================================
</basis_specs>

atom: Called for H                     (Z =   1)

read_vps: Pseudopotential generation method:
read_vps: ATM3      Troullier-Martins                       
Total valence charge:    1.00000

xc_check: Exchange-correlation functional:
xc_check: Ceperley-Alder
V l=0 = -2*Zval/r beyond r=  1.2343
V l=1 = -2*Zval/r beyond r=  1.2189
V l=2 = -2*Zval/r beyond r=  1.2189
All V_l potentials equal beyond r=  1.2343
This should be close to max(r_c) in ps generation
All pots = -2*Zval/r beyond r=  1.2343

VLOCAL1: 99.0% of the norm of Vloc inside     28.493 Ry
VLOCAL1: 99.9% of the norm of Vloc inside     64.935 Ry
atom: Maximum radius for 4*pi*r*r*local-pseudopot. charge    1.45251
atom: Maximum radius for r*vlocal+2*Zval:    1.21892

KBgen: Kleinman-Bylander projectors: 
GHOST: No ghost state for L =  0
   l= 0   rc=  1.364359   el= -0.467325   Ekb= -2.005361   kbcos= -0.336422
GHOST: No ghost state for L =  1
   l= 1   rc=  1.434438   el=  0.001430   Ekb= -0.501708   kbcos= -0.021697
GHOST: No ghost state for L =  2
   l= 2   rc=  1.470814   el=  0.002365   Ekb= -0.190555   kbcos= -0.002281

KBgen: Total number of  Kleinman-Bylander projectors:    9
atom: -------------------------------------------------------------------------

atom: SANKEY-TYPE ORBITALS:
atom: Selected multiple-zeta basis: split     

SPLIT: Orbitals with angular momentum L= 0

SPLIT: Basis orbitals for state 1s

SPLIT: PAO cut-off radius determined from an
SPLIT: energy shift=  0.020000 Ry

   izeta = 1
                 lambda =    1.000000
                     rc =    4.828263
                 energy =   -0.449375
                kinetic =    0.929372
    potential(screened) =   -1.378747
       potential(ionic) =   -1.915047

   izeta = 2
                 rmatch =    3.854947
              splitnorm =    0.150000
                 energy =   -0.336153
                kinetic =    1.505294
    potential(screened) =   -1.841447
       potential(ionic) =   -2.413582

POLgen: Perturbative polarization orbital with L=  1

POLgen: Polarization orbital for state 1s

   izeta = 1
                     rc =    4.828263
                 energy =    0.706972
                kinetic =    1.396397
    potential(screened) =   -0.689424
       potential(ionic) =   -1.169792
atom: Total number of Sankey-type orbitals:  5

atm_pop: Valence configuration (for local Pseudopot. screening):
 1s( 1.00)                                                            
Vna: chval, zval:    1.00000   1.00000

Vna:  Cut-off radius for the neutral-atom potential:   4.828263

atom: _________________________________________________________________________

prinput: Basis input ----------------------------------------------------------

PAO.BasisType split     

%block ChemicalSpeciesLabel
    1    1 H                       # Species index, atomic number, species label
%endblock ChemicalSpeciesLabel

%block PAO.Basis                 # Define Basis set
H                     1                    # Species label, number of l-shells
 n=1   0   2 P   1                   # n, l, Nzeta, Polarization, NzetaPol
   4.828      3.855   
   1.000      1.000   
%endblock PAO.Basis

prinput: ----------------------------------------------------------------------

coor:   Atomic-coordinates input format  =     Fractional

siesta: Atomic coordinates (Bohr) and species
siesta:      2.57003   2.26767   1.66296  1        1
siesta:      1.66296   2.57003   2.26767  1        2
siesta:      4.98888   5.29124   1.66296  1        3
siesta:      4.98888   2.26767   5.89595  1        4
siesta:      6.04713   6.34948   2.11649  1        5
siesta:      8.76833   9.07069   9.67540  1        6
siesta:      2.26767   1.66296   2.57003  1        7
siesta:      1.66296   4.98888   5.29124  1        8
siesta:      5.89595   4.98888   2.26767  1        9
siesta:      2.11649   6.04713   6.34948  1       10
siesta:      9.67540   8.76833   9.07069  1       11
siesta:      2.57003   5.29124   5.89595  1       12
siesta:      1.51178   1.20943   2.11649  1       13
siesta:      6.34948   6.04713   9.67540  1       14
siesta:      5.89595   2.57003   5.29124  1       15
siesta:      1.51178   6.34948   5.44241  1       16
siesta:      6.34948   9.07069   5.44241  1       17
siesta:      6.34948   5.44241   1.51178  1       18
siesta:      6.04713   1.20943   5.44241  1       19
siesta:      5.29124   4.98888   9.22187  1       20
siesta:      5.29124   1.66296   4.98888  1       21
siesta:      2.26767   5.89595   4.98888  1       22
siesta:      6.34948   2.11649   6.04713  1       23
siesta:      9.07069   9.67540   8.76833  1       24
siesta:      2.11649   1.51178   1.20943  1       25
siesta:      9.67540   6.34948   6.04713  1       26
siesta:      5.29124   5.89595   2.57003  1       27
siesta:      5.44241   1.51178   6.34948  1       28
siesta:      5.44241   6.34948   9.07069  1       29
siesta:      5.44241   6.04713   1.20943  1       30
siesta:      9.22187   5.29124   4.98888  1       31
siesta:      8.76833   6.04713   5.44241  1       32
siesta:      1.20943   2.11649   1.51178  1       33
siesta:      9.82658  10.12894   9.22187  1       34
siesta:      5.44241   8.76833   6.04713  1       35
siesta:      1.20943   5.44241   6.04713  1       36
siesta:      9.82658   4.98888   5.89595  1       37
siesta:      4.98888   5.89595   9.82658  1       38
siesta:      5.29124  10.12894   5.89595  1       39
siesta:      6.04713   9.67540   6.34948  1       40
siesta:      9.07069   5.44241   6.34948  1       41
siesta:      4.98888   9.22187   5.29124  1       42
siesta:      9.22187   9.82658  10.12894  1       43
siesta:      6.04713   5.44241   8.76833  1       44
siesta:      5.89595   9.82658   4.98888  1       45
siesta:      5.89595   5.29124  10.12894  1       46
siesta:     10.12894   9.22187   9.82658  1       47
siesta:     10.12894   5.89595   5.29124  1       48

siesta: System type = bulk      

initatomlists: Number of atoms, orbitals, and projectors:     48   240   432

----------------------------------------------------------------------
 Output of crystal symmetries 

 Int Sp Group number =    228
 Int Sp Group symbol = Fd-3c      
 Bravais lattice is    225  Fm-3m      
 Hall number =    527

 number of symops =     48
 symops and translations in reduced coordinates = 
     1     0     0
     0     1     0
     0     0     1
    0.0000000000E+00      0.0000000000E+00      0.0000000000E+00

     0     0     1
    -1     0     1
     0    -1     1
    0.2500000000E+00      0.2500000000E+00      0.2500000000E+00

     0    -1     1
     0    -1     0
     1    -1     0
    0.1000000000E+01      0.2220446049E-15      0.4440892099E-15

     1    -1     0
     1     0    -1
     1     0     0
    0.2500000000E+00      0.2500000000E+00      0.2500000000E+00

    -1     0     0
    -1     0     1
    -1     1     0
    0.2220446049E-15      0.1000000000E+01      0.8881784197E-15

    -1     1     0
     0     1     0
     0     1    -1
    0.2500000000E+00      0.2500000000E+00      0.2500000000E+00

     0     1    -1
     1     0    -1
     0     0    -1
    0.1000000000E+01      0.2220446049E-15      0.8881784197E-15

     0     0    -1
     0    -1     0
    -1     0     0
    0.2500000000E+00      0.2500000000E+00      0.2500000000E+00

    -1     1     0
    -1     0     0
    -1     0     1
    0.2220446049E-15      0.0000000000E+00      0.0000000000E+00

    -1     0     1
     0    -1     1
     0     0     1
    0.2500000000E+00      0.2500000000E+00      0.2500000000E+00

     0     0     1
     1     0     0
     0     1     0
    0.1000000000E+01      0.1000000000E+01      0.4440892099E-15

     0     1     0
     0     1    -1
    -1     1     0
    0.2500000000E+00      0.2500000000E+00      0.2500000000E+00

     1    -1     0
     0    -1     1
     0    -1     0
    0.1000000000E+01      0.4440892099E-15      0.8881784197E-15

     0    -1     0
    -1     0     0
     0     0    -1
    0.2500000000E+00      0.2500000000E+00      0.2500000000E+00

     0     0    -1
     0     1    -1
     1     0    -1
    0.1000000000E+01      0.0000000000E+00      0.4440892099E-15

     1     0    -1
     1     0     0
     1    -1     0
    0.2500000000E+00      0.2500000000E+00      0.2500000000E+00

     0    -1     0
     1    -1     0
     0    -1     1
    0.0000000000E+00      0.2220446049E-15      0.0000000000E+00

     0    -1     1
     0     0     1
    -1     0     1
    0.2500000000E+00      0.2500000000E+00      0.2500000000E+00

    -1     0     1
    -1     1     0
    -1     0     0
    0.4440892099E-15      0.1000000000E+01      0.4440892099E-15

    -1     0     0
     0     0    -1
     0    -1     0
    0.2500000000E+00      0.2500000000E+00      0.2500000000E+00

     0     1     0
     0     0     1
     1     0     0
    0.1000000000E+01      0.0000000000E+00      0.4440892099E-15

     1     0     0
     1    -1     0
     1     0    -1
    0.2500000000E+00      0.2500000000E+00      0.2500000000E+00

     1     0    -1
     0     0    -1
     0     1    -1
    0.3330669074E-15      0.1000000000E+01      0.4440892099E-15

     0     1    -1
    -1     1     0
     0     1     0
    0.2500000000E+00      0.2500000000E+00      0.2500000000E+00

    -1     0     0
     0    -1     0
     0     0    -1
    0.7500000000E+00      0.7500000000E+00      0.7500000000E+00

     0     0    -1
     1     0    -1
     0     1    -1
    0.5000000000E+00      0.5000000000E+00      0.5000000000E+00

     0     1    -1
     0     1     0
    -1     1     0
    0.7500000000E+00      0.7500000000E+00      0.7500000000E+00

    -1     1     0
    -1     0     1
    -1     0     0
    0.5000000000E+00      0.5000000000E+00      0.5000000000E+00

     1     0     0
     1     0    -1
     1    -1     0
    0.7500000000E+00      0.7500000000E+00      0.7500000000E+00

     1    -1     0
     0    -1     0
     0    -1     1
    0.5000000000E+00      0.5000000000E+00      0.5000000000E+00

     0    -1     1
    -1     0     1
     0     0     1
    0.7500000000E+00      0.7500000000E+00      0.7500000000E+00

     0     0     1
     0     1     0
     1     0     0
    0.5000000000E+00      0.5000000000E+00      0.5000000000E+00

     1    -1     0
     1     0     0
     1     0    -1
    0.7500000000E+00      0.7500000000E+00      0.7500000000E+00

     1     0    -1
     0     1    -1
     0     0    -1
    0.5000000000E+00      0.5000000000E+00      0.5000000000E+00

     0     0    -1
    -1     0     0
     0    -1     0
    0.7500000000E+00      0.7500000000E+00      0.7500000000E+00

     0    -1     0
     0    -1     1
     1    -1     0
    0.5000000000E+00      0.5000000000E+00      0.5000000000E+00

    -1     1     0
     0     1    -1
     0     1     0
    0.7500000000E+00      0.7500000000E+00      0.7500000000E+00

     0     1     0
     1     0     0
     0     0     1
    0.5000000000E+00      0.5000000000E+00      0.5000000000E+00

     0     0     1
     0    -1     1
    -1     0     1
    0.7500000000E+00      0.7500000000E+00      0.7500000000E+00

    -1     0     1
    -1     0     0
    -1     1     0
    0.5000000000E+00      0.5000000000E+00      0.5000000000E+00

     0     1     0
    -1     1     0
     0     1    -1
    0.7500000000E+00      0.7500000000E+00      0.7500000000E+00

     0     1    -1
     0     0    -1
     1     0    -1
    0.5000000000E+00      0.5000000000E+00      0.5000000000E+00

     1     0    -1
     1    -1     0
     1     0     0
    0.7500000000E+00      0.7500000000E+00      0.7500000000E+00

     1     0     0
     0     0     1
     0     1     0
    0.5000000000E+00      0.5000000000E+00      0.5000000000E+00

     0    -1     0
     0     0    -1
    -1     0     0
    0.7500000000E+00      0.7500000000E+00      0.7500000000E+00

    -1     0     0
    -1     1     0
    -1     0     1
    0.5000000000E+00      0.5000000000E+00      0.5000000000E+00

    -1     0     1
     0     0     1
     0    -1     1
    0.7500000000E+00      0.7500000000E+00      0.7500000000E+00

     0    -1     1
     1    -1     0
     0    -1     0
    0.5000000000E+00      0.5000000000E+00      0.5000000000E+00

 symops and translations in cartesian coordinates = 
    0.1000000000E+01    0.0000000000E+00    0.0000000000E+00
    0.0000000000E+00    0.1000000000E+01    0.0000000000E+00
    0.0000000000E+00    0.0000000000E+00    0.1000000000E+01
    0.0000000000E+00      0.0000000000E+00      0.0000000000E+00

    0.0000000000E+00    0.0000000000E+00   -0.1000000000E+01
    0.0000000000E+00    0.1000000000E+01    0.0000000000E+00
    0.1000000000E+01    0.0000000000E+00    0.0000000000E+00
    0.3779453756E+01      0.3779453756E+01      0.3779453756E+01

   -0.1000000000E+01    0.0000000000E+00    0.0000000000E+00
    0.0000000000E+00    0.1000000000E+01    0.0000000000E+00
    0.0000000000E+00    0.0000000000E+00   -0.1000000000E+01
    0.5035243896E-14      0.7558907511E+01      0.7558907511E+01

    0.0000000000E+00    0.0000000000E+00    0.1000000000E+01
    0.0000000000E+00    0.1000000000E+01    0.0000000000E+00
   -0.1000000000E+01    0.0000000000E+00    0.0000000000E+00
    0.3779453756E+01      0.3779453756E+01      0.3779453756E+01

    0.1000000000E+01    0.0000000000E+00    0.0000000000E+00
    0.0000000000E+00   -0.1000000000E+01    0.0000000000E+00
    0.0000000000E+00    0.0000000000E+00   -0.1000000000E+01
    0.7558907511E+01      0.8392073160E-14      0.7558907511E+01

    0.0000000000E+00    0.0000000000E+00    0.1000000000E+01
    0.0000000000E+00   -0.1000000000E+01    0.0000000000E+00
    0.1000000000E+01    0.0000000000E+00    0.0000000000E+00
    0.3779453756E+01      0.3779453756E+01      0.3779453756E+01

   -0.1000000000E+01    0.0000000000E+00    0.0000000000E+00
    0.0000000000E+00   -0.1000000000E+01    0.0000000000E+00
    0.0000000000E+00    0.0000000000E+00    0.1000000000E+01
    0.8392073160E-14      0.7558907511E+01      0.7558907511E+01

    0.0000000000E+00    0.0000000000E+00   -0.1000000000E+01
    0.0000000000E+00   -0.1000000000E+01    0.0000000000E+00
   -0.1000000000E+01    0.0000000000E+00    0.0000000000E+00
    0.3779453756E+01      0.3779453756E+01      0.3779453756E+01

    0.0000000000E+00    0.0000000000E+00   -0.1000000000E+01
    0.1000000000E+01    0.0000000000E+00    0.0000000000E+00
    0.0000000000E+00   -0.1000000000E+01    0.0000000000E+00
    0.0000000000E+00      0.1678414632E-14      0.1678414632E-14

    0.0000000000E+00    0.1000000000E+01    0.0000000000E+00
    0.1000000000E+01    0.0000000000E+00    0.0000000000E+00
    0.0000000000E+00    0.0000000000E+00   -0.1000000000E+01
    0.3779453756E+01      0.3779453756E+01      0.3779453756E+01

    0.0000000000E+00    0.0000000000E+00    0.1000000000E+01
    0.1000000000E+01    0.0000000000E+00    0.0000000000E+00
    0.0000000000E+00    0.1000000000E+01    0.0000000000E+00
    0.7558907511E+01      0.7558907511E+01      0.1511781502E+02

    0.0000000000E+00   -0.1000000000E+01    0.0000000000E+00
    0.1000000000E+01    0.0000000000E+00    0.0000000000E+00
    0.0000000000E+00    0.0000000000E+00    0.1000000000E+01
    0.3779453756E+01      0.3779453756E+01      0.3779453756E+01

    0.0000000000E+00    0.0000000000E+00   -0.1000000000E+01
   -0.1000000000E+01    0.0000000000E+00    0.0000000000E+00
    0.0000000000E+00    0.1000000000E+01    0.0000000000E+00
    0.1007048779E-13      0.7558907511E+01      0.7558907511E+01

    0.0000000000E+00   -0.1000000000E+01    0.0000000000E+00
   -0.1000000000E+01    0.0000000000E+00    0.0000000000E+00
    0.0000000000E+00    0.0000000000E+00   -0.1000000000E+01
    0.3779453756E+01      0.3779453756E+01      0.3779453756E+01

    0.0000000000E+00    0.0000000000E+00    0.1000000000E+01
   -0.1000000000E+01    0.0000000000E+00    0.0000000000E+00
    0.0000000000E+00   -0.1000000000E+01    0.0000000000E+00
    0.3356829264E-14      0.7558907511E+01      0.7558907511E+01

    0.0000000000E+00    0.1000000000E+01    0.0000000000E+00
   -0.1000000000E+01    0.0000000000E+00    0.0000000000E+00
    0.0000000000E+00    0.0000000000E+00    0.1000000000E+01
    0.3779453756E+01      0.3779453756E+01      0.3779453756E+01

    0.0000000000E+00    0.1000000000E+01    0.0000000000E+00
    0.0000000000E+00    0.0000000000E+00   -0.1000000000E+01
   -0.1000000000E+01    0.0000000000E+00    0.0000000000E+00
    0.1678414632E-14      0.0000000000E+00      0.1678414632E-14

    0.1000000000E+01    0.0000000000E+00    0.0000000000E+00
    0.0000000000E+00    0.0000000000E+00   -0.1000000000E+01
    0.0000000000E+00    0.1000000000E+01    0.0000000000E+00
    0.3779453756E+01      0.3779453756E+01      0.3779453756E+01

    0.0000000000E+00   -0.1000000000E+01    0.0000000000E+00
    0.0000000000E+00    0.0000000000E+00   -0.1000000000E+01
    0.1000000000E+01    0.0000000000E+00    0.0000000000E+00
    0.7558907511E+01      0.6713658528E-14      0.7558907511E+01

   -0.1000000000E+01    0.0000000000E+00    0.0000000000E+00
    0.0000000000E+00    0.0000000000E+00   -0.1000000000E+01
    0.0000000000E+00   -0.1000000000E+01    0.0000000000E+00
    0.3779453756E+01      0.3779453756E+01      0.3779453756E+01

    0.0000000000E+00    0.1000000000E+01    0.0000000000E+00
    0.0000000000E+00    0.0000000000E+00    0.1000000000E+01
    0.1000000000E+01    0.0000000000E+00    0.0000000000E+00
    0.3356829264E-14      0.7558907511E+01      0.7558907511E+01

   -0.1000000000E+01    0.0000000000E+00    0.0000000000E+00
    0.0000000000E+00    0.0000000000E+00    0.1000000000E+01
    0.0000000000E+00    0.1000000000E+01    0.0000000000E+00
    0.3779453756E+01      0.3779453756E+01      0.3779453756E+01

    0.0000000000E+00   -0.1000000000E+01    0.0000000000E+00
    0.0000000000E+00    0.0000000000E+00    0.1000000000E+01
   -0.1000000000E+01    0.0000000000E+00    0.0000000000E+00
    0.7558907511E+01      0.5874451212E-14      0.7558907511E+01

    0.1000000000E+01    0.0000000000E+00    0.0000000000E+00
    0.0000000000E+00    0.0000000000E+00    0.1000000000E+01
    0.0000000000E+00   -0.1000000000E+01    0.0000000000E+00
    0.3779453756E+01      0.3779453756E+01      0.3779453756E+01

   -0.1000000000E+01    0.0000000000E+00    0.0000000000E+00
    0.0000000000E+00   -0.1000000000E+01    0.0000000000E+00
    0.0000000000E+00    0.0000000000E+00   -0.1000000000E+01
    0.1133836127E+02      0.1133836127E+02      0.1133836127E+02

    0.0000000000E+00    0.0000000000E+00    0.1000000000E+01
    0.0000000000E+00   -0.1000000000E+01    0.0000000000E+00
   -0.1000000000E+01    0.0000000000E+00    0.0000000000E+00
    0.7558907511E+01      0.7558907511E+01      0.7558907511E+01

    0.1000000000E+01    0.0000000000E+00    0.0000000000E+00
    0.0000000000E+00   -0.1000000000E+01    0.0000000000E+00
    0.0000000000E+00    0.0000000000E+00    0.1000000000E+01
    0.1133836127E+02      0.1133836127E+02      0.1133836127E+02

    0.0000000000E+00    0.0000000000E+00   -0.1000000000E+01
    0.0000000000E+00   -0.1000000000E+01    0.0000000000E+00
    0.1000000000E+01    0.0000000000E+00    0.0000000000E+00
    0.7558907511E+01      0.7558907511E+01      0.7558907511E+01

   -0.1000000000E+01    0.0000000000E+00    0.0000000000E+00
    0.0000000000E+00    0.1000000000E+01    0.0000000000E+00
    0.0000000000E+00    0.0000000000E+00    0.1000000000E+01
    0.1133836127E+02      0.1133836127E+02      0.1133836127E+02

    0.0000000000E+00    0.0000000000E+00   -0.1000000000E+01
    0.0000000000E+00    0.1000000000E+01    0.0000000000E+00
   -0.1000000000E+01    0.0000000000E+00    0.0000000000E+00
    0.7558907511E+01      0.7558907511E+01      0.7558907511E+01

    0.1000000000E+01    0.0000000000E+00    0.0000000000E+00
    0.0000000000E+00    0.1000000000E+01    0.0000000000E+00
    0.0000000000E+00    0.0000000000E+00   -0.1000000000E+01
    0.1133836127E+02      0.1133836127E+02      0.1133836127E+02

    0.0000000000E+00    0.0000000000E+00    0.1000000000E+01
    0.0000000000E+00    0.1000000000E+01    0.0000000000E+00
    0.1000000000E+01    0.0000000000E+00    0.0000000000E+00
    0.7558907511E+01      0.7558907511E+01      0.7558907511E+01

    0.0000000000E+00    0.0000000000E+00    0.1000000000E+01
   -0.1000000000E+01    0.0000000000E+00    0.0000000000E+00
    0.0000000000E+00    0.1000000000E+01    0.0000000000E+00
    0.1133836127E+02      0.1133836127E+02      0.1133836127E+02

    0.0000000000E+00   -0.1000000000E+01    0.0000000000E+00
   -0.1000000000E+01    0.0000000000E+00    0.0000000000E+00
    0.0000000000E+00    0.0000000000E+00    0.1000000000E+01
    0.7558907511E+01      0.7558907511E+01      0.7558907511E+01

    0.0000000000E+00    0.0000000000E+00   -0.1000000000E+01
   -0.1000000000E+01    0.0000000000E+00    0.0000000000E+00
    0.0000000000E+00   -0.1000000000E+01    0.0000000000E+00
    0.1133836127E+02      0.1133836127E+02      0.1133836127E+02

    0.0000000000E+00    0.1000000000E+01    0.0000000000E+00
   -0.1000000000E+01    0.0000000000E+00    0.0000000000E+00
    0.0000000000E+00    0.0000000000E+00   -0.1000000000E+01
    0.7558907511E+01      0.7558907511E+01      0.7558907511E+01

    0.0000000000E+00    0.0000000000E+00    0.1000000000E+01
    0.1000000000E+01    0.0000000000E+00    0.0000000000E+00
    0.0000000000E+00   -0.1000000000E+01    0.0000000000E+00
    0.1133836127E+02      0.1133836127E+02      0.1133836127E+02

    0.0000000000E+00    0.1000000000E+01    0.0000000000E+00
    0.1000000000E+01    0.0000000000E+00    0.0000000000E+00
    0.0000000000E+00    0.0000000000E+00    0.1000000000E+01
    0.7558907511E+01      0.7558907511E+01      0.7558907511E+01

    0.0000000000E+00    0.0000000000E+00   -0.1000000000E+01
    0.1000000000E+01    0.0000000000E+00    0.0000000000E+00
    0.0000000000E+00    0.1000000000E+01    0.0000000000E+00
    0.1133836127E+02      0.1133836127E+02      0.1133836127E+02

    0.0000000000E+00   -0.1000000000E+01    0.0000000000E+00
    0.1000000000E+01    0.0000000000E+00    0.0000000000E+00
    0.0000000000E+00    0.0000000000E+00   -0.1000000000E+01
    0.7558907511E+01      0.7558907511E+01      0.7558907511E+01

    0.0000000000E+00   -0.1000000000E+01    0.0000000000E+00
    0.0000000000E+00    0.0000000000E+00    0.1000000000E+01
    0.1000000000E+01    0.0000000000E+00    0.0000000000E+00
    0.1133836127E+02      0.1133836127E+02      0.1133836127E+02

   -0.1000000000E+01    0.0000000000E+00    0.0000000000E+00
    0.0000000000E+00    0.0000000000E+00    0.1000000000E+01
    0.0000000000E+00   -0.1000000000E+01    0.0000000000E+00
    0.7558907511E+01      0.7558907511E+01      0.7558907511E+01

    0.0000000000E+00    0.1000000000E+01    0.0000000000E+00
    0.0000000000E+00    0.0000000000E+00    0.1000000000E+01
   -0.1000000000E+01    0.0000000000E+00    0.0000000000E+00
    0.1133836127E+02      0.1133836127E+02      0.1133836127E+02

    0.1000000000E+01    0.0000000000E+00    0.0000000000E+00
    0.0000000000E+00    0.0000000000E+00    0.1000000000E+01
    0.0000000000E+00    0.1000000000E+01    0.0000000000E+00
    0.7558907511E+01      0.7558907511E+01      0.7558907511E+01

    0.0000000000E+00   -0.1000000000E+01    0.0000000000E+00
    0.0000000000E+00    0.0000000000E+00   -0.1000000000E+01
   -0.1000000000E+01    0.0000000000E+00    0.0000000000E+00
    0.1133836127E+02      0.1133836127E+02      0.1133836127E+02

    0.1000000000E+01    0.0000000000E+00    0.0000000000E+00
    0.0000000000E+00    0.0000000000E+00   -0.1000000000E+01
    0.0000000000E+00   -0.1000000000E+01    0.0000000000E+00
    0.7558907511E+01      0.7558907511E+01      0.7558907511E+01

    0.0000000000E+00    0.1000000000E+01    0.0000000000E+00
    0.0000000000E+00    0.0000000000E+00   -0.1000000000E+01
    0.1000000000E+01    0.0000000000E+00    0.0000000000E+00
    0.1133836127E+02      0.1133836127E+02      0.1133836127E+02

   -0.1000000000E+01    0.0000000000E+00    0.0000000000E+00
    0.0000000000E+00    0.0000000000E+00   -0.1000000000E+01
    0.0000000000E+00    0.1000000000E+01    0.0000000000E+00
    0.7558907511E+01      0.7558907511E+01      0.7558907511E+01

----------------------------------------------------------------------


siesta: ******************** Simulation parameters ****************************
siesta:
siesta: The following are some of the parameters of the simulation.
siesta: A complete list of the parameters used, including default values,
siesta: can be found in file out.fdf
siesta:
redata: Spin configuration                          = none
redata: Number of spin components                   = 1
redata: Time-Reversal Symmetry                      = T
redata: Spin-spiral                                 = F
redata: Long output                                 =   F
redata: Number of Atomic Species                    =        1
redata: Charge density info will appear in .RHO file
redata: Write Mulliken Pop.                         = NO
redata: Matel table size (NRTAB)                    =     1024
redata: Mesh Cutoff                                 =   300.0000 Ry
redata: Net charge of the system                    =     0.0000 |e|
redata: Min. number of SCF Iter                     =        0
redata: Max. number of SCF Iter                     =        0
redata: SCF mix quantity                            = Hamiltonian
redata: Mix DM or H after convergence               =   F
redata: Recompute H after scf cycle                 =   F
redata: Mix DM in first SCF step                    =   T
redata: Write Pulay info on disk                    =   F
redata: New DM Mixing Weight                        =     0.2500
redata: New DM Occupancy tolerance                  = 0.000000000001
redata: No kicks to SCF
redata: DM Mixing Weight for Kicks                  =     0.5000
redata: Require Harris convergence for SCF          =   F
redata: Harris energy tolerance for SCF             =     0.000100 eV
redata: Require DM convergence for SCF              =   T
redata: DM tolerance for SCF                        =     0.000100
redata: Require EDM convergence for SCF             =   F
redata: EDM tolerance for SCF                       =     0.001000 eV
redata: Require H convergence for SCF               =   T
redata: Hamiltonian tolerance for SCF               =     0.001000 eV
redata: Require (free) Energy convergence for SCF   =   F
redata: (free) Energy tolerance for SCF             =     0.000100 eV
redata: Using Saved Data (generic)                  =   F
redata: Use continuation files for DM               =   F
redata: Neglect nonoverlap interactions             =   F
redata: Method of Calculation                       = Diagonalization
redata: Electronic Temperature                      =   299.9869 K
redata: Fix the spin of the system                  =   F
redata: Max. number of TDED Iter                    =        1
redata: Number of TDED substeps                     =        3
redata: Dynamics option                             = Single-point calculation
mix.SCF: Pulay mixing                            = Pulay
mix.SCF:    Variant                              = stable
mix.SCF:    History steps                        = 2
mix.SCF:    Linear mixing weight                 =     0.250000
mix.SCF:    Mixing weight                        =     0.250000
mix.SCF:    SVD condition                        = 0.1000E-07
redata: ***********************************************************************

%block SCF.Mixers
  Pulay
%endblock SCF.Mixers

%block SCF.Mixer.Pulay
  # Mixing method
  method pulay
  variant stable

  # Mixing options
  weight 0.2500
  weight.linear 0.2500
  history 2
%endblock SCF.Mixer.Pulay

DM_history_depth set to one: no extrapolation allowed by default for geometry relaxation
Size of DM history Fstack: 1
Total number of electrons:    48.000000
Total ionic charge:    48.000000

* ProcessorY, Blocksize:    2  24


* Orbital distribution balance (max,min):    48    24


siesta: k-grid: Number of k-points =         1
siesta: k-point is Gamma-only

diag: Algorithm                                     = D&C
diag: Parallel over k                               =   F
diag: Use parallel 2D distribution                  =   T
diag: Parallel block-size                           = 24
diag: Parallel distribution                         =     2 x     4
diag: Used triangular part                          = Lower
diag: Absolute tolerance                            =  0.100E-15
diag: Orthogonalization factor                      =  0.100E-05
diag: Memory factor                                 =  1.0000


ts: **************************************************************
ts: Save H and S matrices                           =    F
ts: Save DM and EDM matrices                        =    F
ts: Fix Hartree potential                           =    F
ts: Only save the overlap matrix S                  =    F
ts: **************************************************************

************************ Begin: TS CHECKS AND WARNINGS ************************
************************ End: TS CHECKS AND WARNINGS **************************


                     ====================================
                        Single-point calculation
                     ====================================

outcell: Unit cell vectors (Ang):
        0.000000    4.000000    4.000000
        4.000000    0.000000    4.000000
        4.000000    4.000000    0.000000

outcell: Cell vector modules (Ang)   :    5.656854    5.656854    5.656854
outcell: Cell angles (23,13,12) (deg):     60.0000     60.0000     60.0000
outcell: Cell volume (Ang**3)        :    128.0000
siesta: WARNING: Atoms     1    25 too close: rij =    0.524595 Ang
siesta: WARNING: Atoms     2    33 too close: rij =    0.524595 Ang
siesta: WARNING: Atoms     3    30 too close: rij =    0.524595 Ang
siesta: WARNING: Atoms     4    28 too close: rij =    0.524595 Ang
siesta: WARNING: Atoms     5    27 too close: rij =    0.524595 Ang
siesta: WARNING: Atoms     6    43 too close: rij =    0.524595 Ang
siesta: WARNING: Atoms     7    13 too close: rij =    0.524595 Ang
siesta: WARNING: Atoms     8    36 too close: rij =    0.524595 Ang
siesta: WARNING: Atoms     9    18 too close: rij =    0.524595 Ang
siesta: WARNING: Atoms    10    12 too close: rij =    0.524595 Ang
siesta: WARNING: Atoms    11    47 too close: rij =    0.524595 Ang
siesta: WARNING: Atoms    14    46 too close: rij =    0.524595 Ang
siesta: WARNING: Atoms    15    23 too close: rij =    0.524595 Ang
siesta: WARNING: Atoms    16    22 too close: rij =    0.524595 Ang
siesta: WARNING: Atoms    17    45 too close: rij =    0.524595 Ang
siesta: WARNING: Atoms    19    21 too close: rij =    0.524595 Ang
siesta: WARNING: Atoms    20    44 too close: rij =    0.524595 Ang
siesta: WARNING: Atoms    24    34 too close: rij =    0.524595 Ang
siesta: WARNING: Atoms    26    48 too close: rij =    0.524595 Ang
siesta: WARNING: Atoms    29    38 too close: rij =    0.524595 Ang
siesta: WARNING: Atoms    31    32 too close: rij =    0.524595 Ang
siesta: WARNING: Atoms    35    42 too close: rij =    0.524595 Ang
siesta: WARNING: Atoms    37    41 too close: rij =    0.524595 Ang
siesta: WARNING: Atoms    39    40 too close: rij =    0.524595 Ang
Gamma-point calculation with interaction between periodic images
Some features might not work optimally:
e.g. DM initialization from atomic data
<dSpData1D:S at geom step 0
  <sparsity:sparsity for geom step 0
    nrows_g=240 nrows=48 sparsity=.2000 nnzs=11520, refcount: 7>
  <dData1D:(new from dSpData1D) n=11520, refcount: 1>
refcount: 1>
new_DM -- step:     1
Initializing Density Matrix...
DM filled with atomic data:
<dSpData2D:DM initialized from atoms
  <sparsity:sparsity for geom step 0
    nrows_g=240 nrows=48 sparsity=.2000 nnzs=11520, refcount: 8>
  <dData2D:DM n=11520 m=1, refcount: 1>
refcount: 1>
No. of atoms with KB's overlaping orbs in proc 0. Max # of overlaps:      48     313
New grid distribution:   1
           1       1:   25    1:   13    1:    7
           2       1:   25    1:   13    8:   13
           3       1:   25    1:   13   14:   19
           4       1:   25    1:   13   20:   25
           5       1:   25   14:   25    1:    7
           6       1:   25   14:   25    8:   13
           7       1:   25   14:   25   14:   19
           8       1:   25   14:   25   20:   25

InitMesh: MESH =    50 x    50 x    50 =      125000
InitMesh: (bp) =    25 x    25 x    25 =       15625
InitMesh: Mesh cutoff (required, used) =   300.000   323.879 Ry
ExtMesh (bp) on 0 =    81 x    69 x    63 =      352107
New grid distribution:   2
           1       1:   13   14:   25   13:   25
           2      13:   25    1:   12    1:   12
           3      13:   25    1:   13   13:   25
           4       1:   12   13:   25    1:   12
           5       1:   12    1:   13   13:   25
           6      13:   25   13:   25    1:   12
           7      14:   25   14:   25   13:   25
           8       1:   12    1:   12    1:   12
New grid distribution:   3
           1       1:   13    1:   13    1:   13
           2      14:   25   14:   25    1:   13
           3       1:   13    1:   13   14:   25
           4      14:   25    1:   13   14:   25
           5       1:   13   14:   25    1:   13
           6      14:   25    1:   13    1:   13
           7       1:   13   14:   25   14:   25
           8      14:   25   14:   25   14:   25
Setting up quadratic distribution...
ExtMesh (bp) on 0 =    69 x    68 x    69 =      323748
PhiOnMesh: Number of (b)points on node 0 =                 2028
PhiOnMesh: nlist on node 0 =               264813
SCF_NOT_CONV: SCF did not converge  in maximum number of steps.
Geom step, scf iteration, dmax:    0     0     0.000000

Using DM_out to compute the final energy and forces
No. of atoms with KB's overlaping orbs in proc 0. Max # of overlaps:      48     313

siesta: E_KS(eV) =             -644.5130
change in fa due to symmetrization =    -0.66065004578064190355E-08   -0.42577372738605845370E-08    0.19049761235123696679E-06
change in fa due to symmetrization =    -0.19049754956812492424E-06    0.42576077108336107813E-08   -0.66065006798510239605E-08
change in fa due to symmetrization =     0.66065088955014061867E-08   -0.42577470438232012384E-08   -0.19049761634803985544E-06
change in fa due to symmetrization =     0.19049754618194469913E-06    0.42576109304803821942E-08    0.66065009018956288855E-08
change in fa due to symmetrization =    -0.66065084514121963366E-08    0.42577428249757076628E-08   -0.19049761573741719189E-06
change in fa due to symmetrization =    -0.66065004578064190355E-08   -0.42577372738605845370E-08    0.19049761235123696679E-06
change in fa due to symmetrization =    -0.19049754956812492424E-06    0.42576077108336107813E-08   -0.66065006798510239605E-08
change in fa due to symmetrization =     0.66065088955014061867E-08   -0.42577470438232012384E-08   -0.19049761634803985544E-06
change in fa due to symmetrization =     0.19049754618194469913E-06    0.42576109304803821942E-08    0.66065009018956288855E-08
change in fa due to symmetrization =    -0.66065084514121963366E-08    0.42577428249757076628E-08   -0.19049761573741719189E-06
change in fa due to symmetrization =    -0.19049754546029973312E-06   -0.42576084879897280189E-08    0.66064977932711599351E-08
change in fa due to symmetrization =     0.66065086734568012616E-08    0.42577443792879421380E-08    0.19049761224021466433E-06
change in fa due to symmetrization =    -0.66065004578064190355E-08   -0.42577372738605845370E-08    0.19049761235123696679E-06
change in fa due to symmetrization =    -0.19049754956812492424E-06    0.42576077108336107813E-08   -0.66065006798510239605E-08
change in fa due to symmetrization =     0.66065088955014061867E-08   -0.42577470438232012384E-08   -0.19049761634803985544E-06
change in fa due to symmetrization =     0.19049754618194469913E-06    0.42576109304803821942E-08    0.66065009018956288855E-08
change in fa due to symmetrization =    -0.66065084514121963366E-08    0.42577428249757076628E-08   -0.19049761573741719189E-06
change in fa due to symmetrization =    -0.19049754546029973312E-06   -0.42576084879897280189E-08    0.66064977932711599351E-08
change in fa due to symmetrization =     0.66065086734568012616E-08    0.42577443792879421380E-08    0.19049761224021466433E-06
change in fa due to symmetrization =    -0.66065004578064190355E-08   -0.42577372738605845370E-08    0.19049761235123696679E-06
change in fa due to symmetrization =    -0.19049754956812492424E-06    0.42576077108336107813E-08   -0.66065006798510239605E-08
change in fa due to symmetrization =     0.66065088955014061867E-08   -0.42577470438232012384E-08   -0.19049761634803985544E-06
change in fa due to symmetrization =     0.19049754618194469913E-06    0.42576109304803821942E-08    0.66065009018956288855E-08
change in fa due to symmetrization =    -0.66065084514121963366E-08    0.42577428249757076628E-08   -0.19049761573741719189E-06
change in fa due to symmetrization =    -0.19049754546029973312E-06   -0.42576084879897280189E-08    0.66064977932711599351E-08
change in fa due to symmetrization =     0.66065086734568012616E-08    0.42577443792879421380E-08    0.19049761224021466433E-06
change in fa due to symmetrization =    -0.66065004578064190355E-08   -0.42577372738605845370E-08    0.19049761235123696679E-06
change in fa due to symmetrization =    -0.66065004578064190355E-08   -0.42577372738605845370E-08    0.19049761235123696679E-06
change in fa due to symmetrization =    -0.19049754956812492424E-06    0.42576077108336107813E-08   -0.66065006798510239605E-08
change in fa due to symmetrization =     0.66065088955014061867E-08   -0.42577470438232012384E-08   -0.19049761634803985544E-06
change in fa due to symmetrization =     0.19049754618194469913E-06    0.42576109304803821942E-08    0.66065009018956288855E-08
change in fa due to symmetrization =    -0.66065084514121963366E-08    0.42577428249757076628E-08   -0.19049761573741719189E-06
change in fa due to symmetrization =    -0.66065004578064190355E-08   -0.42577372738605845370E-08    0.19049761235123696679E-06
change in fa due to symmetrization =    -0.19049754956812492424E-06    0.42576077108336107813E-08   -0.66065006798510239605E-08
change in fa due to symmetrization =     0.66065088955014061867E-08   -0.42577470438232012384E-08   -0.19049761634803985544E-06
change in fa due to symmetrization =     0.19049754618194469913E-06    0.42576109304803821942E-08    0.66065009018956288855E-08
change in fa due to symmetrization =    -0.66065084514121963366E-08    0.42577428249757076628E-08   -0.19049761573741719189E-06
change in fa due to symmetrization =     0.19049754684807851390E-06   -0.42576138170602462196E-08   -0.66065073411891717114E-08
change in fa due to symmetrization =    -0.42576122627480117444E-08   -0.19049779698132596195E-06    0.66066268011866213783E-08
change in fa due to symmetrization =     0.42574817005203158260E-08    0.66066145887333505016E-08    0.19049773353208010462E-06
change in fa due to symmetrization =    -0.19049754546029973312E-06   -0.42576084879897280189E-08    0.66064977932711599351E-08
change in fa due to symmetrization =     0.66065086734568012616E-08    0.42577443792879421380E-08    0.19049761224021466433E-06
change in fa due to symmetrization =     0.19049754684807851390E-06   -0.42576138170602462196E-08   -0.66065073411891717114E-08
change in fa due to symmetrization =    -0.19049754546029973312E-06   -0.42576084879897280189E-08    0.66064977932711599351E-08
change in fa due to symmetrization =     0.66065086734568012616E-08    0.42577443792879421380E-08    0.19049761224021466433E-06
change in fa due to symmetrization =     0.19049754684807851390E-06   -0.42576138170602462196E-08   -0.66065073411891717114E-08
change in fa due to symmetrization =     0.19049754684807851390E-06   -0.42576138170602462196E-08   -0.66065073411891717114E-08
change in fa due to symmetrization =     0.19049754684807851390E-06   -0.42576138170602462196E-08   -0.66065073411891717114E-08
change in fa due to symmetrization =    -0.42576122627480117444E-08   -0.19049779698132596195E-06    0.66066268011866213783E-08
change in fa due to symmetrization =     0.42574817005203158260E-08    0.66066145887333505016E-08    0.19049773353208010462E-06
change in fa due to symmetrization =    -0.42576012715400679554E-08    0.19049779259594501468E-06   -0.66066163650901899018E-08
change in fa due to symmetrization =    -0.19049754546029973312E-06   -0.42576084879897280189E-08    0.66064977932711599351E-08
change in fa due to symmetrization =     0.66065086734568012616E-08    0.42577443792879421380E-08    0.19049761224021466433E-06
change in fa due to symmetrization =     0.19049754684807851390E-06   -0.42576138170602462196E-08   -0.66065073411891717114E-08
change in fa due to symmetrization =    -0.42576122627480117444E-08   -0.19049779698132596195E-06    0.66066268011866213783E-08
change in fa due to symmetrization =     0.42574817005203158260E-08    0.66066145887333505016E-08    0.19049773353208010462E-06
change in fa due to symmetrization =    -0.42576012715400679554E-08    0.19049779259594501468E-06   -0.66066163650901899018E-08
change in fa due to symmetrization =     0.42574795910965690382E-08   -0.66066194737146588523E-08   -0.19049773131163405537E-06
change in fa due to symmetrization =     0.42576141501271536072E-08    0.19049779470536876147E-06    0.66066276893650410784E-08
change in fa due to symmetrization =    -0.42574879177692537269E-08   -0.66066241366513622779E-08    0.19049772864709879627E-06
change in fa due to symmetrization =     0.42576113745695920443E-08   -0.19049779681479250826E-06   -0.66066261350528066032E-08
change in fa due to symmetrization =    -0.42574773706505197879E-08    0.66066137005549308014E-08   -0.19049772770340922534E-06
change in fa due to symmetrization =     0.42574795910965690382E-08   -0.66066194737146588523E-08   -0.19049773131163405537E-06
change in fa due to symmetrization =     0.42576141501271536072E-08    0.19049779470536876147E-06    0.66066276893650410784E-08
change in fa due to symmetrization =    -0.42574879177692537269E-08   -0.66066241366513622779E-08    0.19049772864709879627E-06
change in fa due to symmetrization =     0.42576113745695920443E-08   -0.19049779681479250826E-06   -0.66066261350528066032E-08
change in fa due to symmetrization =    -0.42574773706505197879E-08    0.66066137005549308014E-08   -0.19049772770340922534E-06
change in fa due to symmetrization =    -0.19049759930611642744E-06   -0.66065617421173783441E-08    0.42574931358174694651E-08
change in fa due to symmetrization =     0.66065530823777862679E-08   -0.19049773908319522775E-06   -0.42577282810540850733E-08
change in fa due to symmetrization =    -0.42576012715400679554E-08    0.19049779259594501468E-06   -0.66066163650901899018E-08
change in fa due to symmetrization =     0.42574795910965690382E-08   -0.66066194737146588523E-08   -0.19049773131163405537E-06
change in fa due to symmetrization =     0.42576141501271536072E-08    0.19049779470536876147E-06    0.66066276893650410784E-08
change in fa due to symmetrization =    -0.42574879177692537269E-08   -0.66066241366513622779E-08    0.19049772864709879627E-06
change in fa due to symmetrization =     0.42576113745695920443E-08   -0.19049779681479250826E-06   -0.66066261350528066032E-08
change in fa due to symmetrization =    -0.42574773706505197879E-08    0.66066137005549308014E-08   -0.19049772770340922534E-06
change in fa due to symmetrization =    -0.42576122627480117444E-08   -0.19049779698132596195E-06    0.66066268011866213783E-08
change in fa due to symmetrization =     0.42574817005203158260E-08    0.66066145887333505016E-08    0.19049773353208010462E-06
change in fa due to symmetrization =    -0.42576012715400679554E-08    0.19049779259594501468E-06   -0.66066163650901899018E-08
change in fa due to symmetrization =     0.42574795910965690382E-08   -0.66066194737146588523E-08   -0.19049773131163405537E-06
change in fa due to symmetrization =     0.42576141501271536072E-08    0.19049779470536876147E-06    0.66066276893650410784E-08
change in fa due to symmetrization =    -0.42574879177692537269E-08   -0.66066241366513622779E-08    0.19049772864709879627E-06
change in fa due to symmetrization =     0.42576113745695920443E-08   -0.19049779681479250826E-06   -0.66066261350528066032E-08
change in fa due to symmetrization =    -0.42574773706505197879E-08    0.66066137005549308014E-08   -0.19049772770340922534E-06
change in fa due to symmetrization =    -0.19049759930611642744E-06   -0.66065617421173783441E-08    0.42574931358174694651E-08
change in fa due to symmetrization =     0.66065530823777862679E-08   -0.19049773908319522775E-06   -0.42577282810540850733E-08
change in fa due to symmetrization =     0.19049759641953656342E-06    0.66065657389202669947E-08    0.42574961334196359530E-08
change in fa due to symmetrization =    -0.66065486414856877673E-08    0.19049773630763766619E-06   -0.42577402714627510250E-08
change in fa due to symmetrization =     0.19049759925060527621E-06   -0.66065553028238355182E-08   -0.42574914704829325274E-08
change in fa due to symmetrization =    -0.42576122627480117444E-08   -0.19049779698132596195E-06    0.66066268011866213783E-08
change in fa due to symmetrization =     0.42574817005203158260E-08    0.66066145887333505016E-08    0.19049773353208010462E-06
change in fa due to symmetrization =    -0.42576012715400679554E-08    0.19049779259594501468E-06   -0.66066163650901899018E-08
change in fa due to symmetrization =     0.42574795910965690382E-08   -0.66066194737146588523E-08   -0.19049773131163405537E-06
change in fa due to symmetrization =     0.42576141501271536072E-08    0.19049779470536876147E-06    0.66066276893650410784E-08
change in fa due to symmetrization =    -0.42574879177692537269E-08   -0.66066241366513622779E-08    0.19049772864709879627E-06
change in fa due to symmetrization =     0.42576113745695920443E-08   -0.19049779681479250826E-06   -0.66066261350528066032E-08
change in fa due to symmetrization =    -0.42574773706505197879E-08    0.66066137005549308014E-08   -0.19049772770340922534E-06
change in fa due to symmetrization =    -0.19049759930611642744E-06   -0.66065617421173783441E-08    0.42574931358174694651E-08
change in fa due to symmetrization =     0.66065530823777862679E-08   -0.19049773908319522775E-06   -0.42577282810540850733E-08
change in fa due to symmetrization =     0.19049759641953656342E-06    0.66065657389202669947E-08    0.42574961334196359530E-08
change in fa due to symmetrization =    -0.42576122627480117444E-08   -0.19049779698132596195E-06    0.66066268011866213783E-08
change in fa due to symmetrization =     0.42574817005203158260E-08    0.66066145887333505016E-08    0.19049773353208010462E-06
change in fa due to symmetrization =    -0.42576012715400679554E-08    0.19049779259594501468E-06   -0.66066163650901899018E-08
change in fa due to symmetrization =     0.42574795910965690382E-08   -0.66066194737146588523E-08   -0.19049773131163405537E-06
change in fa due to symmetrization =     0.42576141501271536072E-08    0.19049779470536876147E-06    0.66066276893650410784E-08
change in fa due to symmetrization =    -0.42574879177692537269E-08   -0.66066241366513622779E-08    0.19049772864709879627E-06
change in fa due to symmetrization =     0.42576113745695920443E-08   -0.19049779681479250826E-06   -0.66066261350528066032E-08
change in fa due to symmetrization =    -0.42574773706505197879E-08    0.66066137005549308014E-08   -0.19049772770340922534E-06
change in fa due to symmetrization =    -0.19049759930611642744E-06   -0.66065617421173783441E-08    0.42574931358174694651E-08
change in fa due to symmetrization =     0.66065530823777862679E-08   -0.19049773908319522775E-06   -0.42577282810540850733E-08
change in fa due to symmetrization =     0.19049759641953656342E-06    0.66065657389202669947E-08    0.42574961334196359530E-08
change in fa due to symmetrization =    -0.19049759930611642744E-06   -0.66065617421173783441E-08    0.42574931358174694651E-08
change in fa due to symmetrization =     0.66065530823777862679E-08   -0.19049773908319522775E-06   -0.42577282810540850733E-08
change in fa due to symmetrization =     0.19049759641953656342E-06    0.66065657389202669947E-08    0.42574961334196359530E-08
change in fa due to symmetrization =    -0.66065486414856877673E-08    0.19049773630763766619E-06   -0.42577402714627510250E-08
change in fa due to symmetrization =     0.19049759925060527621E-06   -0.66065553028238355182E-08   -0.42574914704829325274E-08
change in fa due to symmetrization =    -0.19049754956812492424E-06    0.42576077108336107813E-08   -0.66065006798510239605E-08
change in fa due to symmetrization =     0.66065088955014061867E-08   -0.42577470438232012384E-08   -0.19049761634803985544E-06
change in fa due to symmetrization =     0.19049754618194469913E-06    0.42576109304803821942E-08    0.66065009018956288855E-08
change in fa due to symmetrization =    -0.66065084514121963366E-08    0.42577428249757076628E-08   -0.19049761573741719189E-06
change in fa due to symmetrization =    -0.19049754546029973312E-06   -0.42576084879897280189E-08    0.66064977932711599351E-08
change in fa due to symmetrization =     0.66065086734568012616E-08    0.42577443792879421380E-08    0.19049761224021466433E-06
change in fa due to symmetrization =     0.19049754684807851390E-06   -0.42576138170602462196E-08   -0.66065073411891717114E-08
change in fa due to symmetrization =    -0.42576122627480117444E-08   -0.19049779698132596195E-06    0.66066268011866213783E-08
change in fa due to symmetrization =     0.42574817005203158260E-08    0.66066145887333505016E-08    0.19049773353208010462E-06
change in fa due to symmetrization =    -0.42576012715400679554E-08    0.19049779259594501468E-06   -0.66066163650901899018E-08
change in fa due to symmetrization =     0.42574795910965690382E-08   -0.66066194737146588523E-08   -0.19049773131163405537E-06
change in fa due to symmetrization =     0.19049759641953656342E-06    0.66065657389202669947E-08    0.42574961334196359530E-08
change in fa due to symmetrization =    -0.66065486414856877673E-08    0.19049773630763766619E-06   -0.42577402714627510250E-08
change in fa due to symmetrization =     0.19049759925060527621E-06   -0.66065553028238355182E-08   -0.42574914704829325274E-08
change in fa due to symmetrization =    -0.66065501957979222425E-08   -0.19049773769541644697E-06    0.42577306125224367861E-08
change in fa due to symmetrization =    -0.19049759986122793975E-06    0.66065704018569704203E-08   -0.42574977987541728908E-08
change in fa due to symmetrization =     0.66065501957979222425E-08    0.19049773419821391940E-06    0.42577332770576958865E-08
change in fa due to symmetrization =    -0.66065501957979222425E-08   -0.19049773769541644697E-06    0.42577306125224367861E-08
change in fa due to symmetrization =    -0.19049759986122793975E-06    0.66065704018569704203E-08   -0.42574977987541728908E-08
change in fa due to symmetrization =     0.66065501957979222425E-08    0.19049773419821391940E-06    0.42577332770576958865E-08
change in fa due to symmetrization =    -0.66066150328225603516E-08   -0.42574892500368832771E-08    0.19049771787793545741E-06
change in fa due to symmetrization =    -0.19049779126367738513E-06    0.42576018266515802679E-08   -0.66066121462426963262E-08
change in fa due to symmetrization =     0.66066241366513622779E-08   -0.42574899161706980522E-08   -0.19049771865509157465E-06
change in fa due to symmetrization =     0.19049779204083350237E-06    0.42576131509264314445E-08    0.66066088155736224508E-08
change in fa due to symmetrization =    -0.66066110360196717011E-08    0.42574845871001798514E-08   -0.19049772070900417020E-06
change in fa due to symmetrization =    -0.66065486414856877673E-08    0.19049773630763766619E-06   -0.42577402714627510250E-08
change in fa due to symmetrization =     0.19049759925060527621E-06   -0.66065553028238355182E-08   -0.42574914704829325274E-08
change in fa due to symmetrization =    -0.66065501957979222425E-08   -0.19049773769541644697E-06    0.42577306125224367861E-08
change in fa due to symmetrization =    -0.19049759986122793975E-06    0.66065704018569704203E-08   -0.42574977987541728908E-08
change in fa due to symmetrization =     0.66065501957979222425E-08    0.19049773419821391940E-06    0.42577332770576958865E-08
change in fa due to symmetrization =    -0.66066150328225603516E-08   -0.42574892500368832771E-08    0.19049771787793545741E-06
change in fa due to symmetrization =    -0.19049779126367738513E-06    0.42576018266515802679E-08   -0.66066121462426963262E-08
change in fa due to symmetrization =     0.66066241366513622779E-08   -0.42574899161706980522E-08   -0.19049771865509157465E-06

siesta: E_KS - E_eggbox =      -644.5130
change in fa due to symmetrization =    -0.66066150328225603516E-08   -0.42574892500368832771E-08    0.19049771787793545741E-06
change in fa due to symmetrization =    -0.19049779126367738513E-06    0.42576018266515802679E-08   -0.66066121462426963262E-08
change in fa due to symmetrization =    -0.19049779398372379546E-06   -0.42576064895882836936E-08    0.66066097037520421509E-08
change in fa due to symmetrization =     0.66066234705175475028E-08    0.42574914704829325274E-08    0.19049771848855812095E-06
change in fa due to symmetrization =     0.19049779204083350237E-06    0.42576131509264314445E-08    0.66066088155736224508E-08
change in fa due to symmetrization =    -0.66066110360196717011E-08    0.42574845871001798514E-08   -0.19049772070900417020E-06
change in fa due to symmetrization =    -0.19049779398372379546E-06   -0.42576064895882836936E-08    0.66066097037520421509E-08
change in fa due to symmetrization =     0.66066234705175475028E-08    0.42574914704829325274E-08    0.19049771848855812095E-06
change in fa due to symmetrization =     0.19049778704482989156E-06   -0.42576031589192098181E-08   -0.66066032644584993250E-08
change in fa due to symmetrization =    -0.66065486414856877673E-08    0.19049773630763766619E-06   -0.42577402714627510250E-08
change in fa due to symmetrization =     0.19049759925060527621E-06   -0.66065553028238355182E-08   -0.42574914704829325274E-08
change in fa due to symmetrization =    -0.66065501957979222425E-08   -0.19049773769541644697E-06    0.42577306125224367861E-08
change in fa due to symmetrization =    -0.19049759986122793975E-06    0.66065704018569704203E-08   -0.42574977987541728908E-08
change in fa due to symmetrization =    -0.66065501957979222425E-08   -0.19049773769541644697E-06    0.42577306125224367861E-08
change in fa due to symmetrization =    -0.19049759986122793975E-06    0.66065704018569704203E-08   -0.42574977987541728908E-08
change in fa due to symmetrization =     0.66065501957979222425E-08    0.19049773419821391940E-06    0.42577332770576958865E-08
change in fa due to symmetrization =     0.42576141501271536072E-08    0.19049779470536876147E-06    0.66066276893650410784E-08
change in fa due to symmetrization =    -0.42574879177692537269E-08   -0.66066241366513622779E-08    0.19049772864709879627E-06
change in fa due to symmetrization =     0.42576113745695920443E-08   -0.19049779681479250826E-06   -0.66066261350528066032E-08
change in fa due to symmetrization =    -0.42574773706505197879E-08    0.66066137005549308014E-08   -0.19049772770340922534E-06
change in fa due to symmetrization =     0.66065501957979222425E-08    0.19049773419821391940E-06    0.42577332770576958865E-08
change in fa due to symmetrization =    -0.66066150328225603516E-08   -0.42574892500368832771E-08    0.19049771787793545741E-06
change in fa due to symmetrization =    -0.66066150328225603516E-08   -0.42574892500368832771E-08    0.19049771787793545741E-06
change in fa due to symmetrization =    -0.19049779126367738513E-06    0.42576018266515802679E-08   -0.66066121462426963262E-08
change in fa due to symmetrization =     0.19049778704482989156E-06   -0.42576031589192098181E-08   -0.66066032644584993250E-08
change in fa due to symmetrization =    -0.42576190351084619579E-08   -0.19049753890998388783E-06    0.66065066750553569364E-08
change in fa due to symmetrization =     0.42577376069274919246E-08    0.66064858028624939834E-08    0.19049760713318875105E-06
change in fa due to symmetrization =    -0.42576244752012826211E-08    0.19049753563482596519E-06   -0.66064997916726042604E-08
change in fa due to symmetrization =     0.42577268377641530606E-08   -0.66064920201114318843E-08   -0.19049760813238947321E-06
change in fa due to symmetrization =     0.42576190351084619579E-08    0.19049753868793928291E-06    0.66065073411891717114E-08
change in fa due to symmetrization =    -0.66065004578064190355E-08   -0.42577372738605845370E-08    0.19049761235123696679E-06
change in fa due to symmetrization =    -0.19049754956812492424E-06    0.42576077108336107813E-08   -0.66065006798510239605E-08
change in fa due to symmetrization =     0.66065088955014061867E-08   -0.42577470438232012384E-08   -0.19049761634803985544E-06
change in fa due to symmetrization =     0.19049754618194469913E-06    0.42576109304803821942E-08    0.66065009018956288855E-08
change in fa due to symmetrization =     0.66066241366513622779E-08   -0.42574899161706980522E-08   -0.19049771865509157465E-06
change in fa due to symmetrization =     0.19049779204083350237E-06    0.42576131509264314445E-08    0.66066088155736224508E-08
change in fa due to symmetrization =    -0.66066110360196717011E-08    0.42574845871001798514E-08   -0.19049772070900417020E-06
change in fa due to symmetrization =    -0.19049779398372379546E-06   -0.42576064895882836936E-08    0.66066097037520421509E-08
change in fa due to symmetrization =     0.66066234705175475028E-08    0.42574914704829325274E-08    0.19049771848855812095E-06
change in fa due to symmetrization =     0.19049778704482989156E-06   -0.42576031589192098181E-08   -0.66066032644584993250E-08
change in fa due to symmetrization =    -0.42576190351084619579E-08   -0.19049753890998388783E-06    0.66065066750553569364E-08
change in fa due to symmetrization =     0.42577376069274919246E-08    0.66064858028624939834E-08    0.19049760713318875105E-06
change in fa due to symmetrization =    -0.42576244752012826211E-08    0.19049753563482596519E-06   -0.66064997916726042604E-08
change in fa due to symmetrization =     0.42577268377641530606E-08   -0.66064920201114318843E-08   -0.19049760813238947321E-06
change in fa due to symmetrization =     0.42576190351084619579E-08    0.19049753868793928291E-06    0.66065073411891717114E-08
change in fa due to symmetrization =    -0.42577331660353934240E-08   -0.66064849146840742833E-08    0.19049760319189701363E-06
change in fa due to symmetrization =     0.42576215886214185957E-08   -0.19049754157451914693E-06   -0.66065044546093076860E-08
change in fa due to symmetrization =    -0.42576190351084619579E-08   -0.19049753890998388783E-06    0.66065066750553569364E-08
change in fa due to symmetrization =     0.42577376069274919246E-08    0.66064858028624939834E-08    0.19049760713318875105E-06
change in fa due to symmetrization =    -0.42576244752012826211E-08    0.19049753563482596519E-06   -0.66064997916726042604E-08
change in fa due to symmetrization =     0.42577268377641530606E-08   -0.66064920201114318843E-08   -0.19049760813238947321E-06
change in fa due to symmetrization =     0.42576190351084619579E-08    0.19049753868793928291E-06    0.66065073411891717114E-08
change in fa due to symmetrization =    -0.19049759930611642744E-06   -0.66065617421173783441E-08    0.42574931358174694651E-08
change in fa due to symmetrization =     0.66065530823777862679E-08   -0.19049773908319522775E-06   -0.42577282810540850733E-08
change in fa due to symmetrization =     0.19049759641953656342E-06    0.66065657389202669947E-08    0.42574961334196359530E-08
change in fa due to symmetrization =    -0.66065486414856877673E-08    0.19049773630763766619E-06   -0.42577402714627510250E-08
change in fa due to symmetrization =    -0.19049779126367738513E-06    0.42576018266515802679E-08   -0.66066121462426963262E-08
change in fa due to symmetrization =     0.66066241366513622779E-08   -0.42574899161706980522E-08   -0.19049771865509157465E-06
change in fa due to symmetrization =     0.19049779204083350237E-06    0.42576131509264314445E-08    0.66066088155736224508E-08
change in fa due to symmetrization =    -0.66066110360196717011E-08    0.42574845871001798514E-08   -0.19049772070900417020E-06
change in fa due to symmetrization =     0.66066241366513622779E-08   -0.42574899161706980522E-08   -0.19049771865509157465E-06
change in fa due to symmetrization =     0.19049779204083350237E-06    0.42576131509264314445E-08    0.66066088155736224508E-08
change in fa due to symmetrization =    -0.66066110360196717011E-08    0.42574845871001798514E-08   -0.19049772070900417020E-06
change in fa due to symmetrization =    -0.42577331660353934240E-08   -0.66064849146840742833E-08    0.19049760319189701363E-06
change in fa due to symmetrization =     0.42576215886214185957E-08   -0.19049754157451914693E-06   -0.66065044546093076860E-08
change in fa due to symmetrization =    -0.42577337211469057365E-08    0.66064893555761727839E-08   -0.19049760768830026336E-06
change in fa due to symmetrization =    -0.19049773297696859231E-06   -0.66065568571360699934E-08    0.42577281700317826107E-08
change in fa due to symmetrization =     0.66065575232698847685E-08   -0.19049759891753836882E-06   -0.42574820335872232135E-08
change in fa due to symmetrization =     0.19049773564150385141E-06    0.66065604098497487939E-08    0.42577379399943993121E-08
change in fa due to symmetrization =    -0.66065084514121963366E-08    0.42577428249757076628E-08   -0.19049761573741719189E-06
change in fa due to symmetrization =    -0.19049754546029973312E-06   -0.42576084879897280189E-08    0.66064977932711599351E-08
change in fa due to symmetrization =     0.19049759925060527621E-06   -0.66065553028238355182E-08   -0.42574914704829325274E-08
change in fa due to symmetrization =    -0.66065501957979222425E-08   -0.19049773769541644697E-06    0.42577306125224367861E-08
change in fa due to symmetrization =    -0.19049759986122793975E-06    0.66065704018569704203E-08   -0.42574977987541728908E-08
change in fa due to symmetrization =     0.66065501957979222425E-08    0.19049773419821391940E-06    0.42577332770576958865E-08
change in fa due to symmetrization =    -0.66066150328225603516E-08   -0.42574892500368832771E-08    0.19049771787793545741E-06
change in fa due to symmetrization =    -0.19049779126367738513E-06    0.42576018266515802679E-08   -0.66066121462426963262E-08
change in fa due to symmetrization =     0.66066241366513622779E-08   -0.42574899161706980522E-08   -0.19049771865509157465E-06
change in fa due to symmetrization =     0.19049779204083350237E-06    0.42576131509264314445E-08    0.66066088155736224508E-08
change in fa due to symmetrization =    -0.19049779398372379546E-06   -0.42576064895882836936E-08    0.66066097037520421509E-08
change in fa due to symmetrization =     0.66066234705175475028E-08    0.42574914704829325274E-08    0.19049771848855812095E-06
change in fa due to symmetrization =     0.19049778704482989156E-06   -0.42576031589192098181E-08   -0.66066032644584993250E-08
change in fa due to symmetrization =    -0.42576190351084619579E-08   -0.19049753890998388783E-06    0.66065066750553569364E-08
change in fa due to symmetrization =     0.42577376069274919246E-08    0.66064858028624939834E-08    0.19049760713318875105E-06
change in fa due to symmetrization =    -0.42576244752012826211E-08    0.19049753563482596519E-06   -0.66064997916726042604E-08
change in fa due to symmetrization =     0.42577268377641530606E-08   -0.66064920201114318843E-08   -0.19049760813238947321E-06
change in fa due to symmetrization =     0.42576190351084619579E-08    0.19049753868793928291E-06    0.66065073411891717114E-08
change in fa due to symmetrization =    -0.19049759930611642744E-06   -0.66065617421173783441E-08    0.42574931358174694651E-08
change in fa due to symmetrization =     0.66065530823777862679E-08   -0.19049773908319522775E-06   -0.42577282810540850733E-08
change in fa due to symmetrization =     0.19049759641953656342E-06    0.66065657389202669947E-08    0.42574961334196359530E-08
change in fa due to symmetrization =    -0.19049779398372379546E-06   -0.42576064895882836936E-08    0.66066097037520421509E-08
change in fa due to symmetrization =     0.66066234705175475028E-08    0.42574914704829325274E-08    0.19049771848855812095E-06
change in fa due to symmetrization =     0.19049778704482989156E-06   -0.42576031589192098181E-08   -0.66066032644584993250E-08
change in fa due to symmetrization =    -0.42576190351084619579E-08   -0.19049753890998388783E-06    0.66065066750553569364E-08
change in fa due to symmetrization =     0.42577376069274919246E-08    0.66064858028624939834E-08    0.19049760713318875105E-06
change in fa due to symmetrization =    -0.42576244752012826211E-08    0.19049753563482596519E-06   -0.66064997916726042604E-08
change in fa due to symmetrization =     0.42577268377641530606E-08   -0.66064920201114318843E-08   -0.19049760813238947321E-06
change in fa due to symmetrization =    -0.66065544146454158181E-08    0.19049759492073548017E-06   -0.42574804792749887383E-08
change in fa due to symmetrization =     0.19049773164470096276E-06   -0.66065617421173783441E-08   -0.42577361636375599119E-08
change in fa due to symmetrization =    -0.66065644066526374445E-08   -0.19049760519029845796E-06    0.42574828107433404512E-08
change in fa due to symmetrization =    -0.19049773714030493466E-06    0.66065659609648719197E-08   -0.42577406045296584125E-08
change in fa due to symmetrization =     0.66065644066526374445E-08    0.19049759841793800774E-06    0.42574869185685315642E-08
Max change in any component of fa due to symmetrization =     0.1904977970E-06
Max relative change =     0.5992489051E-06
change in fa due to symmetrization =     0.66065086734568012616E-08    0.42577443792879421380E-08    0.19049761224021466433E-06
change in fa due to symmetrization =    -0.42577337211469057365E-08    0.66064893555761727839E-08   -0.19049760768830026336E-06
change in fa due to symmetrization =    -0.19049773297696859231E-06   -0.66065568571360699934E-08    0.42577281700317826107E-08
change in fa due to symmetrization =     0.66065575232698847685E-08   -0.19049759891753836882E-06   -0.42574820335872232135E-08
change in fa due to symmetrization =     0.19049773564150385141E-06    0.66065604098497487939E-08    0.42577379399943993121E-08
change in fa due to symmetrization =    -0.66065544146454158181E-08    0.19049759492073548017E-06   -0.42574804792749887383E-08
change in fa due to symmetrization =     0.19049773164470096276E-06   -0.66065617421173783441E-08   -0.42577361636375599119E-08
change in fa due to symmetrization =    -0.66065644066526374445E-08   -0.19049760519029845796E-06    0.42574828107433404512E-08
change in fa due to symmetrization =    -0.19049773714030493466E-06    0.66065659609648719197E-08   -0.42577406045296584125E-08
change in fa due to symmetrization =     0.66065644066526374445E-08    0.19049759841793800774E-06    0.42574869185685315642E-08
Max change in any component of fa due to symmetrization =     0.1904977970E-06
Max relative change =     0.5992489051E-06
old  stress = 
change in fa due to symmetrization =    -0.42577331660353934240E-08   -0.66064849146840742833E-08    0.19049760319189701363E-06
change in fa due to symmetrization =     0.42576215886214185957E-08   -0.19049754157451914693E-06   -0.66065044546093076860E-08
change in fa due to symmetrization =    -0.42577337211469057365E-08    0.66064893555761727839E-08   -0.19049760768830026336E-06
change in fa due to symmetrization =    -0.19049773297696859231E-06   -0.66065568571360699934E-08    0.42577281700317826107E-08
change in fa due to symmetrization =     0.66065575232698847685E-08   -0.19049759891753836882E-06   -0.42574820335872232135E-08
change in fa due to symmetrization =     0.19049773564150385141E-06    0.66065604098497487939E-08    0.42577379399943993121E-08
change in fa due to symmetrization =    -0.66065544146454158181E-08    0.19049759492073548017E-06   -0.42574804792749887383E-08
change in fa due to symmetrization =     0.19049773164470096276E-06   -0.66065617421173783441E-08   -0.42577361636375599119E-08
change in fa due to symmetrization =    -0.66065644066526374445E-08   -0.19049760519029845796E-06    0.42574828107433404512E-08
change in fa due to symmetrization =    -0.19049773714030493466E-06    0.66065659609648719197E-08   -0.42577406045296584125E-08
   -0.1744411583E-01   -0.3583288180E-16   -0.6778974083E-16
   -0.3549406862E-16   -0.1744411583E-01   -0.2100641709E-16
   -0.6575686176E-16   -0.2089799687E-16   -0.1744411583E-01
stress with symmetrization = 
old  stress = 
   -0.1744411583E-01   -0.3583288180E-16   -0.6778974083E-16
   -0.3549406862E-16   -0.1744411583E-01   -0.2100641709E-16
   -0.6575686176E-16   -0.2089799687E-16   -0.1744411583E-01
stress with symmetrization = 
   -0.1744411583E-01    0.0000000000E+00    0.0000000000E+00
    0.0000000000E+00   -0.1744411583E-01    0.0000000000E+00
    0.0000000000E+00    0.0000000000E+00   -0.1744411583E-01
change in components of stress due to symmetrization = 
change in fa due to symmetrization =    -0.66066110360196717011E-08    0.42574845871001798514E-08   -0.19049772070900417020E-06
change in fa due to symmetrization =    -0.19049779398372379546E-06   -0.42576064895882836936E-08    0.66066097037520421509E-08
change in fa due to symmetrization =     0.66066234705175475028E-08    0.42574914704829325274E-08    0.19049771848855812095E-06
change in fa due to symmetrization =     0.19049778704482989156E-06   -0.42576031589192098181E-08   -0.66066032644584993250E-08
change in fa due to symmetrization =    -0.42576190351084619579E-08   -0.19049753890998388783E-06    0.66065066750553569364E-08
change in fa due to symmetrization =     0.42577376069274919246E-08    0.66064858028624939834E-08    0.19049760713318875105E-06
change in fa due to symmetrization =    -0.42576244752012826211E-08    0.19049753563482596519E-06   -0.66064997916726042604E-08
change in fa due to symmetrization =     0.42577268377641530606E-08   -0.66064920201114318843E-08   -0.19049760813238947321E-06
change in fa due to symmetrization =     0.42576190351084619579E-08    0.19049753868793928291E-06    0.66065073411891717114E-08
change in fa due to symmetrization =    -0.42577331660353934240E-08   -0.66064849146840742833E-08    0.19049760319189701363E-06
change in fa due to symmetrization =    -0.42577331660353934240E-08   -0.66064849146840742833E-08    0.19049760319189701363E-06
change in fa due to symmetrization =     0.42576215886214185957E-08   -0.19049754157451914693E-06   -0.66065044546093076860E-08
change in fa due to symmetrization =    -0.42577337211469057365E-08    0.66064893555761727839E-08   -0.19049760768830026336E-06
change in fa due to symmetrization =    -0.19049773297696859231E-06   -0.66065568571360699934E-08    0.42577281700317826107E-08
change in fa due to symmetrization =     0.66065575232698847685E-08   -0.19049759891753836882E-06   -0.42574820335872232135E-08
change in fa due to symmetrization =     0.19049773564150385141E-06    0.66065604098497487939E-08    0.42577379399943993121E-08
change in fa due to symmetrization =    -0.66065486414856877673E-08    0.19049773630763766619E-06   -0.42577402714627510250E-08
change in fa due to symmetrization =     0.19049759925060527621E-06   -0.66065553028238355182E-08   -0.42574914704829325274E-08
change in fa due to symmetrization =    -0.66065501957979222425E-08   -0.19049773769541644697E-06    0.42577306125224367861E-08
change in fa due to symmetrization =    -0.19049759986122793975E-06    0.66065704018569704203E-08   -0.42574977987541728908E-08
change in fa due to symmetrization =     0.66065501957979222425E-08    0.19049773419821391940E-06    0.42577332770576958865E-08
change in fa due to symmetrization =    -0.66066150328225603516E-08   -0.42574892500368832771E-08    0.19049771787793545741E-06
change in fa due to symmetrization =     0.42576190351084619579E-08    0.19049753868793928291E-06    0.66065073411891717114E-08
change in fa due to symmetrization =    -0.42577331660353934240E-08   -0.66064849146840742833E-08    0.19049760319189701363E-06
change in fa due to symmetrization =     0.42576215886214185957E-08   -0.19049754157451914693E-06   -0.66065044546093076860E-08
change in fa due to symmetrization =    -0.42577337211469057365E-08    0.66064893555761727839E-08   -0.19049760768830026336E-06
change in fa due to symmetrization =    -0.19049773297696859231E-06   -0.66065568571360699934E-08    0.42577281700317826107E-08
    0.1040834086E-16    0.3583288180E-16    0.6778974083E-16
    0.3549406862E-16    0.1110223025E-15    0.2100641709E-16
    0.6575686176E-16    0.2089799687E-16   -0.9367506770E-16
Max change in any component of stress due to symmetrization =     0.1110223025E-15
change in fa due to symmetrization =     0.42576215886214185957E-08   -0.19049754157451914693E-06   -0.66065044546093076860E-08
change in fa due to symmetrization =    -0.42577337211469057365E-08    0.66064893555761727839E-08   -0.19049760768830026336E-06
change in fa due to symmetrization =    -0.19049773297696859231E-06   -0.66065568571360699934E-08    0.42577281700317826107E-08
change in fa due to symmetrization =     0.66065575232698847685E-08   -0.19049759891753836882E-06   -0.42574820335872232135E-08
change in fa due to symmetrization =     0.19049773564150385141E-06    0.66065604098497487939E-08    0.42577379399943993121E-08
change in fa due to symmetrization =    -0.66065544146454158181E-08    0.19049759492073548017E-06   -0.42574804792749887383E-08
change in fa due to symmetrization =     0.19049773164470096276E-06   -0.66065617421173783441E-08   -0.42577361636375599119E-08
change in fa due to symmetrization =    -0.66065644066526374445E-08   -0.19049760519029845796E-06    0.42574828107433404512E-08
change in fa due to symmetrization =    -0.19049773714030493466E-06    0.66065659609648719197E-08   -0.42577406045296584125E-08
change in fa due to symmetrization =    -0.66065544146454158181E-08    0.19049759492073548017E-06   -0.42574804792749887383E-08
change in fa due to symmetrization =     0.19049773164470096276E-06   -0.66065617421173783441E-08   -0.42577361636375599119E-08
change in fa due to symmetrization =    -0.66065644066526374445E-08   -0.19049760519029845796E-06    0.42574828107433404512E-08
change in fa due to symmetrization =    -0.19049773714030493466E-06    0.66065659609648719197E-08   -0.42577406045296584125E-08
change in fa due to symmetrization =     0.66065644066526374445E-08    0.19049759841793800774E-06    0.42574869185685315642E-08
Max change in any component of fa due to symmetrization =     0.1904977970E-06
Max relative change =     0.5992489051E-06
change in fa due to symmetrization =    -0.19049779126367738513E-06    0.42576018266515802679E-08   -0.66066121462426963262E-08
change in fa due to symmetrization =     0.66066241366513622779E-08   -0.42574899161706980522E-08   -0.19049771865509157465E-06
change in fa due to symmetrization =     0.19049779204083350237E-06    0.42576131509264314445E-08    0.66066088155736224508E-08
change in fa due to symmetrization =    -0.66066110360196717011E-08    0.42574845871001798514E-08   -0.19049772070900417020E-06
change in fa due to symmetrization =    -0.19049779398372379546E-06   -0.42576064895882836936E-08    0.66066097037520421509E-08
change in fa due to symmetrization =     0.66066234705175475028E-08    0.42574914704829325274E-08    0.19049771848855812095E-06
change in fa due to symmetrization =     0.19049778704482989156E-06   -0.42576031589192098181E-08   -0.66066032644584993250E-08
change in fa due to symmetrization =     0.66065575232698847685E-08   -0.19049759891753836882E-06   -0.42574820335872232135E-08
change in fa due to symmetrization =     0.19049773564150385141E-06    0.66065604098497487939E-08    0.42577379399943993121E-08
change in fa due to symmetrization =    -0.66065544146454158181E-08    0.19049759492073548017E-06   -0.42574804792749887383E-08
change in fa due to symmetrization =     0.19049773164470096276E-06   -0.66065617421173783441E-08   -0.42577361636375599119E-08
change in fa due to symmetrization =    -0.66065644066526374445E-08   -0.19049760519029845796E-06    0.42574828107433404512E-08
change in fa due to symmetrization =    -0.19049773714030493466E-06    0.66065659609648719197E-08   -0.42577406045296584125E-08
change in fa due to symmetrization =     0.66065644066526374445E-08    0.19049759841793800774E-06    0.42574869185685315642E-08
Max change in any component of fa due to symmetrization =     0.1904977970E-06
Max relative change =     0.5992489051E-06
   -0.1744411583E-01    0.0000000000E+00    0.0000000000E+00
change in fa due to symmetrization =     0.66065644066526374445E-08    0.19049759841793800774E-06    0.42574869185685315642E-08
Max change in any component of fa due to symmetrization =     0.1904977970E-06
Max relative change =     0.5992489051E-06
old  stress = 
   -0.1744411583E-01   -0.3583288180E-16   -0.6778974083E-16
old  stress = 
   -0.1744411583E-01   -0.3583288180E-16   -0.6778974083E-16
   -0.3549406862E-16   -0.1744411583E-01   -0.2100641709E-16
   -0.6575686176E-16   -0.2089799687E-16   -0.1744411583E-01
stress with symmetrization = 
change in fa due to symmetrization =     0.19049754684807851390E-06   -0.42576138170602462196E-08   -0.66065073411891717114E-08
change in fa due to symmetrization =    -0.42576122627480117444E-08   -0.19049779698132596195E-06    0.66066268011866213783E-08
change in fa due to symmetrization =     0.42574817005203158260E-08    0.66066145887333505016E-08    0.19049773353208010462E-06
change in fa due to symmetrization =    -0.42576012715400679554E-08    0.19049779259594501468E-06   -0.66066163650901899018E-08
change in fa due to symmetrization =     0.42574795910965690382E-08   -0.66066194737146588523E-08   -0.19049773131163405537E-06
change in fa due to symmetrization =     0.42576141501271536072E-08    0.19049779470536876147E-06    0.66066276893650410784E-08
change in fa due to symmetrization =    -0.42574879177692537269E-08   -0.66066241366513622779E-08    0.19049772864709879627E-06
change in fa due to symmetrization =     0.42576113745695920443E-08   -0.19049779681479250826E-06   -0.66066261350528066032E-08
change in fa due to symmetrization =    -0.42574773706505197879E-08    0.66066137005549308014E-08   -0.19049772770340922534E-06
change in fa due to symmetrization =     0.66065644066526374445E-08    0.19049759841793800774E-06    0.42574869185685315642E-08
Max change in any component of fa due to symmetrization =     0.1904977970E-06
Max relative change =     0.5992489051E-06
old  stress = 
   -0.1744411583E-01   -0.3583288180E-16   -0.6778974083E-16
   -0.3549406862E-16   -0.1744411583E-01   -0.2100641709E-16
   -0.6575686176E-16   -0.2089799687E-16   -0.1744411583E-01
stress with symmetrization = 
   -0.1744411583E-01    0.0000000000E+00    0.0000000000E+00
    0.0000000000E+00   -0.1744411583E-01    0.0000000000E+00
change in fa due to symmetrization =    -0.42576190351084619579E-08   -0.19049753890998388783E-06    0.66065066750553569364E-08
change in fa due to symmetrization =     0.42577376069274919246E-08    0.66064858028624939834E-08    0.19049760713318875105E-06
change in fa due to symmetrization =    -0.42576244752012826211E-08    0.19049753563482596519E-06   -0.66064997916726042604E-08
change in fa due to symmetrization =     0.42577268377641530606E-08   -0.66064920201114318843E-08   -0.19049760813238947321E-06
change in fa due to symmetrization =     0.42576190351084619579E-08    0.19049753868793928291E-06    0.66065073411891717114E-08
change in fa due to symmetrization =    -0.42577331660353934240E-08   -0.66064849146840742833E-08    0.19049760319189701363E-06
change in fa due to symmetrization =     0.42576215886214185957E-08   -0.19049754157451914693E-06   -0.66065044546093076860E-08
change in fa due to symmetrization =    -0.42577337211469057365E-08    0.66064893555761727839E-08   -0.19049760768830026336E-06
change in fa due to symmetrization =    -0.19049773297696859231E-06   -0.66065568571360699934E-08    0.42577281700317826107E-08
   -0.3549406862E-16   -0.1744411583E-01   -0.2100641709E-16
   -0.6575686176E-16   -0.2089799687E-16   -0.1744411583E-01
stress with symmetrization = 
   -0.1744411583E-01    0.0000000000E+00    0.0000000000E+00
    0.0000000000E+00   -0.1744411583E-01    0.0000000000E+00
   -0.1744411583E-01    0.0000000000E+00    0.0000000000E+00
    0.0000000000E+00   -0.1744411583E-01    0.0000000000E+00
    0.0000000000E+00    0.0000000000E+00   -0.1744411583E-01
change in components of stress due to symmetrization = 
    0.1040834086E-16    0.3583288180E-16    0.6778974083E-16
change in fa due to symmetrization =    -0.19049759930611642744E-06   -0.66065617421173783441E-08    0.42574931358174694651E-08
change in fa due to symmetrization =     0.66065530823777862679E-08   -0.19049773908319522775E-06   -0.42577282810540850733E-08
change in fa due to symmetrization =     0.19049759641953656342E-06    0.66065657389202669947E-08    0.42574961334196359530E-08
change in fa due to symmetrization =    -0.66065486414856877673E-08    0.19049773630763766619E-06   -0.42577402714627510250E-08
old  stress = 
   -0.1744411583E-01   -0.3583288180E-16   -0.6778974083E-16
   -0.3549406862E-16   -0.1744411583E-01   -0.2100641709E-16
   -0.6575686176E-16   -0.2089799687E-16   -0.1744411583E-01
    0.0000000000E+00    0.0000000000E+00   -0.1744411583E-01
change in components of stress due to symmetrization = 
    0.1040834086E-16    0.3583288180E-16    0.6778974083E-16
    0.3549406862E-16    0.1110223025E-15    0.2100641709E-16
    0.6575686176E-16    0.2089799687E-16   -0.9367506770E-16
Max change in any component of stress due to symmetrization =     0.1110223025E-15
stress with symmetrization = 
   -0.1744411583E-01    0.0000000000E+00    0.0000000000E+00
    0.0000000000E+00   -0.1744411583E-01    0.0000000000E+00
change in fa due to symmetrization =     0.66065575232698847685E-08   -0.19049759891753836882E-06   -0.42574820335872232135E-08
    0.0000000000E+00    0.0000000000E+00   -0.1744411583E-01
change in components of stress due to symmetrization = 
    0.1040834086E-16    0.3583288180E-16    0.6778974083E-16
    0.3549406862E-16    0.1110223025E-15    0.2100641709E-16
    0.6575686176E-16    0.2089799687E-16   -0.9367506770E-16
Max change in any component of stress due to symmetrization =     0.1110223025E-15
    0.3549406862E-16    0.1110223025E-15    0.2100641709E-16
    0.6575686176E-16    0.2089799687E-16   -0.9367506770E-16
Max change in any component of stress due to symmetrization =     0.1110223025E-15
change in fa due to symmetrization =     0.19049759925060527621E-06   -0.66065553028238355182E-08   -0.42574914704829325274E-08
change in fa due to symmetrization =    -0.66065501957979222425E-08   -0.19049773769541644697E-06    0.42577306125224367861E-08
change in fa due to symmetrization =    -0.19049759986122793975E-06    0.66065704018569704203E-08   -0.42574977987541728908E-08
change in fa due to symmetrization =     0.66065501957979222425E-08    0.19049773419821391940E-06    0.42577332770576958865E-08
change in fa due to symmetrization =    -0.66066150328225603516E-08   -0.42574892500368832771E-08    0.19049771787793545741E-06
change in fa due to symmetrization =    -0.19049779126367738513E-06    0.42576018266515802679E-08   -0.66066121462426963262E-08
change in fa due to symmetrization =     0.19049773564150385141E-06    0.66065604098497487939E-08    0.42577379399943993121E-08
change in fa due to symmetrization =    -0.66065544146454158181E-08    0.19049759492073548017E-06   -0.42574804792749887383E-08
change in fa due to symmetrization =     0.19049773164470096276E-06   -0.66065617421173783441E-08   -0.42577361636375599119E-08
    0.0000000000E+00    0.0000000000E+00   -0.1744411583E-01
change in components of stress due to symmetrization = 
    0.1040834086E-16    0.3583288180E-16    0.6778974083E-16
change in fa due to symmetrization =     0.66066241366513622779E-08   -0.42574899161706980522E-08   -0.19049771865509157465E-06
change in fa due to symmetrization =     0.19049779204083350237E-06    0.42576131509264314445E-08    0.66066088155736224508E-08
change in fa due to symmetrization =    -0.66065644066526374445E-08   -0.19049760519029845796E-06    0.42574828107433404512E-08
change in fa due to symmetrization =    -0.19049773714030493466E-06    0.66065659609648719197E-08   -0.42577406045296584125E-08
change in fa due to symmetrization =     0.66065644066526374445E-08    0.19049759841793800774E-06    0.42574869185685315642E-08
    0.3549406862E-16    0.1110223025E-15    0.2100641709E-16
    0.6575686176E-16    0.2089799687E-16   -0.9367506770E-16
Max change in any component of stress due to symmetrization =     0.1110223025E-15
change in fa due to symmetrization =    -0.66066110360196717011E-08    0.42574845871001798514E-08   -0.19049772070900417020E-06
change in fa due to symmetrization =    -0.19049779398372379546E-06   -0.42576064895882836936E-08    0.66066097037520421509E-08
Max change in any component of fa due to symmetrization =     0.1904977970E-06
change in fa due to symmetrization =     0.66066234705175475028E-08    0.42574914704829325274E-08    0.19049771848855812095E-06
change in fa due to symmetrization =     0.19049778704482989156E-06   -0.42576031589192098181E-08   -0.66066032644584993250E-08
change in fa due to symmetrization =    -0.42576190351084619579E-08   -0.19049753890998388783E-06    0.66065066750553569364E-08
    0.0000000000E+00   -0.1744411583E-01    0.0000000000E+00
    0.0000000000E+00    0.0000000000E+00   -0.1744411583E-01
change in components of stress due to symmetrization = 
change in fa due to symmetrization =     0.42577376069274919246E-08    0.66064858028624939834E-08    0.19049760713318875105E-06
    0.1040834086E-16    0.3583288180E-16    0.6778974083E-16
    0.3549406862E-16    0.1110223025E-15    0.2100641709E-16
    0.6575686176E-16    0.2089799687E-16   -0.9367506770E-16
Max change in any component of stress due to symmetrization =     0.1110223025E-15
change in fa due to symmetrization =    -0.42576244752012826211E-08    0.19049753563482596519E-06   -0.66064997916726042604E-08
change in fa due to symmetrization =     0.42577268377641530606E-08   -0.66064920201114318843E-08   -0.19049760813238947321E-06
change in fa due to symmetrization =     0.42576190351084619579E-08    0.19049753868793928291E-06    0.66065073411891717114E-08
change in fa due to symmetrization =    -0.42577331660353934240E-08   -0.66064849146840742833E-08    0.19049760319189701363E-06
change in fa due to symmetrization =     0.42576215886214185957E-08   -0.19049754157451914693E-06   -0.66065044546093076860E-08
change in fa due to symmetrization =    -0.42577337211469057365E-08    0.66064893555761727839E-08   -0.19049760768830026336E-06
change in fa due to symmetrization =    -0.19049773297696859231E-06   -0.66065568571360699934E-08    0.42577281700317826107E-08
change in fa due to symmetrization =     0.66065575232698847685E-08   -0.19049759891753836882E-06   -0.42574820335872232135E-08
change in fa due to symmetrization =     0.19049773564150385141E-06    0.66065604098497487939E-08    0.42577379399943993121E-08
change in fa due to symmetrization =    -0.66065544146454158181E-08    0.19049759492073548017E-06   -0.42574804792749887383E-08
change in fa due to symmetrization =     0.19049773164470096276E-06   -0.66065617421173783441E-08   -0.42577361636375599119E-08
change in fa due to symmetrization =    -0.66065644066526374445E-08   -0.19049760519029845796E-06    0.42574828107433404512E-08
change in fa due to symmetrization =    -0.19049773714030493466E-06    0.66065659609648719197E-08   -0.42577406045296584125E-08
change in fa due to symmetrization =     0.66065644066526374445E-08    0.19049759841793800774E-06    0.42574869185685315642E-08
Max change in any component of fa due to symmetrization =     0.1904977970E-06
Max relative change =     0.5992489051E-06
old  stress = 
   -0.1744411583E-01   -0.3583288180E-16   -0.6778974083E-16
   -0.3549406862E-16   -0.1744411583E-01   -0.2100641709E-16
Max relative change =     0.5992489051E-06
old  stress = 
   -0.1744411583E-01   -0.3583288180E-16   -0.6778974083E-16
   -0.3549406862E-16   -0.1744411583E-01   -0.2100641709E-16
   -0.6575686176E-16   -0.2089799687E-16   -0.1744411583E-01
stress with symmetrization = 
   -0.1744411583E-01    0.0000000000E+00    0.0000000000E+00
    0.0000000000E+00   -0.1744411583E-01    0.0000000000E+00
    0.0000000000E+00    0.0000000000E+00   -0.1744411583E-01
change in components of stress due to symmetrization = 
    0.1040834086E-16    0.3583288180E-16    0.6778974083E-16
    0.3549406862E-16    0.1110223025E-15    0.2100641709E-16
    0.6575686176E-16    0.2089799687E-16   -0.9367506770E-16
Max change in any component of stress due to symmetrization =     0.1110223025E-15
   -0.6575686176E-16   -0.2089799687E-16   -0.1744411583E-01
stress with symmetrization = 
   -0.1744411583E-01    0.0000000000E+00    0.0000000000E+00
    0.0000000000E+00   -0.1744411583E-01    0.0000000000E+00
    0.0000000000E+00    0.0000000000E+00   -0.1744411583E-01
change in components of stress due to symmetrization = 
    0.1040834086E-16    0.3583288180E-16    0.6778974083E-16
    0.3549406862E-16    0.1110223025E-15    0.2100641709E-16
    0.6575686176E-16    0.2089799687E-16   -0.9367506770E-16
Max change in any component of stress due to symmetrization =     0.1110223025E-15

siesta: Atomic forces (eV/Ang):
----------------------------------------
   Tot    0.000000    0.000000    0.000000
----------------------------------------
   Max   33.587628
   Res   24.564121    sqrt( Sum f_i^2 / 3N )
----------------------------------------
   Max   33.587628    constrained

Stress-tensor-Voigt (kbar):    -2566.17    -2566.17    -2566.17        0.00        0.00        0.00
(Free)E + p*V (eV/cell)     -439.5006
Target enthalpy (eV/cell)     -644.5130

siesta: Program's energy decomposition (eV):
siesta: Ebs     =         0.000000
siesta: Eions   =       945.951434
siesta: Ena     =       552.235043
siesta: Ekin    =       606.891014
siesta: Enl     =      -341.136149
siesta: Eso     =         0.000000
siesta: Eldau   =         0.000000
siesta: DEna    =         0.000011
siesta: DUscf   =         0.000000
siesta: DUext   =         0.000000
siesta: Enegf   =         0.000000
siesta: Exc     =      -516.551479
siesta: eta*DQ  =         0.000000
siesta: Emadel  =         0.000000
siesta: Emeta   =         0.000000
siesta: Emolmec =         0.000000
siesta: Ekinion =         0.000000
siesta: Eharris =         0.000000
siesta: Etot    =      -644.512994
siesta: FreeEng =      -644.512994

siesta: Final energy (eV):
siesta:  Band Struct. =       0.000000
siesta:       Kinetic =     606.891014
siesta:       Hartree =     250.521493
siesta:       Eldau   =       0.000000
siesta:       Eso     =       0.000000
siesta:    Ext. field =       0.000000
siesta:       Enegf   =       0.000000
siesta:   Exch.-corr. =    -516.551479
siesta:  Ion-electron =   -1863.762559
siesta:       Ion-ion =     878.388537
siesta:       Ekinion =       0.000000
siesta:         Total =    -644.512994
siesta:         Fermi =       0.000000

siesta: Atomic forces (eV/Ang):
siesta:      1   33.587628   24.804312   -8.173463
siesta:      2   -8.173463   33.587628   24.804312
siesta:      3  -33.587628  -24.804312   -8.173463
siesta:      4  -33.587628   24.804312    8.173463
siesta:      5   24.804312   33.587628    8.173463
siesta:      6  -33.587628  -24.804312    8.173463
siesta:      7   24.804312   -8.173463   33.587628
siesta:      8   -8.173463  -33.587628  -24.804312
siesta:      9    8.173463  -33.587628   24.804312
siesta:     10    8.173463   24.804312   33.587628
siesta:     11    8.173463  -33.587628  -24.804312
siesta:     12   33.587628  -24.804312    8.173463
siesta:     13  -24.804312  -33.587628    8.173463
siesta:     14   33.587628   24.804312    8.173463
siesta:     15    8.173463   33.587628  -24.804312
siesta:     16  -24.804312   33.587628   -8.173463
siesta:     17   33.587628  -24.804312   -8.173463
siesta:     18   33.587628   -8.173463  -24.804312
siesta:     19   24.804312  -33.587628   -8.173463
siesta:     20  -24.804312  -33.587628   -8.173463
siesta:     21  -24.804312   -8.173463  -33.587628
siesta:     22   24.804312    8.173463  -33.587628
siesta:     23   33.587628    8.173463   24.804312
siesta:     24  -24.804312    8.173463  -33.587628
siesta:     25    8.173463  -24.804312  -33.587628
siesta:     26    8.173463   33.587628   24.804312
siesta:     27  -24.804312    8.173463   33.587628
siesta:     28   -8.173463  -24.804312   33.587628
siesta:     29   -8.173463   33.587628  -24.804312
siesta:     30   -8.173463   24.804312  -33.587628
siesta:     31   -8.173463  -24.804312  -33.587628
siesta:     32  -33.587628   24.804312   -8.173463
siesta:     33  -33.587628    8.173463  -24.804312
siesta:     34   24.804312   33.587628   -8.173463
siesta:     35   -8.173463  -33.587628   24.804312
siesta:     36  -33.587628   -8.173463   24.804312
siesta:     37   24.804312  -33.587628    8.173463
siesta:     38  -33.587628    8.173463   24.804312
siesta:     39  -24.804312   33.587628    8.173463
siesta:     40   24.804312    8.173463   33.587628
siesta:     41  -24.804312   -8.173463   33.587628
siesta:     42  -33.587628   -8.173463  -24.804312
siesta:     43   -8.173463   24.804312   33.587628
siesta:     44   24.804312   -8.173463  -33.587628
siesta:     45    8.173463   24.804312  -33.587628
siesta:     46    8.173463  -24.804312   33.587628
siesta:     47   33.587628   -8.173463   24.804312
siesta:     48   33.587628    8.173463  -24.804312
siesta: ----------------------------------------
siesta:    Tot    0.000000    0.000000    0.000000

siesta: Stress tensor (static) (eV/Ang**3):
siesta:    -1.601659    0.000000    0.000000
siesta:     0.000000   -1.601659    0.000000
siesta:     0.000000    0.000000   -1.601659

siesta: Cell volume =        128.000000 Ang**3

siesta: Pressure (static):
siesta:                Solid            Molecule  Units
siesta:           0.01744412         -0.00710649  Ry/Bohr**3
siesta:           1.60165939         -0.65249362  eV/Ang**3
siesta:        2566.16899106      -1045.42133448  kBar
(Free)E+ p_basis*V_orbitals  =        -634.009982
(Free)Eharris+ p_basis*V_orbitals  =          10.503012

>> End of run:   2-APR-2019  17:13:58
Job completed
