<?xml version="1.0" encoding="UTF-8" ?>
<psml version="1.1" energy_unit="hartree" length_unit="bohr"
 uuid="dfe37d80-4c76-11e8-6e88-12d1fffba5fe"
 xmlns="http://esl.cecam.org/PSML/ns/1.1">
<provenance creator="ONCVPSP-3.3.1+psml-3.3.1-75 (fully-relativistic)"
 date="2018-04-30">
<annotation action="semilocal-pseudopotential-generation"
 action-cont="projectors-generation" />
<input-file name="oncvpsp-input">
<![CDATA[# ATOM AND REFERENCE CONFIGURATION
# atsym  z    nc    nv    iexc   psfile
  Ge 32.00     5     3     3      both
#
#   n    l    f        energy (Ha)
    1    0    2.00    -4.0208135D+02
    2    0    2.00    -5.0326631D+01
    2    1    6.00    -4.4028123D+01
    3    0    2.00    -6.1641580D+00
    3    1    6.00    -4.2401914D+00
    3    2   10.00    -1.0861169D+00
    4    0    2.00    -4.3914362D-01
    4    1    2.00    -1.4893398D-01
#
# PSEUDOPOTENTIAL AND OPTIMIZATION
# lmax
    2
#
#   l,   rc,     ep,   ncon, nbas, qcut
    0    2.60   -0.00    4    8    5.00
    1    2.60   -0.00    4    8    5.20
    2    2.00    0.00    4    9    8.40
#
# LOCAL POTENTIAL
# lloc, lpopt,  rc(5),   dvloc0
    4    5      2.00       0.00
#
# VANDERBILT-KLEINMAN-BYLANDER PROJECTORs
# l, nproj, debl
    0    2    1.5000
    1    2    1.5000
    2    2    1.5000
#
# MODEL CORE CHARGE
# icmod, fcfact
    0    0.00
#
# LOG DERIVATIVE ANALYSIS
# epsh1, epsh2, depsh
   -2.00    5.00    0.02
#
# OUTPUT GRID
# rlmax, drl
    4.00    0.01
#
# TEST CONFIGURATIONS
# ncnf
    4
# nvcnf
#   n    l    f
    3
    3    2   10.00
    4    0    1.00
    4    1    2.00
#
    3
    3    2   10.00
    4    0    2.00
    4    1    1.00
#
    3
    3    2   10.00
    4    0    1.00
    4    1    1.00
#
    3
    3    2   10.00
    4    0    1.00
    4    2    1.00
#
]]>
</input-file>
</provenance>
<pseudo-atom-spec atomic-label="Ge" atomic-number="32" z-pseudo="14"
 flavor="Hamann&apos;s oncvpsp" relativity="dirac" spin-dft="no"
 core-corrections="no">
<annotation pseudo-energy="-77.8481512808" cutoff_hint_low="31"
 cutoff_hint_normal="32" cutoff_hint_high="34" />
<exchange-correlation>
<annotation oncvpsp-xc-code="3"
 oncvpsp-xc-type="LDA -- Ceperley-Alder Perdew-Zunger" />
<libxc-info number-of-functionals="2">
<functional name="Slater exchange (LDA)" type="exchange" id="1" />
<functional name="Perdew &amp; Zunger (LDA)" type="correlation" id="9" />
</libxc-info>
</exchange-correlation>
<valence-configuration total-valence-charge="14">
<shell n="3" l="d" occupation="10" />
<shell n="4" l="s" occupation="2" />
<shell n="4" l="p" occupation="2" />
</valence-configuration>
</pseudo-atom-spec>
<grid npts="457">
<annotation type="sampled from oncvpsp log grid"
 recipe="r(i:1..N) = r1*exp(a*(i-1)) + r=0; resampled"
 recipe-cont="r1: scale; a: step" scale="0.156250000000E-04"
 step="0.119285708653E-01" delta="0.500000000000E-02" rmax="44.0106814606" />
<grid-data>
  0.000000000000E+00  5.025601837514E-03  1.003824527536E-02  1.505896861607E-02
  2.029121445031E-02  2.545292972101E-02  3.080533800935E-02  3.597266729221E-02
  4.101646976877E-02  4.621291924683E-02  5.145031239924E-02  5.660204419540E-02
  6.226962009944E-02  6.769238310509E-02  7.271481084123E-02  7.810987696307E-02
  8.390522932815E-02  8.906182522060E-02  9.453533200659E-02  1.003452262006E-01
  1.065121812926E-01  1.117175309401E-01  1.171772708801E-01  1.229038334035E-01
  1.289102583787E-01  1.352102229449E-01  1.418180726557E-01  1.469850337403E-01
  1.523402464797E-01  1.578905695834E-01  1.636431116494E-01  1.696052402683E-01
  1.757845914596E-01  1.821890794514E-01  1.888269068167E-01  1.957065749787E-01
  2.028368950993E-01  2.102269993637E-01  2.153027200364E-01  2.205009889089E-01
  2.258247647852E-01  2.312770779061E-01  2.368610316751E-01  2.425798044239E-01
  2.484366512219E-01  2.544349057290E-01  2.605779820929E-01  2.668693768925E-01
  2.733126711282E-01  2.799115322600E-01  2.866697162948E-01  2.935910699251E-01
  3.006795327173E-01  3.079391393553E-01  3.153740219359E-01  3.229884123215E-01
  3.307866445486E-01  3.387731572945E-01  3.469524964043E-01  3.553293174774E-01
  3.639083885186E-01  3.726945926510E-01  3.816929308960E-01  3.909085250195E-01
  4.003466204476E-01  4.100125892517E-01  4.199119332066E-01  4.249508764051E-01
  4.300502869219E-01  4.352108903650E-01  4.404334210494E-01  4.457186221020E-01
  4.510672455672E-01  4.564800525140E-01  4.619578131442E-01  4.675013069019E-01
  4.731113225847E-01  4.787886584557E-01  4.845341223572E-01  4.903485318255E-01
  4.962327142074E-01  5.021875067779E-01  5.082137568592E-01  5.143123219415E-01
  5.204840698048E-01  5.267298786425E-01  5.330506371862E-01  5.394472448324E-01
  5.459206117704E-01  5.524716591117E-01  5.591013190210E-01  5.658105348493E-01
  5.726002612674E-01  5.794714644027E-01  5.864251219755E-01  5.934622234392E-01
  6.005837701205E-01  6.077907753619E-01  6.150842646662E-01  6.224652758422E-01
  6.299348591524E-01  6.374940774622E-01  6.451440063917E-01  6.528857344684E-01
  6.607203632820E-01  6.686490076414E-01  6.766727957331E-01  6.847928692819E-01
  6.930103837133E-01  7.013265083179E-01  7.097424264177E-01  7.182593355347E-01
  7.268784475611E-01  7.356009889318E-01  7.444282007990E-01  7.533613392086E-01
  7.624016752791E-01  7.715504953825E-01  7.808091013271E-01  7.901788105430E-01
  7.996609562695E-01  8.092568877447E-01  8.189679703977E-01  8.287955860424E-01
  8.387411330750E-01  8.488060266719E-01  8.589916989919E-01  8.692995993798E-01
  8.797311945724E-01  8.902879689072E-01  9.009714245341E-01  9.117830816285E-01
  9.227244786081E-01  9.337971723514E-01  9.450027384196E-01  9.563427712806E-01
  9.678188845360E-01  9.794327111504E-01  9.911859036842E-01  1.003080134528E+00
  1.015117096143E+00  1.027298501296E+00  1.039626083312E+00  1.052101596312E+00
  1.064726815468E+00  1.077503537253E+00  1.090433579700E+00  1.103518782657E+00
  1.116761008048E+00  1.130162140145E+00  1.143724085827E+00  1.157448774857E+00
  1.171338160155E+00  1.185394218077E+00  1.199618948694E+00  1.214014376078E+00
  1.228582548591E+00  1.243325539174E+00  1.258245445644E+00  1.273344390992E+00
  1.288624523684E+00  1.304088017968E+00  1.319737074184E+00  1.335573919074E+00
  1.351600806103E+00  1.367820015776E+00  1.384233855965E+00  1.400844662237E+00
  1.417654798184E+00  1.434666655762E+00  1.451882655631E+00  1.469305247499E+00
  1.486936910469E+00  1.504780153394E+00  1.522837515235E+00  1.541111565418E+00
  1.559604904203E+00  1.578320163053E+00  1.597260005010E+00  1.616427125070E+00
  1.635824250571E+00  1.655454141578E+00  1.675319591277E+00  1.695423426372E+00
  1.715768507488E+00  1.736357729578E+00  1.757194022333E+00  1.778280350601E+00
  1.799619714808E+00  1.821215151386E+00  1.843069733203E+00  1.865186570001E+00
  1.887568808841E+00  1.910219634547E+00  1.933142270162E+00  1.956339977404E+00
  1.979816057133E+00  2.003573849818E+00  2.027616736016E+00  2.051948136848E+00
  2.076571514490E+00  2.101490372664E+00  2.126708257136E+00  2.152228756222E+00
  2.178055501297E+00  2.204192167312E+00  2.230642473320E+00  2.257410183000E+00
  2.284499105196E+00  2.311913094458E+00  2.339656051592E+00  2.367731924211E+00
  2.396144707301E+00  2.424898443789E+00  2.453997225114E+00  2.483445191816E+00
  2.513246534117E+00  2.543405492527E+00  2.573926358437E+00  2.604813474738E+00
  2.636071236435E+00  2.667704091273E+00  2.699716540368E+00  2.732113138852E+00
  2.764898496518E+00  2.798077278477E+00  2.831654205818E+00  2.865634056288E+00
  2.900021664964E+00  2.934821924943E+00  2.970039788043E+00  3.005680265499E+00
  3.041748428685E+00  3.078249409829E+00  3.115188402747E+00  3.152570663580E+00
  3.190401511543E+00  3.228686329682E+00  3.267430565638E+00  3.306639732426E+00
  3.346319409215E+00  3.386475242125E+00  3.427112945031E+00  3.468238300371E+00
  3.509857159976E+00  3.551975445895E+00  3.594599151246E+00  3.637734341061E+00
  3.681387153154E+00  3.725563798992E+00  3.770270564579E+00  3.815513811354E+00
  3.861299977091E+00  3.907635576816E+00  3.954527203737E+00  4.001981530182E+00
  4.050005308545E+00  4.098605372247E+00  4.147788636714E+00  4.197562100355E+00
  4.247932845559E+00  4.298908039706E+00  4.350494936182E+00  4.402700875416E+00
  4.455533285921E+00  4.508999685352E+00  4.563107681576E+00  4.617864973755E+00
  4.673279353440E+00  4.729358705682E+00  4.786111010150E+00  4.843544342272E+00
  4.901666874379E+00  4.960486876872E+00  5.020012719394E+00  5.080252872027E+00
  5.141215906491E+00  5.202910497369E+00  5.265345423337E+00  5.328529568417E+00
  5.392471923238E+00  5.457181586317E+00  5.522667765353E+00  5.588939778537E+00
  5.656007055880E+00  5.723879140550E+00  5.792565690237E+00  5.862076478520E+00
  5.932421396262E+00  6.003610453017E+00  6.075653778453E+00  6.148561623795E+00
  6.222344363280E+00  6.297012495640E+00  6.372576645587E+00  6.449047565334E+00
  6.526436136118E+00  6.604753369752E+00  6.684010410189E+00  6.764218535111E+00
  6.845389157533E+00  6.927533827423E+00  7.010664233352E+00  7.094792204152E+00
  7.179929710602E+00  7.266088867129E+00  7.353281933535E+00  7.441521316737E+00
  7.530819572538E+00  7.621189407409E+00  7.712643680297E+00  7.805195404461E+00
  7.898857749315E+00  7.993644042306E+00  8.089567770814E+00  8.186642584064E+00
  8.284882295073E+00  8.384300882613E+00  8.484912493205E+00  8.586731443123E+00
  8.689772220441E+00  8.794049487086E+00  8.899578080931E+00  9.006373017902E+00
  9.114449494117E+00  9.223822888046E+00  9.334508762703E+00  9.446522867855E+00
  9.559881142270E+00  9.674599715977E+00  9.790694912569E+00  9.908183251519E+00
  1.002708145054E+01  1.014740642794E+01  1.026917530508E+01  1.039240540874E+01
  1.051711427365E+01  1.064331964493E+01  1.077103948067E+01  1.090029195444E+01
  1.103109545789E+01  1.116346860338E+01  1.129743022662E+01  1.143299938934E+01
  1.157019538202E+01  1.170903772660E+01  1.184954617932E+01  1.199174073347E+01
  1.213564162227E+01  1.228126932174E+01  1.242864455360E+01  1.257778828824E+01
  1.272872174770E+01  1.288146640868E+01  1.303604400558E+01  1.319247653365E+01
  1.335078625205E+01  1.351099568708E+01  1.367312763532E+01  1.383720516694E+01
  1.400325162895E+01  1.417129064849E+01  1.434134613628E+01  1.451344228991E+01
  1.468760359739E+01  1.486385484056E+01  1.504222109865E+01  1.522272775183E+01
  1.540540048485E+01  1.559026529067E+01  1.577734847416E+01  1.596667665585E+01
  1.615827677572E+01  1.635217609703E+01  1.654840221019E+01  1.674698303671E+01
  1.694794683315E+01  1.715132219515E+01  1.735713806149E+01  1.756542371823E+01
  1.777620880285E+01  1.798952330849E+01  1.820539758819E+01  1.842386235925E+01
  1.864494870756E+01  1.886868809205E+01  1.909511234915E+01  1.932425369734E+01
  1.955614474171E+01  1.979081847861E+01  2.002830830035E+01  2.026864799996E+01
  2.051187177596E+01  2.075801423727E+01  2.100711040812E+01  2.125919573301E+01
  2.151430608181E+01  2.177247775479E+01  2.203374748785E+01  2.229815245770E+01
  2.256573028719E+01  2.283651905064E+01  2.311055727925E+01  2.338788396660E+01
  2.366853857420E+01  2.395256103709E+01  2.423999176953E+01  2.453087167077E+01
  2.482524213082E+01  2.512314503639E+01  2.542462277682E+01  2.572971825015E+01
  2.603847486915E+01  2.635093656758E+01  2.666714780639E+01  2.698715358007E+01
  2.731099942303E+01  2.763873141610E+01  2.797039619310E+01  2.830604094741E+01
  2.864571343878E+01  2.898946200005E+01  2.933733554405E+01  2.968938357058E+01
  3.004565617342E+01  3.040620404750E+01  3.077107849607E+01  3.114033143803E+01
  3.151401541528E+01  3.189218360027E+01  3.227488980347E+01  3.266218848111E+01
  3.305413474289E+01  3.345078435980E+01  3.385219377212E+01  3.425842009738E+01
  3.466952113855E+01  3.508555539221E+01  3.550658205692E+01  3.593266104160E+01
  3.636385297410E+01  3.680021920979E+01  3.724182184031E+01  3.768872370239E+01
  3.814098838682E+01  3.859868024746E+01  3.906186441043E+01  3.953060678336E+01
  4.000497406476E+01  4.048503375354E+01  4.097085415858E+01  4.146250440848E+01
  4.196005446138E+01  4.246357511492E+01  4.297313801630E+01  4.348881567249E+01
  4.401068146056E+01
</grid-data>
</grid>
<valence-charge total-charge="14" is-unscreening-charge="yes"
 rescaled-to-z-pseudo="no">
<radfunc>
<data npts="457">
  1.084494459771E-01  1.084638068436E-01  1.085111267481E-01  1.086047160492E-01
  1.087751731603E-01  1.090498447255E-01  1.094927379859E-01  1.101275045969E-01
  1.110037308712E-01  1.122424665812E-01  1.139182248690E-01  1.160749176202E-01
  1.191463820020E-01  1.228960704131E-01  1.271931319601E-01  1.328234677391E-01
  1.402068328134E-01  1.480915748579E-01  1.579812639072E-01  1.703864480078E-01
  1.859453929571E-01  2.011923530881E-01  2.194599039440E-01  2.413386701728E-01
  2.675307356556E-01  2.988692120771E-01  3.363407425944E-01  3.691630172858E-01
  4.066539823884E-01  4.494544401645E-01  4.982869860055E-01  5.539649373844E-01
  6.174018628970E-01  6.896216489441E-01  7.717690040890E-01  8.651202538290E-01
  9.710942197180E-01  1.091262904631E+00  1.180111255107E+00  1.276592470385E+00
  1.381298074650E+00  1.494855567523E+00  1.617929048674E+00  1.751219558232E+00
  1.895465071422E+00  2.051440078044E+00  2.219954669181E+00  2.401853044853E+00
  2.598011347388E+00  2.809334716170E+00  3.036753450376E+00  3.281218157505E+00
  3.543693757357E+00  3.825152203864E+00  4.126563781428E+00  4.448886828626E+00
  4.793055740983E+00  5.159967106760E+00  5.550463836243E+00  5.965317156729E+00
  6.405206363546E+00  6.870696243042E+00  7.362212117922E+00  7.880012509909E+00
  8.424159470778E+00  8.994486701770E+00  9.590565664347E+00  9.898047689059E+00
  1.021166998339E+01  1.053128915957E+01  1.085673855779E+01  1.118782706246E+01
  1.152433792346E+01  1.186602758923E+01  1.221262455950E+01  1.256382826579E+01
  1.291930798893E+01  1.327870182330E+01  1.364161569821E+01  1.400762246796E+01
  1.437626108218E+01  1.474703584952E+01  1.511941580780E+01  1.549283421484E+01
  1.586668817454E+01  1.624033841342E+01  1.661310922336E+01  1.698428858660E+01
  1.735312849926E+01  1.771884551018E+01  1.808062149138E+01  1.843760465678E+01
  1.878891084530E+01  1.913362508405E+01  1.947080344649E+01  1.979947521984E+01
  2.011864539435E+01  2.042729748600E+01  2.072439670231E+01  2.100889345877E+01
  2.127972725121E+01  2.153583088670E+01  2.177613507230E+01  2.199957335798E+01
  2.220508742592E+01  2.239163271454E+01  2.255818436118E+01  2.270374344246E+01
  2.282734348660E+01  2.292805722649E+01  2.300500355695E+01  2.305735465379E+01
  2.308434320683E+01  2.308526971293E+01  2.305950976954E+01  2.300652130353E+01
  2.292585166490E+01  2.281714450969E+01  2.268014639211E+01  2.251471298179E+01
  2.232081481897E+01  2.209854251804E+01  2.184811132845E+01  2.156986496217E+01
  2.126427859754E+01  2.093196097228E+01  2.057365548250E+01  2.019024021005E+01
  1.978272680840E+01  1.935225818631E+01  1.890010493976E+01  1.842766049548E+01
  1.793643494430E+01  1.742804755876E+01  1.690421800751E+01  1.636675629831E+01
  1.581755150194E+01  1.525855933047E+01  1.469178866526E+01  1.411928715168E+01
  1.354312599911E+01  1.296538414529E+01  1.238813196315E+01  1.181341470552E+01
  1.124323589782E+01  1.067954090031E+01  1.012420086972E+01  9.578997353704E+00
  9.045607751311E+00  8.525591867060E+00  8.020379775767E+00  7.531261199567E+00
  7.059376577746E+00  6.605709984086E+00  6.171084016003E+00  5.756156745088E+00
  5.361420780653E+00  4.987204457237E+00  4.633675114819E+00  4.300844397784E+00
  3.988575456757E+00  3.696591897490E+00  3.424488284276E+00  3.171741973265E+00
  2.937726024473E+00  2.721722921416E+00  2.522938814750E+00  2.340518001768E+00
  2.173557357207E+00  2.021120442551E+00  1.882251040520E+00  1.755985887893E+00
  1.641366412367E+00  1.537449316336E+00  1.443315890991E+00  1.358079986182E+00
  1.280894603490E+00  1.210957120187E+00  1.147513188699E+00  1.089859388468E+00
  1.037344733671E+00  9.893711603288E-01  9.453931296103E-01  9.049164904973E-01
  8.674967449480E-01  8.327368528304E-01  8.002847032578E-01  7.698303646419E-01
  7.411032090513E-01  7.138689885692E-01  6.879269234554E-01  6.631068450559E-01
  6.392664213897E-01  6.162884807634E-01  5.940784389944E-01  5.725618290204E-01
  5.516819278440E-01  5.313974747953E-01  5.116799180936E-01  4.925086723648E-01
  4.738660510784E-01  4.557363180817E-01  4.381061090847E-01  4.209638320490E-01
  4.042994642529E-01  3.881043032016E-01  3.723707359676E-01  3.570920225493E-01
  3.422620938839E-01  3.278753650668E-01  3.139265641517E-01  3.004105767337E-01
  2.873223063584E-01  2.746565506505E-01  2.624078929224E-01  2.505706089141E-01
  2.391385882284E-01  2.281052699718E-01  2.174635920590E-01  2.072059536981E-01
  1.973242247358E-01  1.878099878681E-01  1.786548322333E-01  1.698503801336E-01
  1.613882555228E-01  1.532600901031E-01  1.454575191978E-01  1.379721817278E-01
  1.307957219063E-01  1.239197925754E-01  1.173360599556E-01  1.110362095843E-01
  1.050119532386E-01  9.925503664813E-02  9.375724782147E-02  8.851042582109E-02
  8.350646983657E-02  7.873734841957E-02  7.419510875680E-02  6.987188587032E-02
  6.575991164652E-02  6.185152360722E-02  5.813917334734E-02  5.461543457463E-02
  5.127301069663E-02  4.810474191021E-02  4.510361175709E-02  4.226275311805E-02
  3.957545362521E-02  3.703516047967E-02  3.463548466773E-02  3.237020457492E-02
  3.023326900236E-02  2.821879959469E-02  2.632109269283E-02  2.453462062859E-02
  2.285403248121E-02  2.127415431846E-02  1.978998894734E-02  1.839671520092E-02
  1.708968678932E-02  1.586443074402E-02  1.471664548491E-02  1.364219854028E-02
  1.263712394978E-02  1.169761938016E-02  1.082004298332E-02  1.000091002551E-02
  9.236889315660E-03  8.524799460019E-03  7.861604969140E-03  7.244412242006E-03
  6.670465450977E-03  6.137142349815E-03  5.641950025733E-03  5.182520614987E-03
  4.756607000166E-03  4.362078505885E-03  3.996916608239E-03  3.659210671976E-03
  3.347153728036E-03  3.059038302806E-03  2.793252309179E-03  2.548275008371E-03
  2.322673050244E-03  2.115096598900E-03  1.924275549241E-03  1.749015839309E-03
  1.588195862314E-03  1.440762981481E-03  1.305730150111E-03  1.182172638576E-03
  1.069224869364E-03  9.660773607401E-04  8.719737791238E-04  7.862080998146E-04
  7.081218753435E-04  6.371016103817E-04  5.725762418498E-04  5.140147226221E-04
  4.609237070056E-04  4.128453359996E-04  3.693551201875E-04  3.300599179954E-04
  2.945960069526E-04  2.626272455131E-04  2.338433229390E-04  2.079580947046E-04
  1.847080008527E-04  1.638505647151E-04  1.451629694056E-04  1.284407094929E-04
  1.134963152702E-04  1.001581470523E-04  8.826925695057E-05  7.768631559843E-05
  6.827860132746E-05  5.992704932179E-05  5.252335831647E-05  4.596915243318E-05
  4.017519577774E-05  3.506065748250E-05  3.055242490249E-05  2.658446271437E-05
  2.309721571682E-05  2.003705317672E-05  1.735575261262E-05  1.501002095668E-05
  1.296105108803E-05  1.117411178392E-05  9.618169190408E-06  8.265537971065E-06
  7.091560351224E-06  6.074311334890E-06  5.194328433144E-06  4.434364305285E-06
  3.779160777443E-06  3.215242767617E-06  2.730730710770E-06  2.315170142569E-06
  1.959377165309E-06  1.655298584274E-06  1.395885567000E-06  1.174979741386E-06
  9.872107111269E-07  8.279040282517E-07  6.929987224916E-07  5.789735455388E-07
  4.827811448425E-07  4.017894362618E-07  3.337294975261E-07  2.766493549366E-07
  2.288730839869E-07  1.889646905205E-07  1.556962826356E-07  1.280200847635E-07
  1.050438841858E-07  8.600953672301E-08  7.027419245493E-08  5.729393416073E-08
  4.660955075404E-08  3.783419539541E-08  3.064270327503E-08  2.476236735152E-08
  1.996499170239E-08  1.606006168240E-08  1.288888789752E-08  1.031959718550E-08
  8.242858452178E-09  6.568244446334E-09  5.221142467352E-09  4.140137686722E-09
  3.274802323260E-09  2.583832434885E-09  2.033481665835E-09  1.596248001502E-09
  1.249775513607E-09  9.759383012242E-10  7.600784184803E-10  5.903735929693E-10
  4.573140405398E-10  3.532707278969E-10  2.721400755283E-10  2.090523764757E-10
  1.601331738088E-10  1.223085296797E-10  9.314656605924E-11  7.072889267147E-11
  5.354658890242E-11  4.041629817012E-11  3.041274720540E-11  2.281463813083E-11
  1.706139504318E-11  1.271869379152E-11  9.451076698535E-12  7.000264296906E-12
  5.168033436378E-12  3.802743713138E-12  2.788769249161E-12  2.038236537627E-12
  1.484586593657E-12  1.077575439706E-12  7.794047587262E-13  5.617375202356E-13
  4.034041712221E-13  2.886457961722E-13  2.057733287917E-13  1.461479676045E-13
  1.034086683290E-13  7.288899377615E-14  5.117854575722E-14  3.579437561339E-14
  2.493573291789E-14  1.730172403488E-14  1.195626818895E-14  8.228483808378E-15
  5.639498869975E-15  3.848895262792E-15  2.615680245007E-15  1.769962320856E-15
  1.192481799232E-15  7.998805806293E-16  5.341475167236E-16  3.550885519557E-16
  2.349784152692E-16  1.547787263770E-16  1.014757863536E-16  6.621509351721E-17
  4.300017503403E-17  2.778926211801E-17  1.787112646673E-17  1.143586788621E-17
  7.281189667246E-18  4.612376697185E-18  2.906758528114E-18  1.822327894805E-18
  9.364790352772E-19  5.819973890217E-19  0.000000000000E+00  0.000000000000E+00
  0.000000000000E+00  0.000000000000E+00  0.000000000000E+00  0.000000000000E+00
  0.000000000000E+00  0.000000000000E+00  0.000000000000E+00  0.000000000000E+00
  0.000000000000E+00  0.000000000000E+00  0.000000000000E+00  0.000000000000E+00
  0.000000000000E+00  0.000000000000E+00  0.000000000000E+00  0.000000000000E+00
  0.000000000000E+00
</data>
</radfunc>
</valence-charge>
<semilocal-potentials set="scalar_relativistic">
<slps n="4" l="s" rc="2.60481347474">
<radfunc>
<data npts="256">
 -8.237992712832E+00 -8.238478613042E+00 -8.239927941102E+00 -8.242335369093E+00
 -8.245844041569E+00 -8.250279945352E+00 -8.255867178218E+00 -8.262174659539E+00
 -8.269152971470E+00 -8.277141328995E+00 -8.285957187920E+00 -8.295319942878E+00
 -8.306342616904E+00 -8.317530125226E+00 -8.328395542230E+00 -8.340554269330E+00
 -8.354124058208E+00 -8.366603931603E+00 -8.380240558974E+00 -8.395134741756E+00
 -8.411407132771E+00 -8.425514822307E+00 -8.440687308680E+00 -8.457029153560E+00
 -8.474661471251E+00 -8.493723038611E+00 -8.514370889482E+00 -8.531002575706E+00
 -8.548705395536E+00 -8.567565365480E+00 -8.587673629244E+00 -8.609126081438E+00
 -8.632022921097E+00 -8.656468137065E+00 -8.682568924160E+00 -8.710435025818E+00
 -8.740177995811E+00 -8.771910368890E+00 -8.794226133550E+00 -8.817509291908E+00
 -8.841792653229E+00 -8.867108513425E+00 -8.893488476272E+00 -8.920963260072E+00
 -8.949562488806E+00 -8.979314466846E+00 -9.010245936311E+00 -9.042381816216E+00
 -9.075744922606E+00 -9.110355668929E+00 -9.146249898132E+00 -9.183342348506E+00
 -9.221722099901E+00 -9.261396683294E+00 -9.302369424095E+00 -9.344639014319E+00
 -9.388199063145E+00 -9.433037626327E+00 -9.479136715176E+00 -9.526471786184E+00
 -9.575011212700E+00 -9.624715740527E+00 -9.675537929787E+00 -9.727421586002E+00
 -9.780301183980E+00 -9.834101288901E+00 -9.888735979849E+00 -9.916336437489E+00
 -9.944108282056E+00 -9.972037574008E+00 -1.000010961526E+01 -1.002830893347E+01
 -1.005661926688E+01 -1.008502355000E+01 -1.011350390002E+01 -1.014204160415E+01
 -1.017061710809E+01 -1.019921000557E+01 -1.022779902924E+01 -1.025636204300E+01
 -1.028487603582E+01 -1.031331711742E+01 -1.034166051572E+01 -1.036988057637E+01
 -1.039795076456E+01 -1.042584366910E+01 -1.045353100926E+01 -1.048098364417E+01
 -1.050817158540E+01 -1.053506401248E+01 -1.056162929199E+01 -1.058783500003E+01
 -1.061364794853E+01 -1.063903421549E+01 -1.066395917932E+01 -1.068838755756E+01
 -1.071228345002E+01 -1.073561038657E+01 -1.075833137980E+01 -1.078040898246E+01
 -1.080180535003E+01 -1.082248230835E+01 -1.084240142631E+01 -1.086152409384E+01
 -1.087981160486E+01 -1.089722524541E+01 -1.091372638664E+01 -1.092927658262E+01
 -1.094383767263E+01 -1.095737188778E+01 -1.096984196148E+01 -1.098121124344E+01
 -1.099144381664E+01 -1.100050461676E+01 -1.100835955339E+01 -1.101497563232E+01
 -1.102032107807E+01 -1.102436545586E+01 -1.102707979201E+01 -1.102843669171E+01
 -1.102841045309E+01 -1.102697717649E+01 -1.102411486755E+01 -1.101980353300E+01
 -1.101402526773E+01 -1.100676433184E+01 -1.099800721634E+01 -1.098774269614E+01
 -1.097596186900E+01 -1.096265817913E+01 -1.094782742438E+01 -1.093146774574E+01
 -1.091357959817E+01 -1.089416570205E+01 -1.087323097439E+01 -1.085078243939E+01
 -1.082682911807E+01 -1.080138189696E+01 -1.077445337613E+01 -1.074605769709E+01
 -1.071621035148E+01 -1.068492797189E+01 -1.065222810623E+01 -1.061812897794E+01
 -1.058264923426E+01 -1.054580768551E+01 -1.050762303868E+01 -1.046811362895E+01
 -1.042729715350E+01 -1.038519041201E+01 -1.034180905908E+01 -1.029716737396E+01
 -1.025127805354E+01 -1.020415203480E+01 -1.015579835348E+01 -1.010622404565E+01
 -1.005543409929E+01 -1.000343146287E+01 -9.950217117606E+00 -9.895790219682E+00
 -9.840148317610E+00 -9.783287648597E+00 -9.725203515672E+00 -9.665890744592E+00
 -9.605300149791E+00 -9.543458703702E+00 -9.480380418410E+00 -9.416064208189E+00
 -9.350511621222E+00 -9.283727518767E+00 -9.215720707750E+00 -9.146504494515E+00
 -9.076097128726E+00 -9.004522110665E+00 -8.931808342275E+00 -8.857990111929E+00
 -8.783106914091E+00 -8.707203116510E+00 -8.630327498096E+00 -8.552532688750E+00
 -8.473874547279E+00 -8.394411514779E+00 -8.314203978476E+00 -8.233313675806E+00
 -8.151803161243E+00 -8.069735350337E+00 -7.987173147443E+00 -7.904179156623E+00
 -7.820815469690E+00 -7.737143521559E+00 -7.653224000975E+00 -7.569116804118E+00
 -7.484881019226E+00 -7.400574931954E+00 -7.316256043286E+00 -7.231981094261E+00
 -7.147806094201E+00 -7.063786351464E+00 -6.979976639058E+00 -6.896431887811E+00
 -6.813208097865E+00 -6.730362381815E+00 -6.647952687617E+00 -6.566037784303E+00
 -6.484677178741E+00 -6.403931079427E+00 -6.323860401813E+00 -6.244526826996E+00
 -6.165992924354E+00 -6.088322348128E+00 -6.011580116740E+00 -5.935832981444E+00
 -5.861149887751E+00 -5.787602528627E+00 -5.715265982746E+00 -5.644219423846E+00
 -5.574546878543E+00 -5.506337999764E+00 -5.439688811454E+00 -5.374702367542E+00
 -5.310969367097E+00 -5.247988394144E+00 -5.185754982428E+00 -5.124260159244E+00
 -5.063495076207E+00 -5.003451001144E+00 -4.944119316092E+00 -4.885491514546E+00
 -4.827559198984E+00 -4.770314078544E+00 -4.713747966849E+00 -4.657852779964E+00
 -4.602620534474E+00 -4.548043345668E+00 -4.494113425822E+00 -4.440823082568E+00
 -4.388164717348E+00 -4.336130823931E+00 -4.284713987007E+00 -4.233906880829E+00
 -4.183702267912E+00 -4.134092997781E+00 -4.085072005760E+00 -4.036632311802E+00
 -3.988767019354E+00 -3.941469314253E+00 -3.894732463652E+00 -3.848549814975E+00
 -3.802914794897E+00 -3.757820908338E+00 -3.713261737494E+00 -3.669230940870E+00
 -3.625722252345E+00 -3.582729480244E+00 -3.540246506434E+00 -3.498267285428E+00
</data>
</radfunc>
</slps>
<slps n="4" l="p" rc="2.60481347474">
<radfunc>
<data npts="256">
 -1.313412148428E+01 -1.313415413838E+01 -1.313424874325E+01 -1.313439663282E+01
 -1.313459118358E+01 -1.313480080085E+01 -1.313500559242E+01 -1.313515507995E+01
 -1.313521621838E+01 -1.313514717366E+01 -1.313489270392E+01 -1.313441071869E+01
 -1.313355499536E+01 -1.313235950767E+01 -1.313087778836E+01 -1.312884295381E+01
 -1.312610600916E+01 -1.312316581211E+01 -1.311951015055E+01 -1.311502384561E+01
 -1.310958962635E+01 -1.310448244009E+01 -1.309863945224E+01 -1.309200961424E+01
 -1.308454764035E+01 -1.307621492106E+01 -1.306698005006E+01 -1.305944711329E+01
 -1.305138554309E+01 -1.304279001599E+01 -1.303365724395E+01 -1.302398582307E+01
 -1.301377607571E+01 -1.300302989541E+01 -1.299175060146E+01 -1.297994280648E+01
 -1.296761229760E+01 -1.295476592853E+01 -1.294591891758E+01 -1.293684862551E+01
 -1.292755774053E+01 -1.291804908922E+01 -1.290832561712E+01 -1.289839036591E+01
 -1.288824644611E+01 -1.287789700413E+01 -1.286734518277E+01 -1.285659407362E+01
 -1.284564666026E+01 -1.283450575069E+01 -1.282319204960E+01 -1.281160787151E+01
 -1.279983284007E+01 -1.278786825514E+01 -1.277571469615E+01 -1.276337185529E+01
 -1.275083834762E+01 -1.273811149651E+01 -1.272518709244E+01 -1.271205912357E+01
 -1.269871947664E+01 -1.268515760699E+01 -1.267136017685E+01 -1.265731066169E+01
 -1.264298892478E+01 -1.262837076115E+01 -1.261342741282E+01 -1.260582343744E+01
 -1.259812505850E+01 -1.259032716995E+01 -1.258242428193E+01 -1.257441050342E+01
 -1.256627952485E+01 -1.255802460069E+01 -1.254963853215E+01 -1.254111365011E+01
 -1.253244179834E+01 -1.252361431708E+01 -1.251462202721E+01 -1.250545521506E+01
 -1.249610361798E+01 -1.248655641094E+01 -1.247680219416E+01 -1.246682898206E+01
 -1.245662419364E+01 -1.244617464448E+01 -1.243546654062E+01 -1.242448547442E+01
 -1.241321642267E+01 -1.240164374720E+01 -1.238975119806E+01 -1.237752191967E+01
 -1.236493846005E+01 -1.235198278340E+01 -1.233863628619E+01 -1.232487981705E+01
 -1.231069370064E+01 -1.229605776562E+01 -1.228095137705E+01 -1.226535347325E+01
 -1.224924260732E+01 -1.223259699350E+01 -1.221539455830E+01 -1.219761299661E+01
 -1.217922983280E+01 -1.216022248671E+01 -1.214056834446E+01 -1.212024483412E+01
 -1.209922950586E+01 -1.207750011650E+01 -1.205503471809E+01 -1.203181175014E+01
 -1.200781013520E+01 -1.198300937703E+01 -1.195738966104E+01 -1.193093195616E+01
 -1.190361811743E+01 -1.187543098848E+01 -1.184635450308E+01 -1.181637378463E+01
 -1.178547524259E+01 -1.175364666484E+01 -1.172087730459E+01 -1.168715796079E+01
 -1.165248105063E+01 -1.161684067292E+01 -1.158023266103E+01 -1.154265462397E+01
 -1.150410597455E+01 -1.146458794308E+01 -1.142410357576E+01 -1.138265771633E+01
 -1.134025697027E+01 -1.129690965062E+01 -1.125262570466E+01 -1.120741662110E+01
 -1.116129531748E+01 -1.111427600770E+01 -1.106637405006E+01 -1.101760577632E+01
 -1.096798830264E+01 -1.091753932370E+01 -1.086627689161E+01 -1.081421918158E+01
 -1.076138424672E+01 -1.070778976496E+01 -1.065345278105E+01 -1.059838944762E+01