PARALLEL version
NetCDF support

* Running on    4 nodes in parallel
>> Start of run:   3-OCT-2015   3:20:37

                           ************************ 
                           *  WELCOME TO TBTrans  * 
                           ************************ 

reinit: Reading from standard input
************************** Dump of input data file ****************************
SolutionMethod        Transiesta
SystemName  Au 100 with gold chain
SystemLabel au_100
==================================================
==================================================
# SPECIES AND BASIS
# Number of species
NumberOfSpecies 1
%block ChemicalSpeciesLabel
  1  79 Au
%endblock ChemicalSpeciesLabel
PAO.BasisSize    SZP
PAO.EnergyShift  0.005 Ry
XC.functional   GGA
XC.authors      PBE
==================================================
==================================================
# K-points
%block kgrid_Monkhorst_Pack
 2    0    0    0.0
 0    2    0    0.0
 0    0    2    0.0
%endblock kgrid_Monkhorst_Pack
==================================================
==================================================
# Structure
NumberOfAtoms 112
LatticeConstant 1.0 Ang
%block LatticeVectors
     8.651160000      0.000000000      0.000000000
     0.000000000      8.651160000      0.000000000
     0.000000000      0.000000000     32.625600000
%endblock LatticeVectors
AtomicCoordinatesFormat  Ang
%block AtomicCoordinatesAndAtomicSpecies
     0.000000000      0.000000000      0.000000000 1 # 1. layer
     2.883720000      0.000000000      0.000000000 1
     5.767440000      0.000000000      0.000000000 1
     0.000000000      2.883720000      0.000000000 1
     2.883720000      2.883720000      0.000000000 1
     5.767440000      2.883720000      0.000000000 1
     0.000000000      5.767440000      0.000000000 1
     2.883720000      5.767440000      0.000000000 1
     5.767440000      5.767440000      0.000000000 1
     1.441860000      1.441860000      2.039100000 1 # 2. layer
     4.325580000      1.441860000      2.039100000 1
     7.209300000      1.441860000      2.039100000 1
     1.441860000      4.325580000      2.039100000 1
     4.325580000      4.325580000      2.039100000 1
     7.209300000      4.325580000      2.039100000 1
     1.441860000      7.209300000      2.039100000 1
     4.325580000      7.209300000      2.039100000 1
     7.209300000      7.209300000      2.039100000 1
     0.000000000      0.000000000      4.078200000 1 # 3. layer
     2.883720000      0.000000000      4.078200000 1
     5.767440000      0.000000000      4.078200000 1
     0.000000000      2.883720000      4.078200000 1
     2.883720000      2.883720000      4.078200000 1
     5.767440000      2.883720000      4.078200000 1
     0.000000000      5.767440000      4.078200000 1
     2.883720000      5.767440000      4.078200000 1
     5.767440000      5.767440000      4.078200000 1
     1.441860000      1.441860000      6.117300000 1 # 4. layer
     4.325580000      1.441860000      6.117300000 1
     7.209300000      1.441860000      6.117300000 1
     1.441860000      4.325580000      6.117300000 1
     4.325580000      4.325580000      6.117300000 1
     7.209300000      4.325580000      6.117300000 1
     1.441860000      7.209300000      6.117300000 1
     4.325580000      7.209300000      6.117300000 1
     7.209300000      7.209300000      6.117300000 1
     0.000000000      0.000000000      8.156400000 1 # 5. layer
     2.883720000      0.000000000      8.156400000 1
     5.767440000      0.000000000      8.156400000 1
     0.000000000      2.883720000      8.156400000 1
     2.883720000      2.883720000      8.156400000 1
     5.767440000      2.883720000      8.156400000 1
     0.000000000      5.767440000      8.156400000 1
     2.883720000      5.767440000      8.156400000 1
     5.767440000      5.767440000      8.156400000 1
     1.441860000      1.441860000     10.195500000 1 # 6. layer
     4.325580000      1.441860000     10.195500000 1
     7.209300000      1.441860000     10.195500000 1
     1.441860000      4.325580000     10.195500000 1
     4.325580000      4.325580000     10.195500000 1
     7.209300000      4.325580000     10.195500000 1
     1.441860000      7.209300000     10.195500000 1
     4.325580000      7.209300000     10.195500000 1
     7.209300000      7.209300000     10.195500000 1
     0.000000000      0.000000000     12.234600000 1 # 7. layer
     1.441860000      1.441860000     14.273700000 1 # 8. layer
     0.000000000      0.000000000     16.312800000 1 # 9. layer
     1.441860000      1.441860000     18.351900000 1 # 10. layer
     0.000000000      0.000000000     20.391000000 1 # 11. layer
     2.883720000      0.000000000     20.391000000 1
     5.767440000      0.000000000     20.391000000 1
     0.000000000      2.883720000     20.391000000 1
     2.883720000      2.883720000     20.391000000 1
     5.767440000      2.883720000     20.391000000 1
     0.000000000      5.767440000     20.391000000 1
     2.883720000      5.767440000     20.391000000 1
     5.767440000      5.767440000     20.391000000 1
     1.441860000      1.441860000     22.430100000 1 # 12. layer
     4.325580000      1.441860000     22.430100000 1
     7.209300000      1.441860000     22.430100000 1
     1.441860000      4.325580000     22.430100000 1
     4.325580000      4.325580000     22.430100000 1
     7.209300000      4.325580000     22.430100000 1
     1.441860000      7.209300000     22.430100000 1
     4.325580000      7.209300000     22.430100000 1
     7.209300000      7.209300000     22.430100000 1
     0.000000000      0.000000000     24.469200000 1 # 13. layer
     2.883720000      0.000000000     24.469200000 1
     5.767440000      0.000000000     24.469200000 1
     0.000000000      2.883720000     24.469200000 1
     2.883720000      2.883720000     24.469200000 1
     5.767440000      2.883720000     24.469200000 1
     0.000000000      5.767440000     24.469200000 1
     2.883720000      5.767440000     24.469200000 1
     5.767440000      5.767440000     24.469200000 1
     1.441860000      1.441860000     26.508300000 1 # 14. layer
     4.325580000      1.441860000     26.508300000 1
     7.209300000      1.441860000     26.508300000 1
     1.441860000      4.325580000     26.508300000 1
     4.325580000      4.325580000     26.508300000 1
     7.209300000      4.325580000     26.508300000 1
     1.441860000      7.209300000     26.508300000 1
     4.325580000      7.209300000     26.508300000 1
     7.209300000      7.209300000     26.508300000 1
     0.000000000      0.000000000     28.547400000 1 # 15. layer
     2.883720000      0.000000000     28.547400000 1
     5.767440000      0.000000000     28.547400000 1
     0.000000000      2.883720000     28.547400000 1
     2.883720000      2.883720000     28.547400000 1
     5.767440000      2.883720000     28.547400000 1
     0.000000000      5.767440000     28.547400000 1
     2.883720000      5.767440000     28.547400000 1
     5.767440000      5.767440000     28.547400000 1
     1.441860000      1.441860000     30.586500000 1 # 16. layer
     4.325580000      1.441860000     30.586500000 1
     7.209300000      1.441860000     30.586500000 1
     1.441860000      4.325580000     30.586500000 1
     4.325580000      4.325580000     30.586500000 1
     7.209300000      4.325580000     30.586500000 1
     1.441860000      7.209300000     30.586500000 1
     4.325580000      7.209300000     30.586500000 1
     7.209300000      7.209300000     30.586500000 1
%endblock AtomicCoordinatesAndAtomicSpecies
==================================================
==================================================
# SCF variables
DM.MixSCF1   T
MaxSCFIterations      300           # Maximum number of SCF iter
DM.MixingWeight       0.05          # New DM amount for next SCF cycle
DM.Tolerance          1.d-4         # Tolerance in maximum difference
DM.UseSaveDM          true          # to use continuation files
DM.NumberPulay        5
TS.MixH               yes
==================================================
==================================================
# MD variables
MD.FinalTimeStep 1
MD.TypeOfRun CG
MD.NumCGsteps     000
MD.UseSaveXV      .true.
==================================================
==================================================
# Output variables
WriteMullikenPop                1
WriteBands                      .false.
SaveRho                         .false.
SaveDeltaRho                    .false.
SaveHS                          .false.
SaveElectrostaticPotential      True
SaveTotalPotential              no
WriteCoorXmol                   .true.
WriteMDXmol                     .true.
WriteMDhistory                  .false.
WriteEigenvalues                yes
==================================================
==================================================
# Transmission
TS.TBT.NPoints      101
TS.TBT.Emin        -0.5 eV
TS.TBT.Emax         0.5 eV
TS.TBT.NEigen              9
# Bias voltage
TS.Voltage 0.0 eV
# Transiesta: electrode definition:
# LEFT ELECTRODE
TS.HSFileLeft ./elec_au_100.TSHS
TS.ReplicateA1Left    3
TS.ReplicateA2Left    3
TS.NumUsedAtomsLeft   4
TS.BufferAtomsLeft    0
# RIGHT ELECTRODE
TS.HSFileRight ./elec_au_100.TSHS
TS.ReplicateA1Right   3
TS.ReplicateA2Right   3
TS.NumUsedAtomsRight  4
TS.BufferAtomsRight   0
# SPECIES AND ATOMS
# DYNAMICS
TS.UseBulkInElectrodes  T
************************** End of input data file *****************************

reinit: -----------------------------------------------------------------------
reinit: System Name: Au 100 with gold chain
reinit: -----------------------------------------------------------------------
reinit: System Label: au_100                                                      
reinit: -----------------------------------------------------------------------
redata: Non-Collinear-spin run           =     F
redata: SpinPolarized (Up/Down) run      =     F
redata: Number of spin components        =     1
 
tbt_read_options: **************************************************************
TBTrans Voltage                               =    0.0000 V
TBTrans Emin                                  =   -0.5000 eV
TBTrans Emax                                  =    0.5000 eV
Bulk Values in Electrodes                     =    T
Buffer Atoms in Left electrode                =    0
Buffer Atoms in Right electrode               =    0
Points on the energy contour                  =  101
GFEta                                         =    0.000001 Ry
Electronic Temperature                        =    0.0019 Ry
Calculate band bottom in elecrodes            =    T
GF title                                      =    Generated GF file
Left GF File                                  =    au_100.TBTGFL
Right GF File                                 =    au_100.TBTGFR
Re-use the GF files if they exists            =    T
Scattering region TSHS file                   =    au_100.TSHS
Left electrode TSHS file                      =    ./elec_au_100.TSHS
# atoms used in left elec.                    =     4
Left elec. repetition A1/A2                   =   3 X   3
Right electrode TSHS file                     =    ./elec_au_100.TSHS
# atoms used in right elec.                   =     4
Right elec. repetition A1/A2                  =   3 X   3
Projected region                              = [   37;   76]
Calculate DOS on projected atoms              =     F
Calculate COOP                                =     F
Align the Hamiltonian with the electrode      =     F
Remove inner-cell distances in the Hamiltonian=     F
tbt_read_options: **************************************************************

 NOTICE: Transport energy points are not
         divisable by the number of nodes.
         Better scalability is achived by changing:
           - TS.TBT.NPoints
         Used # of energy points   :  101
         Optimal equilibrium # of energy points:  104 ± i*  4

transiesta: contour integration path:
 Type         Re(c)[eV]    Im(c)[eV]     Re(weight)     Im(weight)
 Transport:
 trans  :      -0.50000      0.00001    0.000734980    0.000000000
 trans  :      -0.49000      0.00001    0.000734980    0.000000000
 trans  :      -0.48000      0.00001    0.000734980    0.000000000
 trans  :      -0.47000      0.00001    0.000734980    0.000000000
 trans  :      -0.46000      0.00001    0.000734980    0.000000000
 trans  :      -0.45000      0.00001    0.000734980    0.000000000
 trans  :      -0.44000      0.00001    0.000734980    0.000000000
 trans  :      -0.43000      0.00001    0.000734980    0.000000000
 trans  :      -0.42000      0.00001    0.000734980    0.000000000
 trans  :      -0.41000      0.00001    0.000734980    0.000000000
 trans  :      -0.40000      0.00001    0.000734980    0.000000000
 trans  :      -0.39000      0.00001    0.000734980    0.000000000
 trans  :      -0.38000      0.00001    0.000734980    0.000000000
 trans  :      -0.37000      0.00001    0.000734980    0.000000000
 trans  :      -0.36000      0.00001    0.000734980    0.000000000
 trans  :      -0.35000      0.00001    0.000734980    0.000000000
 trans  :      -0.34000      0.00001    0.000734980    0.000000000
 trans  :      -0.33000      0.00001    0.000734980    0.000000000
 trans  :      -0.32000      0.00001    0.000734980    0.000000000
 trans  :      -0.31000      0.00001    0.000734980    0.000000000
 trans  :      -0.30000      0.00001    0.000734980    0.000000000
 trans  :      -0.29000      0.00001    0.000734980    0.000000000
 trans  :      -0.28000      0.00001    0.000734980    0.000000000
 trans  :      -0.27000      0.00001    0.000734980    0.000000000
 trans  :      -0.26000      0.00001    0.000734980    0.000000000
 trans  :      -0.25000      0.00001    0.000734980    0.000000000
 trans  :      -0.24000      0.00001    0.000734980    0.000000000
 trans  :      -0.23000      0.00001    0.000734980    0.000000000
 trans  :      -0.22000      0.00001    0.000734980    0.000000000
 trans  :      -0.21000      0.00001    0.000734980    0.000000000
 trans  :      -0.20000      0.00001    0.000734980    0.000000000
 trans  :      -0.19000      0.00001    0.000734980    0.000000000
 trans  :      -0.18000      0.00001    0.000734980    0.000000000
 trans  :      -0.17000      0.00001    0.000734980    0.000000000
 trans  :      -0.16000      0.00001    0.000734980    0.000000000
 trans  :      -0.15000      0.00001    0.000734980    0.000000000
 trans  :      -0.14000      0.00001    0.000734980    0.000000000
 trans  :      -0.13000      0.00001    0.000734980    0.000000000
 trans  :      -0.12000      0.00001    0.000734980    0.000000000
 trans  :      -0.11000      0.00001    0.000734980    0.000000000
 trans  :      -0.10000      0.00001    0.000734980    0.000000000
 trans  :      -0.09000      0.00001    0.000734980    0.000000000
 trans  :      -0.08000      0.00001    0.000734980    0.000000000
 trans  :      -0.07000      0.00001    0.000734980    0.000000000
 trans  :      -0.06000      0.00001    0.000734980    0.000000000
 trans  :      -0.05000      0.00001    0.000734980    0.000000000
 trans  :      -0.04000      0.00001    0.000734980    0.000000000
 trans  :      -0.03000      0.00001    0.000734980    0.000000000
 trans  :      -0.02000      0.00001    0.000734980    0.000000000
 trans  :      -0.01000      0.00001    0.000734980    0.000000000
 trans  :       0.00000      0.00001    0.000734980    0.000000000
 trans  :       0.01000      0.00001    0.000734980    0.000000000
 trans  :       0.02000      0.00001    0.000734980    0.000000000
 trans  :       0.03000      0.00001    0.000734980    0.000000000
 trans  :       0.04000      0.00001    0.000734980    0.000000000
 trans  :       0.05000      0.00001    0.000734980    0.000000000
 trans  :       0.06000      0.00001    0.000734980    0.000000000
 trans  :       0.07000      0.00001    0.000734980    0.000000000
 trans  :       0.08000      0.00001    0.000734980    0.000000000
 trans  :       0.09000      0.00001    0.000734980    0.000000000
 trans  :       0.10000      0.00001    0.000734980    0.000000000
 trans  :       0.11000      0.00001    0.000734980    0.000000000
 trans  :       0.12000      0.00001    0.000734980    0.000000000
 trans  :       0.13000      0.00001    0.000734980    0.000000000
 trans  :       0.14000      0.00001    0.000734980    0.000000000
 trans  :       0.15000      0.00001    0.000734980    0.000000000
 trans  :       0.16000      0.00001    0.000734980    0.000000000
 trans  :       0.17000      0.00001    0.000734980    0.000000000
 trans  :       0.18000      0.00001    0.000734980    0.000000000
 trans  :       0.19000      0.00001    0.000734980    0.000000000
 trans  :       0.20000      0.00001    0.000734980    0.000000000
 trans  :       0.21000      0.00001    0.000734980    0.000000000
 trans  :       0.22000      0.00001    0.000734980    0.000000000
 trans  :       0.23000      0.00001    0.000734980    0.000000000
 trans  :       0.24000      0.00001    0.000734980    0.000000000
 trans  :       0.25000      0.00001    0.000734980    0.000000000
 trans  :       0.26000      0.00001    0.000734980    0.000000000
 trans  :       0.27000      0.00001    0.000734980    0.000000000
 trans  :       0.28000      0.00001    0.000734980    0.000000000
 trans  :       0.29000      0.00001    0.000734980    0.000000000
 trans  :       0.30000      0.00001    0.000734980    0.000000000
 trans  :       0.31000      0.00001    0.000734980    0.000000000
 trans  :       0.32000      0.00001    0.000734980    0.000000000
 trans  :       0.33000      0.00001    0.000734980    0.000000000
 trans  :       0.34000      0.00001    0.000734980    0.000000000
 trans  :       0.35000      0.00001    0.000734980    0.000000000
 trans  :       0.36000      0.00001    0.000734980    0.000000000
 trans  :       0.37000      0.00001    0.000734980    0.000000000
 trans  :       0.38000      0.00001    0.000734980    0.000000000
 trans  :       0.39000      0.00001    0.000734980    0.000000000
 trans  :       0.40000      0.00001    0.000734980    0.000000000
 trans  :       0.41000      0.00001    0.000734980    0.000000000
 trans  :       0.42000      0.00001    0.000734980    0.000000000
 trans  :       0.43000      0.00001    0.000734980    0.000000000
 trans  :       0.44000      0.00001    0.000734980    0.000000000
 trans  :       0.45000      0.00001    0.000734980    0.000000000
 trans  :       0.46000      0.00001    0.000734980    0.000000000
 trans  :       0.47000      0.00001    0.000734980    0.000000000
 trans  :       0.48000      0.00001    0.000734980    0.000000000
 trans  :       0.49000      0.00001    0.000734980    0.000000000
 trans  :       0.50000      0.00001    0.000734980    0.000000000
 
 
Atomic coordinates and regions (Ang):
##############################################
#     0.0000000     0.0000000     0.0000000  #
#     2.8837200     0.0000000     0.0000000  #
#     5.7674400     0.0000000     0.0000000  #
#     0.0000000     2.8837200     0.0000000  #
#     2.8837200     2.8837200     0.0000000  #
#     5.7674400     2.8837200     0.0000000  #
#     0.0000000     5.7674400     0.0000000  #
#     2.8837200     5.7674400     0.0000000  #
#     5.7674400     5.7674400     0.0000000  #
#     1.4418600     1.4418600     2.0391000  #
#     4.3255800     1.4418600     2.0391000  #
#     7.2093000     1.4418600     2.0391000  #
#     1.4418600     4.3255800     2.0391000  #
#     4.3255800     4.3255800     2.0391000  #
#     7.2093000     4.3255800     2.0391000  #
#     1.4418600     7.2093000     2.0391000  #
#     4.3255800     7.2093000     2.0391000  #
#     7.2093000     7.2093000     2.0391000  #     Left electrode
#     0.0000000     0.0000000     4.0782000  #
#     2.8837200     0.0000000     4.0782000  #
#     5.7674400     0.0000000     4.0782000  #
#     0.0000000     2.8837200     4.0782000  #
#     2.8837200     2.8837200     4.0782000  #
#     5.7674400     2.8837200     4.0782000  #
#     0.0000000     5.7674400     4.0782000  #
#     2.8837200     5.7674400     4.0782000  #
#     5.7674400     5.7674400     4.0782000  #
#     1.4418600     1.4418600     6.1173000  #
#     4.3255800     1.4418600     6.1173000  #
#     7.2093000     1.4418600     6.1173000  #
#     1.4418600     4.3255800     6.1173000  #
#     4.3255800     4.3255800     6.1173000  #
#     7.2093000     4.3255800     6.1173000  #
#     1.4418600     7.2093000     6.1173000  #
#     4.3255800     7.2093000     6.1173000  #
#     7.2093000     7.2093000     6.1173000  #
##############################################
      0.0000000     0.0000000     8.1564000   *
      2.8837200     0.0000000     8.1564000   *
      5.7674400     0.0000000     8.1564000   *
      0.0000000     2.8837200     8.1564000   *
      2.8837200     2.8837200     8.1564000   *
      5.7674400     2.8837200     8.1564000   *
      0.0000000     5.7674400     8.1564000   *
      2.8837200     5.7674400     8.1564000   *
      5.7674400     5.7674400     8.1564000   *
      1.4418600     1.4418600    10.1955000   *
      4.3255800     1.4418600    10.1955000   *
      7.2093000     1.4418600    10.1955000   *
      1.4418600     4.3255800    10.1955000   *
      4.3255800     4.3255800    10.1955000   *
      7.2093000     4.3255800    10.1955000   *
      1.4418600     7.2093000    10.1955000   *
      4.3255800     7.2093000    10.1955000   *
      7.2093000     7.2093000    10.1955000   *
      0.0000000     0.0000000    12.2346000   *
      1.4418600     1.4418600    14.2737000   *    Device
      0.0000000     0.0000000    16.3128000   *
      1.4418600     1.4418600    18.3519000   *
      0.0000000     0.0000000    20.3910000   *
      2.8837200     0.0000000    20.3910000   *
      5.7674400     0.0000000    20.3910000   *
      0.0000000     2.8837200    20.3910000   *
      2.8837200     2.8837200    20.3910000   *
      5.7674400     2.8837200    20.3910000   *
      0.0000000     5.7674400    20.3910000   *
      2.8837200     5.7674400    20.3910000   *
      5.7674400     5.7674400    20.3910000   *
      1.4418600     1.4418600    22.4301000   *
      4.3255800     1.4418600    22.4301000   *
      7.2093000     1.4418600    22.4301000   *
      1.4418600     4.3255800    22.4301000   *
      4.3255800     4.3255800    22.4301000   *
      7.2093000     4.3255800    22.4301000   *
      1.4418600     7.2093000    22.4301000   *
      4.3255800     7.2093000    22.4301000   *
      7.2093000     7.2093000    22.4301000   *
##############################################
#     0.0000000     0.0000000    24.4692000  #
#     2.8837200     0.0000000    24.4692000  #
#     5.7674400     0.0000000    24.4692000  #
#     0.0000000     2.8837200    24.4692000  #
#     2.8837200     2.8837200    24.4692000  #
#     5.7674400     2.8837200    24.4692000  #
#     0.0000000     5.7674400    24.4692000  #
#     2.8837200     5.7674400    24.4692000  #
#     5.7674400     5.7674400    24.4692000  #
#     1.4418600     1.4418600    26.5083000  #
#     4.3255800     1.4418600    26.5083000  #
#     7.2093000     1.4418600    26.5083000  #
#     1.4418600     4.3255800    26.5083000  #
#     4.3255800     4.3255800    26.5083000  #
#     7.2093000     4.3255800    26.5083000  #
#     1.4418600     7.2093000    26.5083000  #
#     4.3255800     7.2093000    26.5083000  #
#     7.2093000     7.2093000    26.5083000  #     Right electrode
#     0.0000000     0.0000000    28.5474000  #
#     2.8837200     0.0000000    28.5474000  #
#     5.7674400     0.0000000    28.5474000  #
#     0.0000000     2.8837200    28.5474000  #
#     2.8837200     2.8837200    28.5474000  #
#     5.7674400     2.8837200    28.5474000  #
#     0.0000000     5.7674400    28.5474000  #
#     2.8837200     5.7674400    28.5474000  #
#     5.7674400     5.7674400    28.5474000  #
#     1.4418600     1.4418600    30.5865000  #
#     4.3255800     1.4418600    30.5865000  #
#     7.2093000     1.4418600    30.5865000  #
#     1.4418600     4.3255800    30.5865000  #
#     4.3255800     4.3255800    30.5865000  #
#     7.2093000     4.3255800    30.5865000  #
#     1.4418600     7.2093000    30.5865000  #
#     4.3255800     7.2093000    30.5865000  #
#     7.2093000     7.2093000    30.5865000  #
##############################################
 
k-point displ. along   1 input, could be:     0.00    0.50
k-point displ. along   2 input, could be:     0.00    0.50

TBtrans: k-grid: Number of Transport k-points =     4
TBtrans: k-grid: Supercell and displacements
TBtrans: k-grid:    2   0   0      0.000
TBTrans: k-grid:    0   2   0      0.000
 

TBTrans: k-point coordinates (Bohr**-1) and weights:
TBtrans:    1    0.000000    0.000000    0.000000       0.250000
TBtrans:    2    0.192166    0.000000    0.000000       0.250000
TBtrans:    3    0.000000    0.192166    0.000000       0.250000
TBtrans:    4    0.192166    0.192166    0.000000       0.250000

TBTrans: k-point coordinates (b**-1) and weights:
TBtrans:    1    0.000000    0.000000    0.000000       0.250000
TBtrans:    2    0.500000    0.000000    0.000000       0.250000
TBtrans:    3    0.000000    0.500000    0.000000       0.250000
TBtrans:    4    0.500000    0.500000    0.000000       0.250000
 

Creating Green's function file for: left 
 Left unit cell (Ang):
  2.8837  0.0000  0.0000
  0.0000  2.8837  0.0000
  0.0000  0.0000  8.1564
 Structure of the Left electrode  | System electrode:
     X (Ang)   Y (Ang)   Z (Ang)  |   X (Ang)   Y (Ang)   Z (Ang)
     0.00000   0.00000   0.00000  |   0.00000   0.00000   0.00000
     2.88372   0.00000   0.00000  |   2.88372   0.00000   0.00000
     5.76744   0.00000   0.00000  |   5.76744   0.00000   0.00000
     0.00000   2.88372   0.00000  |   0.00000   2.88372   0.00000
     2.88372   2.88372   0.00000  |   2.88372   2.88372   0.00000
     5.76744   2.88372   0.00000  |   5.76744   2.88372   0.00000
     0.00000   5.76744   0.00000  |   0.00000   5.76744   0.00000
     2.88372   5.76744   0.00000  |   2.88372   5.76744   0.00000
     5.76744   5.76744   0.00000  |   5.76744   5.76744   0.00000
     1.44186   1.44186   2.03910  |   1.44186   1.44186   2.03910
     4.32558   1.44186   2.03910  |   4.32558   1.44186   2.03910
     7.20930   1.44186   2.03910  |   7.20930   1.44186   2.03910
     1.44186   4.32558   2.03910  |   1.44186   4.32558   2.03910
     4.32558   4.32558   2.03910  |   4.32558   4.32558   2.03910
     7.20930   4.32558   2.03910  |   7.20930   4.32558   2.03910
     1.44186   7.20930   2.03910  |   1.44186   7.20930   2.03910
     4.32558   7.20930   2.03910  |   4.32558   7.20930   2.03910
     7.20930   7.20930   2.03910  |   7.20930   7.20930   2.03910
     0.00000   0.00000   4.07820  |   0.00000   0.00000   4.07820
     2.88372   0.00000   4.07820  |   2.88372   0.00000   4.07820
     5.76744   0.00000   4.07820  |   5.76744   0.00000   4.07820
     0.00000   2.88372   4.07820  |   0.00000   2.88372   4.07820
     2.88372   2.88372   4.07820  |   2.88372   2.88372   4.07820
     5.76744   2.88372   4.07820  |   5.76744   2.88372   4.07820
     0.00000   5.76744   4.07820  |   0.00000   5.76744   4.07820
     2.88372   5.76744   4.07820  |   2.88372   5.76744   4.07820
     5.76744   5.76744   4.07820  |   5.76744   5.76744   4.07820
     1.44186   1.44186   6.11730  |   1.44186   1.44186   6.11730
     4.32558   1.44186   6.11730  |   4.32558   1.44186   6.11730
     7.20930   1.44186   6.11730  |   7.20930   1.44186   6.11730
     1.44186   4.32558   6.11730  |   1.44186   4.32558   6.11730
     4.32558   4.32558   6.11730  |   4.32558   4.32558   6.11730
     7.20930   4.32558   6.11730  |   7.20930   4.32558   6.11730
     1.44186   7.20930   6.11730  |   1.44186   7.20930   6.11730
     4.32558   7.20930   6.11730  |   4.32558   7.20930   6.11730
     7.20930   7.20930   6.11730  |   7.20930   7.20930   6.11730
 Electrodes with transport k-points  (Bohr**-1) and weights:
   1     0.00000E+00   0.00000E+00   0.25000E+00
   2     0.19217E+00   0.00000E+00   0.25000E+00
   3     0.00000E+00   0.19217E+00   0.25000E+00
   4     0.19217E+00   0.19217E+00   0.25000E+00
 Valence Band Bottom:    -9.6683 eV
 Atoms available    / used atoms   :      4 /      4
 Orbitals available / used orbitals:     36 /     36
 q-points for expanding electrode (Bohr**-1):
   1     0.00000E+00   0.00000E+00   0.11111E+00
   2     0.00000E+00   0.38433E+00   0.11111E+00
   3     0.00000E+00   0.76866E+00   0.11111E+00
   4     0.38433E+00   0.00000E+00   0.11111E+00
   5     0.38433E+00   0.38433E+00   0.11111E+00
   6     0.38433E+00   0.76866E+00   0.11111E+00
   7     0.76866E+00   0.00000E+00   0.11111E+00
   8     0.76866E+00   0.38433E+00   0.11111E+00
   9     0.76866E+00   0.76866E+00   0.11111E+00
 Fermi level shift in electrode :        0.00000  eV
Done creating 'au_100.TBTGFL'.

Creating Green's function file for: right
 Right unit cell (Ang):
  2.8837  0.0000  0.0000
  0.0000  2.8837  0.0000
  0.0000  0.0000  8.1564
 Structure of the Right electrode | System electrode:
     X (Ang)   Y (Ang)   Z (Ang)  |   X (Ang)   Y (Ang)   Z (Ang)
     0.00000   0.00000   0.00000  |   0.00000   0.00000   0.00000
     2.88372   0.00000   0.00000  |   2.88372   0.00000   0.00000
     5.76744   0.00000   0.00000  |   5.76744   0.00000   0.00000
     0.00000   2.88372   0.00000  |   0.00000   2.88372   0.00000
     2.88372   2.88372   0.00000  |   2.88372   2.88372   0.00000
     5.76744   2.88372   0.00000  |   5.76744   2.88372   0.00000
     0.00000   5.76744   0.00000  |   0.00000   5.76744   0.00000
     2.88372   5.76744   0.00000  |   2.88372   5.76744   0.00000
     5.76744   5.76744   0.00000  |   5.76744   5.76744   0.00000
     1.44186   1.44186   2.03910  |   1.44186   1.44186   2.03910
     4.32558   1.44186   2.03910  |   4.32558   1.44186   2.03910
     7.20930   1.44186   2.03910  |   7.20930   1.44186   2.03910
     1.44186   4.32558   2.03910  |   1.44186   4.32558   2.03910
     4.32558   4.32558   2.03910  |   4.32558   4.32558   2.03910
     7.20930   4.32558   2.03910  |   7.20930   4.32558   2.03910
     1.44186   7.20930   2.03910  |   1.44186   7.20930   2.03910
     4.32558   7.20930   2.03910  |   4.32558   7.20930   2.03910
     7.20930   7.20930   2.03910  |   7.20930   7.20930   2.03910
     0.00000   0.00000   4.07820  |   0.00000   0.00000   4.07820
     2.88372   0.00000   4.07820  |   2.88372   0.00000   4.07820
     5.76744   0.00000   4.07820  |   5.76744   0.00000   4.07820
     0.00000   2.88372   4.07820  |   0.00000   2.88372   4.07820
     2.88372   2.88372   4.07820  |   2.88372   2.88372   4.07820
     5.76744   2.88372   4.07820  |   5.76744   2.88372   4.07820
     0.00000   5.76744   4.07820  |   0.00000   5.76744   4.07820
     2.88372   5.76744   4.07820  |   2.88372   5.76744   4.07820
     5.76744   5.76744   4.07820  |   5.76744   5.76744   4.07820
     1.44186   1.44186   6.11730  |   1.44186   1.44186   6.11730
     4.32558   1.44186   6.11730  |   4.32558   1.44186   6.11730
     7.20930   1.44186   6.11730  |   7.20930   1.44186   6.11730
     1.44186   4.32558   6.11730  |   1.44186   4.32558   6.11730
     4.32558   4.32558   6.11730  |   4.32558   4.32558   6.11730
     7.20930   4.32558   6.11730  |   7.20930   4.32558   6.11730
     1.44186   7.20930   6.11730  |   1.44186   7.20930   6.11730
     4.32558   7.20930   6.11730  |   4.32558   7.20930   6.11730
     7.20930   7.20930   6.11730  |   7.20930   7.20930   6.11730
 Electrodes with transport k-points  (Bohr**-1) and weights:
   1     0.00000E+00   0.00000E+00   0.25000E+00
   2     0.19217E+00   0.00000E+00   0.25000E+00
   3     0.00000E+00   0.19217E+00   0.25000E+00
   4     0.19217E+00   0.19217E+00   0.25000E+00
 Valence Band Bottom:    -9.6683 eV
 Atoms available    / used atoms   :      4 /      4
 Orbitals available / used orbitals:     36 /     36
 q-points for expanding electrode (Bohr**-1):
   1     0.00000E+00   0.00000E+00   0.11111E+00
   2     0.00000E+00   0.38433E+00   0.11111E+00
   3     0.00000E+00   0.76866E+00   0.11111E+00
   4     0.38433E+00   0.00000E+00   0.11111E+00
   5     0.38433E+00   0.38433E+00   0.11111E+00
   6     0.38433E+00   0.76866E+00   0.11111E+00
   7     0.76866E+00   0.00000E+00   0.11111E+00
   8     0.76866E+00   0.38433E+00   0.11111E+00
   9     0.76866E+00   0.76866E+00   0.11111E+00
 Fermi level shift in electrode :        0.00000  eV
Done creating 'au_100.TBTGFR'.

Left : GF atoms    / Expanded atoms    :      4 /     36
Left : GF orbitals / Expanded orbitals :     36 /    324
Right: GF atoms    / Expanded atoms    :      4 /     36
Right: GF orbitals / Expanded orbitals :     36 /    324

 ==============================================================
  Projection Region: atoms : [  37;  76]
  Projection Region: states: [  325;  684] Tot:  360
 Reading GF file, with title:
   /home/albertog/code/SIESTA/trunk-ag/TS_ParIntel/Tests/TranSiesta-TBTrans/ts_au_100_repetition/work/TBT_au_100/au_100.TBTGFL
 Title: 'Generated GF file'

 Reading GF file, with title:
   /home/albertog/code/SIESTA/trunk-ag/TS_ParIntel/Tests/TranSiesta-TBTrans/ts_au_100_repetition/work/TBT_au_100/au_100.TBTGFR
 Title: 'Generated GF file'

# k-point:     1
# k  =  0.000000,   0.000000,   0.000000, w=   0.250000
# kb =  0.000000,   0.000000,   0.000000, w=   0.250000
  -0.50000   0.87383092E+00   0.14039881E+03   0.14039881E+03
  -0.49000   0.87908564E+00   0.14034215E+03   0.14034215E+03
  -0.48000   0.88426351E+00   0.14028600E+03   0.14028600E+03
  -0.47000   0.88936146E+00   0.14023025E+03   0.14023025E+03
  -0.46000   0.89437648E+00   0.14017482E+03   0.14017482E+03
  -0.45000   0.89930560E+00   0.14011963E+03   0.14011963E+03
  -0.44000   0.90414589E+00   0.14006459E+03   0.14006459E+03
  -0.43000   0.90889452E+00   0.14000963E+03   0.14000963E+03
  -0.42000   0.91354869E+00   0.13995467E+03   0.13995467E+03
  -0.41000   0.91810569E+00   0.13989966E+03   0.13989966E+03
  -0.40000   0.92256289E+00   0.13984452E+03   0.13984452E+03
  -0.39000   0.92691773E+00   0.13978921E+03   0.13978921E+03
  -0.38000   0.93116776E+00   0.13973366E+03   0.13973366E+03
  -0.37000   0.93531059E+00   0.13967783E+03   0.13967783E+03
  -0.36000   0.93934394E+00   0.13962168E+03   0.13962168E+03
  -0.35000   0.94326565E+00   0.13956515E+03   0.13956515E+03
  -0.34000   0.94707363E+00   0.13950823E+03   0.13950823E+03
  -0.33000   0.95076592E+00   0.13945087E+03   0.13945087E+03
  -0.32000   0.95434066E+00   0.13939304E+03   0.13939304E+03
  -0.31000   0.95779610E+00   0.13933473E+03   0.13933473E+03
  -0.30000   0.96113060E+00   0.13927591E+03   0.13927591E+03
  -0.29000   0.96434264E+00   0.13921656E+03   0.13921656E+03
  -0.28000   0.96743083E+00   0.13915667E+03   0.13915667E+03
  -0.27000   0.97039388E+00   0.13909624E+03   0.13909624E+03
  -0.26000   0.97323062E+00   0.13903525E+03   0.13903525E+03
  -0.25000   0.97594001E+00   0.13897370E+03   0.13897370E+03
  -0.24000   0.97852111E+00   0.13891160E+03   0.13891160E+03
  -0.23000   0.98097312E+00   0.13884895E+03   0.13884895E+03
  -0.22000   0.98329533E+00   0.13878575E+03   0.13878575E+03
  -0.21000   0.98548718E+00   0.13872202E+03   0.13872202E+03
  -0.20000   0.98754819E+00   0.13865777E+03   0.13865777E+03
  -0.19000   0.98947801E+00   0.13859302E+03   0.13859302E+03
  -0.18000   0.99127640E+00   0.13852778E+03   0.13852778E+03
  -0.17000   0.99294323E+00   0.13846209E+03   0.13846209E+03
  -0.16000   0.99447845E+00   0.13839597E+03   0.13839597E+03
  -0.15000   0.99588215E+00   0.13832943E+03   0.13832943E+03
  -0.14000   0.99715449E+00   0.13826253E+03   0.13826253E+03
  -0.13000   0.99829572E+00   0.13819528E+03   0.13819528E+03
  -0.12000   0.99930621E+00   0.13812773E+03   0.13812773E+03
  -0.11000   0.10001864E+01   0.13805991E+03   0.13805991E+03
  -0.10000   0.10009368E+01   0.13799187E+03   0.13799187E+03
  -0.09000   0.10015579E+01   0.13792364E+03   0.13792364E+03
  -0.08000   0.10020506E+01   0.13785527E+03   0.13785527E+03
  -0.07000   0.10024154E+01   0.13778682E+03   0.13778682E+03
  -0.06000   0.10026533E+01   0.13771832E+03   0.13771832E+03
  -0.05000   0.10027650E+01   0.13764983E+03   0.13764983E+03
  -0.04000   0.10027515E+01   0.13758140E+03   0.13758140E+03
  -0.03000   0.10026137E+01   0.13751308E+03   0.13751308E+03
  -0.02000   0.10023526E+01   0.13744494E+03   0.13744494E+03
  -0.01000   0.10019693E+01   0.13737703E+03   0.13737703E+03
   0.00000   0.10014648E+01   0.13730940E+03   0.13730940E+03
   0.01000   0.10008402E+01   0.13724213E+03   0.13724213E+03
   0.02000   0.10000966E+01   0.13717526E+03   0.13717526E+03
   0.03000   0.99923513E+00   0.13710887E+03   0.13710887E+03
   0.04000   0.99825699E+00   0.13704301E+03   0.13704301E+03
   0.05000   0.99716328E+00   0.13697776E+03   0.13697776E+03
   0.06000   0.99595515E+00   0.13691318E+03   0.13691318E+03
   0.07000   0.99463376E+00   0.13684934E+03   0.13684934E+03
   0.08000   0.99320022E+00   0.13678630E+03   0.13678630E+03
   0.09000   0.99165567E+00   0.13672414E+03   0.13672414E+03
   0.10000   0.99000121E+00   0.13666293E+03   0.13666293E+03
   0.11000   0.98823792E+00   0.13660273E+03   0.13660273E+03
   0.12000   0.98636687E+00   0.13654361E+03   0.13654361E+03
   0.13000   0.98438907E+00   0.13648566E+03   0.13648566E+03
   0.14000   0.98230553E+00   0.13642893E+03   0.13642893E+03
   0.15000   0.98011721E+00   0.13637351E+03   0.13637351E+03
   0.16000   0.97782502E+00   0.13631946E+03   0.13631946E+03
   0.17000   0.97542984E+00   0.13626686E+03   0.13626686E+03
   0.18000   0.97293251E+00   0.13621577E+03   0.13621577E+03
   0.19000   0.97033380E+00   0.13616628E+03   0.13616628E+03
   0.20000   0.96763444E+00   0.13611845E+03   0.13611845E+03
   0.21000   0.96483513E+00   0.13607236E+03   0.13607236E+03
   0.22000   0.96193647E+00   0.13602807E+03   0.13602807E+03
   0.23000   0.95893905E+00   0.13598565E+03   0.13598565E+03
   0.24000   0.95584337E+00   0.13594518E+03   0.13594518E+03
   0.25000   0.95264989E+00   0.13590673E+03   0.13590673E+03
   0.26000   0.94935900E+00   0.13587035E+03   0.13587035E+03
   0.27000   0.94597104E+00   0.13583612E+03   0.13583612E+03
   0.28000   0.94248630E+00   0.13580409E+03   0.13580409E+03
   0.29000   0.93890499E+00   0.13577433E+03   0.13577433E+03
   0.30000   0.93522727E+00   0.13574690E+03   0.13574690E+03
   0.31000   0.93145326E+00   0.13572186E+03   0.13572186E+03
   0.32000   0.92758300E+00   0.13569926E+03   0.13569926E+03
   0.33000   0.92361650E+00   0.13567915E+03   0.13567915E+03
   0.34000   0.91955370E+00   0.13566158E+03   0.13566158E+03
   0.35000   0.91539452E+00   0.13564660E+03   0.13564660E+03
   0.36000   0.91113882E+00   0.13563424E+03   0.13563424E+03
   0.37000   0.90678641E+00   0.13562454E+03   0.13562454E+03
   0.38000   0.90233707E+00   0.13561753E+03   0.13561753E+03
   0.39000   0.89779058E+00   0.13561325E+03   0.13561325E+03
   0.40000   0.89314666E+00   0.13561170E+03   0.13561170E+03
   0.41000   0.88840502E+00   0.13561291E+03   0.13561291E+03
   0.42000   0.88356536E+00   0.13561689E+03   0.13561689E+03
   0.43000   0.87862739E+00   0.13562363E+03   0.13562363E+03
   0.44000   0.87359079E+00   0.13563313E+03   0.13563313E+03
   0.45000   0.86845529E+00   0.13564538E+03   0.13564538E+03
   0.46000   0.86322060E+00   0.13566036E+03   0.13566036E+03
   0.47000   0.85788650E+00   0.13567803E+03   0.13567803E+03
   0.48000   0.85245279E+00   0.13569836E+03   0.13569836E+03
   0.49000   0.84691931E+00   0.13572129E+03   0.13572129E+03
   0.50000   0.84128599E+00   0.13574677E+03   0.13574677E+03
 
# k-point:     2
# k  =  0.192166,   0.000000,   0.000000, w=   0.250000
# kb =  0.500000,   0.000000,   0.000000, w=   0.250000
  -0.50000   0.76553637E+00   0.16519592E+03   0.16519592E+03
  -0.49000   0.77221587E+00   0.16667118E+03   0.16667118E+03
  -0.48000   0.77893417E+00   0.16819139E+03   0.16819139E+03
  -0.47000   0.78568517E+00   0.16974942E+03   0.16974942E+03
  -0.46000   0.79246157E+00   0.17133343E+03   0.17133343E+03
  -0.45000   0.79925453E+00   0.17292452E+03   0.17292452E+03
  -0.44000   0.80605307E+00   0.17449305E+03   0.17449305E+03
  -0.43000   0.81284329E+00   0.17599278E+03   0.17599278E+03
  -0.42000   0.81960714E+00   0.17735092E+03   0.17735092E+03
  -0.41000   0.82632002E+00   0.17845153E+03   0.17845153E+03
  -0.40000   0.83294534E+00   0.17910445E+03   0.17910445E+03
  -0.39000   0.83940541E+00   0.17898646E+03   0.17898646E+03
  -0.38000   0.84394508E+00   0.17758100E+03   0.17758100E+03
  -0.37000   0.85163684E+00   0.17344191E+03   0.17344191E+03
  -0.36000   0.85739928E+00   0.16384191E+03   0.16384191E+03
  -0.35000   0.86201112E+00   0.13581212E+03   0.13581212E+03
  -0.34000   0.86611646E+00   0.10684162E+03   0.10684162E+03
  -0.33000   0.87075922E+00   0.10740526E+03   0.10740526E+03
  -0.32000   0.87579466E+00   0.10887001E+03   0.10887001E+03
  -0.31000   0.88216356E+00   0.11294280E+03   0.11294280E+03
  -0.30000   0.89432186E+00   0.13276168E+03   0.13276168E+03
  -0.29000   0.99841885E+00   0.28946574E+04   0.28946574E+04
  -0.28000   0.85958990E+00   0.15275282E+03   0.15275282E+03
  -0.27000   0.87191837E+00   0.11847962E+03   0.11847962E+03
  -0.26000   0.87699415E+00   0.11317159E+03   0.11317159E+03
  -0.25000   0.87996637E+00   0.11179382E+03   0.11179382E+03
  -0.24000   0.88184048E+00   0.11159310E+03   0.11159310E+03
  -0.23000   0.88292022E+00   0.11191956E+03   0.11191956E+03
  -0.22000   0.88330373E+00   0.11256159E+03   0.11256159E+03
  -0.21000   0.88300572E+00   0.11344013E+03   0.11344013E+03
  -0.20000   0.88199637E+00   0.11452715E+03   0.11452715E+03
  -0.19000   0.88021498E+00   0.11581844E+03   0.11581844E+03
  -0.18000   0.87757404E+00   0.11732319E+03   0.11732319E+03
  -0.17000   0.87395873E+00   0.11905961E+03   0.11905961E+03
  -0.16000   0.86922395E+00   0.12105312E+03   0.12105312E+03
  -0.15000   0.86318946E+00   0.12333564E+03   0.12333564E+03
  -0.14000   0.85563355E+00   0.12594539E+03   0.12594539E+03
  -0.13000   0.84628586E+00   0.12892671E+03   0.12892671E+03
  -0.12000   0.83481964E+00   0.13232978E+03   0.13232978E+03
  -0.11000   0.82084508E+00   0.13620961E+03   0.13620961E+03
  -0.10000   0.80390582E+00   0.14062406E+03   0.14062406E+03
  -0.09000   0.78348280E+00   0.14563006E+03   0.14563006E+03
  -0.08000   0.75901224E+00   0.15127726E+03   0.15127726E+03
  -0.07000   0.72992738E+00   0.15759819E+03   0.15759819E+03
  -0.06000   0.69573712E+00   0.16459462E+03   0.16459462E+03
  -0.05000   0.65615522E+00   0.17222072E+03   0.17222072E+03
  -0.04000   0.61128627E+00   0.18036661E+03   0.18036661E+03
  -0.03000   0.56185637E+00   0.18885036E+03   0.18885036E+03
  -0.02000   0.50943820E+00   0.19743122E+03   0.19743122E+03
  -0.01000   0.45657986E+00   0.20585899E+03   0.20585899E+03
   0.00000   0.40673437E+00   0.21396771E+03   0.21396771E+03
   0.01000   0.36395356E+00   0.22180267E+03   0.22180267E+03
   0.02000   0.33246534E+00   0.22974600E+03   0.22974600E+03
   0.03000   0.31641315E+00   0.23859066E+03   0.23859066E+03
   0.04000   0.32004859E+00   0.24950804E+03   0.24950804E+03
   0.05000   0.34840031E+00   0.26382473E+03   0.26382473E+03
   0.06000   0.40776571E+00   0.28241063E+03   0.28241063E+03
   0.07000   0.50406116E+00   0.30434229E+03   0.30434229E+03
   0.08000   0.63585330E+00   0.32493293E+03   0.32493293E+03
   0.09000   0.78318409E+00   0.33539212E+03   0.33539212E+03
   0.10000   0.90811791E+00   0.32808652E+03   0.32808652E+03
   0.11000   0.98055358E+00   0.30411928E+03   0.30411928E+03
   0.12000   0.10001538E+01   0.27221183E+03   0.27221183E+03
   0.13000   0.98608650E+00   0.24073736E+03   0.24073736E+03
   0.14000   0.95734840E+00   0.21376341E+03   0.21376341E+03
   0.15000   0.92535042E+00   0.19206364E+03   0.19206364E+03
   0.16000   0.89523500E+00   0.17500411E+03   0.17500411E+03
   0.17000   0.86870102E+00   0.16162867E+03   0.16162867E+03
   0.18000   0.84590641E+00   0.15106817E+03   0.15106817E+03
   0.19000   0.82643506E+00   0.14263681E+03   0.14263681E+03
   0.20000   0.80972428E+00   0.13582089E+03   0.13582089E+03
   0.21000   0.79523305E+00   0.13024213E+03   0.13024213E+03
   0.22000   0.78249675E+00   0.12562227E+03   0.12562227E+03
   0.23000   0.77113557E+00   0.12175525E+03   0.12175525E+03
   0.24000   0.76084629E+00   0.11848692E+03   0.11848692E+03
   0.25000   0.75138948E+00   0.11570062E+03   0.11570062E+03
   0.26000   0.74257688E+00   0.11330695E+03   0.11330695E+03
   0.27000   0.73426056E+00   0.11123659E+03   0.11123659E+03
   0.28000   0.72632409E+00   0.10943517E+03   0.10943517E+03
   0.29000   0.71867562E+00   0.10785958E+03   0.10785958E+03
   0.30000   0.71124240E+00   0.10647532E+03   0.10647532E+03
   0.31000   0.70396661E+00   0.10525446E+03   0.10525446E+03
   0.32000   0.69680211E+00   0.10417430E+03   0.10417430E+03
   0.33000   0.68971188E+00   0.10321614E+03   0.10321614E+03
   0.34000   0.68266612E+00   0.10236457E+03   0.10236457E+03
   0.35000   0.67564064E+00   0.10160678E+03   0.10160678E+03
   0.36000   0.66861564E+00   0.10093208E+03   0.10093208E+03
   0.37000   0.66157469E+00   0.10033156E+03   0.10033156E+03
   0.38000   0.65450385E+00   0.99797809E+02   0.99797809E+02
   0.39000   0.64739083E+00   0.99324746E+02   0.99324746E+02
   0.40000   0.64022412E+00   0.98907512E+02   0.98907512E+02
   0.41000   0.63299172E+00   0.98542527E+02   0.98542527E+02
   0.42000   0.62567913E+00   0.98227781E+02   0.98227781E+02
   0.43000   0.61826479E+00   0.97963767E+02   0.97963767E+02
   0.44000   0.61070636E+00   0.97756714E+02   0.97756714E+02
   0.45000   0.60286667E+00   0.97637556E+02   0.97637556E+02
   0.46000   0.59518559E+00   0.10679754E+03   0.10679754E+03
   0.47000   0.58839018E+00   0.11339490E+03   0.11339490E+03
   0.48000   0.58142017E+00   0.11773513E+03   0.11773513E+03
   0.49000   0.57435680E+00   0.12114617E+03   0.12114617E+03
   0.50000   0.56722746E+00   0.12401034E+03   0.12401034E+03
 
# k-point:     3
# k  =  0.000000,   0.192166,   0.000000, w=   0.250000
# kb =  0.000000,   0.500000,   0.000000, w=   0.250000
  -0.50000   0.76553637E+00   0.16519592E+03   0.16519592E+03
  -0.49000   0.77221587E+00   0.16667118E+03   0.16667118E+03
  -0.48000   0.77893417E+00   0.16819139E+03   0.16819139E+03
  -0.47000   0.78568517E+00   0.16974942E+03   0.16974942E+03
  -0.46000   0.79246157E+00   0.17133343E+03   0.17133343E+03
  -0.45000   0.79925453E+00   0.17292452E+03   0.17292452E+03
  -0.44000   0.80605307E+00   0.17449305E+03   0.17449305E+03
  -0.43000   0.81284329E+00   0.17599278E+03   0.17599278E+03
  -0.42000   0.81960714E+00   0.17735092E+03   0.17735092E+03
  -0.41000   0.82632002E+00   0.17845153E+03   0.17845153E+03
  -0.40000   0.83294534E+00   0.17910445E+03   0.17910445E+03
  -0.39000   0.83940541E+00   0.17898646E+03   0.17898646E+03
  -0.38000   0.84394508E+00   0.17758100E+03   0.17758100E+03
  -0.37000   0.85163684E+00   0.17344191E+03   0.17344191E+03
  -0.36000   0.85739928E+00   0.16384191E+03   0.16384191E+03
  -0.35000   0.86201112E+00   0.13581212E+03   0.13581212E+03
  -0.34000   0.86611646E+00   0.10684162E+03   0.10684162E+03
  -0.33000   0.87075922E+00   0.10740526E+03   0.10740526E+03
  -0.32000   0.87579466E+00   0.10887001E+03   0.10887001E+03
  -0.31000   0.88216356E+00   0.11294280E+03   0.11294280E+03
  -0.30000   0.89432186E+00   0.13276168E+03   0.13276168E+03
  -0.29000   0.99841884E+00   0.28946575E+04   0.28946575E+04
  -0.28000   0.85958990E+00   0.15275282E+03   0.15275282E+03
  -0.27000   0.87191837E+00   0.11847962E+03   0.11847962E+03
  -0.26000   0.87699415E+00   0.11317159E+03   0.11317159E+03
  -0.25000   0.87996637E+00   0.11179382E+03   0.11179382E+03
  -0.24000   0.88184048E+00   0.11159310E+03   0.11159310E+03
  -0.23000   0.88292022E+00   0.11191956E+03   0.11191956E+03
  -0.22000   0.88330373E+00   0.11256159E+03   0.11256159E+03
  -0.21000   0.88300572E+00   0.11344013E+03   0.11344013E+03
  -0.20000   0.88199637E+00   0.11452715E+03   0.11452715E+03
  -0.19000   0.88021498E+00   0.11581844E+03   0.11581844E+03
  -0.18000   0.87757404E+00   0.11732319E+03   0.11732319E+03
  -0.17000   0.87395873E+00   0.11905961E+03   0.11905961E+03
  -0.16000   0.86922395E+00   0.12105312E+03   0.12105312E+03
  -0.15000   0.86318946E+00   0.12333564E+03   0.12333564E+03
  -0.14000   0.85563355E+00   0.12594539E+03   0.12594539E+03
  -0.13000   0.84628586E+00   0.12892671E+03   0.12892671E+03
  -0.12000   0.83481964E+00   0.13232978E+03   0.13232978E+03
  -0.11000   0.82084508E+00   0.13620961E+03   0.13620961E+03
  -0.10000   0.80390582E+00   0.14062406E+03   0.14062406E+03
  -0.09000   0.78348280E+00   0.14563006E+03   0.14563006E+03
  -0.08000   0.75901224E+00   0.15127726E+03   0.15127726E+03
  -0.07000   0.72992738E+00   0.15759819E+03   0.15759819E+03
  -0.06000   0.69573712E+00   0.16459462E+03   0.16459462E+03
  -0.05000   0.65615522E+00   0.17222072E+03   0.17222072E+03
  -0.04000   0.61128627E+00   0.18036661E+03   0.18036661E+03
  -0.03000   0.56185637E+00   0.18885036E+03   0.18885036E+03
  -0.02000   0.50943820E+00   0.19743122E+03   0.19743122E+03
  -0.01000   0.45657986E+00   0.20585899E+03   0.20585899E+03
   0.00000   0.40673437E+00   0.21396771E+03   0.21396771E+03
   0.01000   0.36395356E+00   0.22180267E+03   0.22180267E+03
   0.02000   0.33246534E+00   0.22974600E+03   0.22974600E+03
   0.03000   0.31641315E+00   0.23859066E+03   0.23859066E+03
   0.04000   0.32004859E+00   0.24950804E+03   0.24950804E+03
   0.05000   0.34840031E+00   0.26382473E+03   0.26382473E+03
   0.06000   0.40776571E+00   0.28241063E+03   0.28241063E+03
   0.07000   0.50406116E+00   0.30434229E+03   0.30434229E+03
   0.08000   0.63585330E+00   0.32493293E+03   0.32493293E+03
   0.09000   0.78318409E+00   0.33539212E+03   0.33539212E+03
   0.10000   0.90811791E+00   0.32808652E+03   0.32808652E+03
   0.11000   0.98055358E+00   0.30411928E+03   0.30411928E+03
   0.12000   0.10001538E+01   0.27221183E+03   0.27221183E+03
   0.13000   0.98608650E+00   0.24073736E+03   0.24073736E+03
   0.14000   0.95734840E+00   0.21376341E+03   0.21376341E+03
   0.15000   0.92535042E+00   0.19206364E+03   0.19206364E+03
   0.16000   0.89523500E+00   0.17500411E+03   0.17500411E+03
   0.17000   0.86870102E+00   0.16162867E+03   0.16162867E+03
   0.18000   0.84590641E+00   0.15106817E+03   0.15106817E+03
   0.19000   0.82643506E+00   0.14263681E+03   0.14263681E+03
   0.20000   0.80972428E+00   0.13582089E+03   0.13582089E+03
   0.21000   0.79523305E+00   0.13024213E+03   0.13024213E+03
   0.22000   0.78249675E+00   0.12562227E+03   0.12562227E+03
   0.23000   0.77113557E+00   0.12175525E+03   0.12175525E+03
   0.24000   0.76084629E+00   0.11848692E+03   0.11848692E+03
   0.25000   0.75138948E+00   0.11570062E+03   0.11570062E+03
   0.26000   0.74257688E+00   0.11330695E+03   0.11330695E+03
   0.27000   0.73426056E+00   0.11123659E+03   0.11123659E+03
   0.28000   0.72632409E+00   0.10943517E+03   0.10943517E+03
   0.29000   0.71867562E+00   0.10785958E+03   0.10785958E+03
   0.30000   0.71124240E+00   0.10647532E+03   0.10647532E+03
   0.31000   0.70396661E+00   0.10525446E+03   0.10525446E+03
   0.32000   0.69680211E+00   0.10417430E+03   0.10417430E+03
   0.33000   0.68971188E+00   0.10321614E+03   0.10321614E+03
   0.34000   0.68266612E+00   0.10236457E+03   0.10236457E+03
   0.35000   0.67564064E+00   0.10160678E+03   0.10160678E+03
   0.36000   0.66861564E+00   0.10093208E+03   0.10093208E+03
   0.37000   0.66157469E+00   0.10033156E+03   0.10033156E+03
   0.38000   0.65450385E+00   0.99797809E+02   0.99797809E+02
   0.39000   0.64739083E+00   0.99324746E+02   0.99324746E+02
   0.40000   0.64022412E+00   0.98907512E+02   0.98907512E+02
   0.41000   0.63299172E+00   0.98542527E+02   0.98542527E+02
   0.42000   0.62567913E+00   0.98227781E+02   0.98227781E+02
   0.43000   0.61826479E+00   0.97963767E+02   0.97963767E+02
   0.44000   0.61070636E+00   0.97756714E+02   0.97756714E+02
   0.45000   0.60286667E+00   0.97637556E+02   0.97637556E+02
   0.46000   0.59518559E+00   0.10679754E+03   0.10679754E+03
   0.47000   0.58839018E+00   0.11339490E+03   0.11339490E+03
   0.48000   0.58142017E+00   0.11773513E+03   0.11773513E+03
   0.49000   0.57435680E+00   0.12114617E+03   0.12114617E+03
   0.50000   0.56722746E+00   0.12401034E+03   0.12401034E+03
 
# k-point:     4
# k  =  0.192166,   0.192166,   0.000000, w=   0.250000
# kb =  0.500000,   0.500000,   0.000000, w=   0.250000
  -0.50000   0.77992590E+00   0.74837472E+02   0.74837472E+02
  -0.49000   0.78796622E+00   0.74891525E+02   0.74891525E+02
  -0.48000   0.79591596E+00   0.74947664E+02   0.74947664E+02
  -0.47000   0.80376489E+00   0.75005990E+02   0.75005990E+02
  -0.46000   0.81150292E+00   0.75066646E+02   0.75066646E+02
  -0.45000   0.81912011E+00   0.75129822E+02   0.75129822E+02
  -0.44000   0.82660671E+00   0.75195763E+02   0.75195763E+02
  -0.43000   0.83395323E+00   0.75264768E+02   0.75264768E+02
  -0.42000   0.84115040E+00   0.75337203E+02   0.75337203E+02
  -0.41000   0.84818925E+00   0.75413503E+02   0.75413503E+02
  -0.40000   0.85506111E+00   0.75494185E+02   0.75494185E+02
  -0.39000   0.86175763E+00   0.75579855E+02   0.75579855E+02
  -0.38000   0.86827078E+00   0.75671226E+02   0.75671226E+02
  -0.37000   0.87459289E+00   0.75769126E+02   0.75769126E+02
  -0.36000   0.88071656E+00   0.75874524E+02   0.75874524E+02
  -0.35000   0.88663473E+00   0.75988553E+02   0.75988553E+02
  -0.34000   0.89234057E+00   0.76112539E+02   0.76112539E+02
  -0.33000   0.89782744E+00   0.76248040E+02   0.76248040E+02
  -0.32000   0.90308884E+00   0.76396899E+02   0.76396899E+02
  -0.31000   0.90811820E+00   0.76561313E+02   0.76561313E+02
  -0.30000   0.91290880E+00   0.76743914E+02   0.76743914E+02
  -0.29000   0.91745346E+00   0.76947900E+02   0.76947900E+02
  -0.28000   0.92174423E+00   0.77177192E+02   0.77177192E+02
  -0.27000   0.92577190E+00   0.77436677E+02   0.77436677E+02
  -0.26000   0.92952530E+00   0.77732542E+02   0.77732542E+02
  -0.25000   0.93299023E+00   0.78072779E+02   0.78072779E+02
  -0.24000   0.93614789E+00   0.78467962E+02   0.78467962E+02
  -0.23000   0.93897230E+00   0.78932483E+02   0.78932483E+02
  -0.22000   0.94142599E+00   0.79486646E+02   0.79486646E+02
  -0.21000   0.94345233E+00   0.80160388E+02   0.80160388E+02
  -0.20000   0.94496075E+00   0.81000523E+02   0.81000523E+02
  -0.19000   0.94579482E+00   0.82086375E+02   0.82086375E+02
  -0.18000   0.94565204E+00   0.83569337E+02   0.83569337E+02
  -0.17000   0.94382354E+00   0.85802081E+02   0.85802081E+02
  -0.16000   0.93775450E+00   0.90062050E+02   0.90062050E+02
  -0.15000   0.89275355E+00   0.17672435E+03   0.17672435E+03
  -0.14000   0.88071499E+00   0.22966546E+03   0.22966546E+03
  -0.13000   0.87782508E+00   0.25854786E+03   0.25854786E+03
  -0.12000   0.87839615E+00   0.27798517E+03   0.27798517E+03
  -0.11000   0.88082432E+00   0.29212368E+03   0.29212368E+03
  -0.10000   0.88439002E+00   0.30286164E+03   0.30286164E+03
  -0.09000   0.88870259E+00   0.31125258E+03   0.31125258E+03
  -0.08000   0.89352486E+00   0.31794759E+03   0.31794759E+03
  -0.07000   0.89870129E+00   0.32337777E+03   0.32337777E+03
  -0.06000   0.90412363E+00   0.32784255E+03   0.32784255E+03
  -0.05000   0.90971268E+00   0.33155733E+03   0.33155733E+03
  -0.04000   0.91540792E+00   0.33468124E+03   0.33468124E+03
  -0.03000   0.92116116E+00   0.33733433E+03   0.33733433E+03
  -0.02000   0.92693256E+00   0.33960869E+03   0.33960869E+03
  -0.01000   0.93268797E+00   0.34157588E+03   0.34157588E+03
   0.00000   0.93839720E+00   0.34329214E+03   0.34329214E+03
   0.01000   0.94403270E+00   0.34480203E+03   0.34480203E+03
   0.02000   0.94956871E+00   0.34614108E+03   0.34614108E+03
   0.03000   0.95498063E+00   0.34733779E+03   0.34733779E+03
   0.04000   0.96024451E+00   0.34841507E+03   0.34841507E+03
   0.05000   0.96533675E+00   0.34939136E+03   0.34939136E+03
   0.06000   0.97023381E+00   0.35028155E+03   0.35028155E+03
   0.07000   0.97491202E+00   0.35109757E+03   0.35109757E+03
   0.08000   0.97934748E+00   0.35184900E+03   0.35184900E+03
   0.09000   0.98351597E+00   0.35254342E+03   0.35254342E+03
   0.10000   0.98739285E+00   0.35318684E+03   0.35318684E+03
   0.11000   0.99095314E+00   0.35378387E+03   0.35378387E+03
   0.12000   0.99417145E+00   0.35433802E+03   0.35433802E+03
   0.13000   0.99702207E+00   0.35485186E+03   0.35485186E+03
   0.14000   0.99947902E+00   0.35532716E+03   0.35532716E+03
   0.15000   0.10015162E+01   0.35576504E+03   0.35576504E+03
   0.16000   0.10031074E+01   0.35616605E+03   0.35616605E+03
   0.17000   0.10042265E+01   0.35653029E+03   0.35653029E+03
   0.18000   0.10048477E+01   0.35685747E+03   0.35685747E+03
   0.19000   0.10049457E+01   0.35714698E+03   0.35714698E+03
   0.20000   0.10044957E+01   0.35739794E+03   0.35739794E+03
   0.21000   0.10034740E+01   0.35760926E+03   0.35760926E+03
   0.22000   0.10018578E+01   0.35777969E+03   0.35777969E+03
   0.23000   0.99962579E+00   0.35790785E+03   0.35790785E+03
   0.24000   0.99675832E+00   0.35799226E+03   0.35799226E+03
   0.25000   0.99323761E+00   0.35803140E+03   0.35803140E+03
   0.26000   0.98904810E+00   0.35802370E+03   0.35802370E+03
   0.27000   0.98417666E+00   0.35796760E+03   0.35796760E+03
   0.28000   0.97861288E+00   0.35786154E+03   0.35786154E+03
   0.29000   0.97234931E+00   0.35770403E+03   0.35770403E+03
   0.30000   0.96538169E+00   0.35749362E+03   0.35749362E+03
   0.31000   0.95770916E+00   0.35722896E+03   0.35722896E+03
   0.32000   0.94933441E+00   0.35690877E+03   0.35690877E+03
   0.33000   0.94026383E+00   0.35653191E+03   0.35653191E+03
   0.34000   0.93050762E+00   0.35609734E+03   0.35609734E+03
   0.35000   0.92007981E+00   0.35560419E+03   0.35560419E+03
   0.36000   0.90899828E+00   0.35505169E+03   0.35505169E+03
   0.37000   0.89728472E+00   0.35443926E+03   0.35443926E+03
   0.38000   0.88496452E+00   0.35376645E+03   0.35376645E+03
   0.39000   0.87206660E+00   0.35303299E+03   0.35303299E+03
   0.40000   0.85862327E+00   0.35223877E+03   0.35223877E+03
   0.41000   0.84466993E+00   0.35138384E+03   0.35138384E+03
   0.42000   0.83024478E+00   0.35046840E+03   0.35046840E+03
   0.43000   0.81538852E+00   0.34949282E+03   0.34949282E+03
   0.44000   0.80014397E+00   0.34845764E+03   0.34845764E+03
   0.45000   0.78455569E+00   0.34736351E+03   0.34736351E+03
   0.46000   0.76866955E+00   0.34621124E+03   0.34621124E+03
   0.47000   0.75253237E+00   0.34500179E+03   0.34500179E+03
   0.48000   0.73619142E+00   0.34373620E+03   0.34373620E+03
   0.49000   0.71969407E+00   0.34241565E+03   0.34241565E+03
   0.50000   0.70308735E+00   0.34104141E+03   0.34104141E+03
 
 ==============================================================
 Results:
 Voltage, Current(A) =   0.00000000E+00  0.00000000E+00
 ==============================================================
>> End of run:   3-OCT-2015   3:21:42
