<?xml version="1.0" encoding="UTF-8" ?>
<psml version="1.1" energy_unit="hartree" length_unit="bohr"
 uuid="f44cb940-76b0-11e7-595f-249f7f3f4aa2"
 xmlns="http://esl.cecam.org/PSML/ns/1.1">
<provenance creator="ONCVPSP-3.2.3+psml-3.2.3-71 (scalar-relativistic)"
 date="2017-08-01">
<annotation action="semilocal-pseudopotential-generation"
 action-cont="projectors-generation" />
<input-file name="oncvpsp-input">
<![CDATA[# ATOM AND REFERENCE CONFIGURATION
# atsym  z   nc   nv     iexc    psfile
Fe 26.00    3    4       4      psp8
#
#   n    l    f        energy (Ha)
1    0    2.00    -2.5720573D+02
2    0    2.00    -3.0124388D+01
2    1    6.00    -2.5667700D+01
3    0    2.00    -3.4550911D+00
3    1    6.00    -2.2065345D+00
3    2    6.00    -2.7580112D-01
4    0    2.00    -1.9448241D-01
#
# PSEUDOPOTENTIAL AND OPTIMIZATION
# lmax
2
#
#   l,   rc,     ep,   ncon, nbas, qcut
0    1.15   -3.46    3    7    9.90
1    1.10   -2.21    3    7    9.20
2    1.30   -0.28    3    7   11.80
#
# LOCAL POTENTIAL
# lloc, lpopt,  rc(5),   dvloc0
4    5      1.10       0.00
#
# VANDERBILT-KLEINMAN-BYLANDER PROJECTORs
# l, nproj, debl
0    2    3.2606
1    2    0.8000
2    2    0.8000
#
# MODEL CORE CHARGE
# icmod, fcfact, rcfact, rcfact
3    3.00    1.70
#
# LOG DERIVATIVE ANALYSIS
# epsh1, epsh2, depsh
-24.00   12.00    0.02
#
# OUTPUT GRID
# rlmax, drl
6.00    0.01
#
# TEST CONFIGURATIONS
# ncnf
0
# nvcnf
#   n    l    f
]]>
</input-file>
</provenance>
<pseudo-atom-spec atomic-label="Fe" atomic-number="26" z-pseudo="16"
 flavor="Hamann&apos;s oncvpsp" relativity="scalar" spin-dft="no"
 core-corrections="yes">
<annotation pseudo-energy="-123.162033813" />
<exchange-correlation>
<annotation oncvpsp-xc-code="4" oncvpsp-xc-type="GGA -- Perdew-Burke-Ernzerhof" />
<libxc-info number-of-functionals="2">
<functional name="Perdew, Burke &amp; Ernzerhof (GGA)" type="exchange" id="101" />
<functional name="Perdew, Burke &amp; Ernzerhof (GGA)" type="correlation"
 id="130" />
</libxc-info>
</exchange-correlation>
<valence-configuration total-valence-charge="16">
<shell n="3" l="s" occupation="2" />
<shell n="3" l="p" occupation="6" />
<shell n="3" l="d" occupation="6" />
<shell n="4" l="s" occupation="2" />
</valence-configuration>
</pseudo-atom-spec>
<grid npts="457">
<annotation type="sampled from oncvpsp log grid"
 recipe="r(i:1..N) = r1*exp(a*(i-1)) + r=0; resampled"
 recipe-cont="r1: scale; a: step" scale="0.192307692308E-04"
 step="0.119285708653E-01" delta="0.500000000000E-02" rmax="44.2248135897" />
<grid-data>
  0.000000000000E+00  5.050053692967E-03  1.008708593772E-02  1.513223739776E-02
  2.014816255451E-02  2.527348802918E-02  3.058816214668E-02  3.571906205505E-02
  4.072730601400E-02  4.588712082187E-02  5.108759065353E-02  5.620300303659E-02
  6.183062285620E-02  6.721515569429E-02  7.306860171076E-02  7.848991730107E-02
  8.431346671058E-02  8.949515180459E-02  9.499528970881E-02  1.008334516999E-01
  1.070304118539E-01  1.122610879123E-01  1.177473919885E-01  1.235018168622E-01
  1.295374658469E-01  1.358680826271E-01  1.425080825541E-01  1.477001832717E-01
  1.530814515745E-01  1.586587795431E-01  1.644393103617E-01  1.704304474680E-01
  1.766398640339E-01  1.830755127941E-01  1.897456362307E-01  1.966587771303E-01
  2.038237895251E-01  2.112498500326E-01  2.163502664118E-01  2.215738272440E-01
  2.269235057290E-01  2.324023468513E-01  2.380134691137E-01  2.437600663120E-01
  2.496454093530E-01  2.556728481164E-01  2.618458133614E-01  2.681678186792E-01
  2.746424624934E-01  2.812734301078E-01  2.880644958043E-01  2.950195249910E-01
  3.021424764024E-01  3.094374043527E-01  3.169084610433E-01  3.245598989268E-01
  3.323960731265E-01  3.404214439160E-01  3.486405792579E-01  3.570581574035E-01
  3.656789695559E-01  3.745079225969E-01  3.835500418800E-01  3.928104740912E-01
  4.022944901776E-01  4.120074883485E-01  4.219549971472E-01  4.270184571129E-01
  4.321426785983E-01  4.373283907415E-01  4.425763314304E-01  4.478872474075E-01
  4.532618943764E-01  4.587010371089E-01  4.642054495543E-01  4.697759149489E-01
  4.754132259283E-01  4.811181846394E-01  4.868916028551E-01  4.927343020894E-01
  4.986471137144E-01  5.046308790790E-01  5.106864496280E-01  5.168146870235E-01
  5.230164632678E-01  5.292926608270E-01  5.356441727569E-01  5.420719028300E-01
  5.485767656640E-01  5.551596868519E-01  5.618216030941E-01  5.685634623313E-01
  5.753862238793E-01  5.822908585658E-01  5.892783488686E-01  5.963496890550E-01
  6.035058853237E-01  6.107479559476E-01  6.180769314189E-01  6.254938545960E-01
  6.329997808511E-01  6.405957782213E-01  6.482829275600E-01  6.560623226907E-01
  6.639350705630E-01  6.719022914097E-01  6.799651189067E-01  6.881247003335E-01
  6.963821967375E-01  7.047387830984E-01  7.131956484956E-01  7.217539962775E-01
  7.304150442328E-01  7.391800247636E-01  7.480501850608E-01  7.570267872815E-01
  7.661111087289E-01  7.753044420337E-01  7.846080953381E-01  7.940233924821E-01
  8.035516731919E-01  8.131942932702E-01  8.229526247895E-01  8.328280562869E-01
  8.428219929624E-01  8.529358568779E-01  8.631710871605E-01  8.735291402064E-01
  8.840114898889E-01  8.946196277675E-01  9.053550633007E-01  9.162193240603E-01
  9.272139559491E-01  9.383405234205E-01  9.496006097015E-01  9.609958170179E-01
  9.725277668221E-01  9.841981000240E-01  9.960084772243E-01  1.007960578951E+00
  1.020056105898E+00  1.032296779169E+00  1.044684340519E+00  1.057220552605E+00
  1.069907199237E+00  1.082746085628E+00  1.095739038655E+00  1.108887907119E+00
  1.122194562004E+00  1.135660896748E+00  1.149288827509E+00  1.163080293440E+00
  1.177037256961E+00  1.191161704044E+00  1.205455644493E+00  1.219921112227E+00
  1.234560165573E+00  1.249374887560E+00  1.264367386211E+00  1.279539794846E+00
  1.294894272384E+00  1.310433003652E+00  1.326158199696E+00  1.342072098093E+00
  1.358176963270E+00  1.374475086829E+00  1.390968787871E+00  1.407660413325E+00
  1.424552338285E+00  1.441646966345E+00  1.458946729941E+00  1.476454090700E+00
  1.494171539788E+00  1.512101598266E+00  1.530246817445E+00  1.548609779254E+00
  1.567193096605E+00  1.585999413765E+00  1.605031406730E+00  1.624291783611E+00
  1.643783285014E+00  1.663508684434E+00  1.683470788647E+00  1.703672438111E+00
  1.724116507368E+00  1.744805905457E+00  1.765743576322E+00  1.786932499238E+00
  1.808375689229E+00  1.830076197500E+00  1.852037111870E+00  1.874261557212E+00
  1.896752695899E+00  1.919513728250E+00  1.942547892989E+00  1.965858467705E+00
  1.989448769317E+00  2.013322154549E+00  2.037482020403E+00  2.061931804648E+00
  2.086674986304E+00  2.111715086140E+00  2.137055667173E+00  2.162700335179E+00
  2.188652739202E+00  2.214916572072E+00  2.241495570937E+00  2.268393517788E+00
  2.295614240002E+00  2.323161610882E+00  2.351039550212E+00  2.379252024815E+00
  2.407803049112E+00  2.436696685702E+00  2.465937045930E+00  2.495528290481E+00
  2.525474629967E+00  2.555780325527E+00  2.586449689433E+00  2.617487085706E+00
  2.648896930735E+00  2.680683693904E+00  2.712851898230E+00  2.745406121009E+00
  2.778350994461E+00  2.811691206395E+00  2.845431500872E+00  2.879576678882E+00
  2.914131599029E+00  2.949101178217E+00  2.984490392356E+00  3.020304277064E+00
  3.056547928389E+00  3.093226503529E+00  3.130345221572E+00  3.167909364230E+00
  3.205924276601E+00  3.244395367920E+00  3.283328112335E+00  3.322728049683E+00
  3.362600786280E+00  3.402951995715E+00  3.443787419664E+00  3.485112868700E+00
  3.526934223124E+00  3.569257433801E+00  3.612088523007E+00  3.655433585283E+00
  3.699298788307E+00  3.743690373766E+00  3.788614658251E+00  3.834078034150E+00
  3.880086970560E+00  3.926648014207E+00  3.973767790377E+00  4.021453003862E+00
  4.069710439908E+00  4.118546965187E+00  4.167969528769E+00  4.217985163115E+00
  4.268600985072E+00  4.319824196893E+00  4.371662087256E+00  4.424122032303E+00
  4.477211496690E+00  4.530938034651E+00  4.585309291066E+00  4.640333002559E+00
  4.696016998590E+00  4.752369202573E+00  4.809397633004E+00  4.867110404600E+00
  4.925515729455E+00  4.984621918209E+00  5.044437381227E+00  5.104970629802E+00
  5.166230277360E+00  5.228225040688E+00  5.290963741176E+00  5.354455306070E+00
  5.418708769743E+00  5.483733274980E+00  5.549538074280E+00  5.616132531171E+00
  5.683526121545E+00  5.751728435004E+00  5.820749176224E+00  5.890598166338E+00
  5.961285344334E+00  6.032820768466E+00  6.105214617688E+00  6.178477193100E+00
  6.252618919418E+00  6.327650346451E+00  6.403582150608E+00  6.480425136415E+00
  6.558190238052E+00  6.636888520909E+00  6.716531183160E+00  6.797129557358E+00
  6.878695112046E+00  6.961239453391E+00  7.044774326831E+00  7.129311618753E+00
  7.214863358178E+00  7.301441718476E+00  7.389059019098E+00  7.477727727327E+00
  7.567460460055E+00  7.658269985576E+00  7.750169225403E+00  7.843171256108E+00
  7.937289311181E+00  8.032536782915E+00  8.128927224310E+00  8.226474351002E+00
  8.325192043214E+00  8.425094347732E+00  8.526195479905E+00  8.628509825664E+00
  8.732051943572E+00  8.836836566895E+00  8.942878605698E+00  9.050193148966E+00
  9.158795466753E+00  9.268701012355E+00  9.379925424503E+00  9.492484529597E+00
  9.606394343952E+00  9.721671076079E+00  9.838331128992E+00  9.956391102540E+00
  1.007586779577E+01  1.019677820932E+01  1.031913954783E+01  1.044296922241E+01
  1.056828485307E+01  1.069510427131E+01  1.082344552257E+01  1.095332686884E+01
  1.108476679126E+01  1.121778399276E+01  1.135239740067E+01  1.148862616948E+01
  1.162648968351E+01  1.176600755972E+01  1.190719965043E+01  1.205008604624E+01
  1.219468707879E+01  1.234102332374E+01  1.248911560362E+01  1.263898499087E+01
  1.279065281076E+01  1.294414064449E+01  1.309947033222E+01  1.325666397621E+01
  1.341574394392E+01  1.357673287125E+01  1.373965366570E+01  1.390452950969E+01
  1.407138386381E+01  1.424024047017E+01  1.441112335582E+01  1.458405683609E+01
  1.475906551812E+01  1.493617430434E+01  1.511540839599E+01  1.529679329674E+01
  1.548035481630E+01  1.566611907410E+01  1.585411250299E+01  1.604436185302E+01
  1.623689419526E+01  1.643173692560E+01  1.662891776871E+01  1.682846478193E+01
  1.703040635932E+01  1.723477123563E+01  1.744158849046E+01  1.765088755234E+01
  1.786269820297E+01  1.807705058140E+01  1.829397518838E+01  1.851350289064E+01
  1.873566492533E+01  1.896049290443E+01  1.918801881929E+01  1.941827504512E+01
  1.965129434566E+01  1.988710987781E+01  2.012575519634E+01  2.036726425870E+01
  2.061167142980E+01  2.085901148696E+01  2.110931962480E+01  2.136263146030E+01
  2.161898303782E+01  2.187841083428E+01  2.214095176429E+01  2.240664318546E+01
  2.267552290369E+01  2.294762917853E+01  2.322300072867E+01  2.350167673742E+01
  2.378369685827E+01  2.406910122057E+01  2.435793043521E+01  2.465022560043E+01
  2.494602830764E+01  2.524538064733E+01  2.554832521510E+01  2.585490511768E+01
  2.616516397909E+01  2.647914594684E+01  2.679689569820E+01  2.711845844658E+01
  2.744387994794E+01  2.777320650732E+01  2.810648498540E+01  2.844376280523E+01
  2.878508795889E+01  2.913050901440E+01  2.948007512257E+01  2.983383602404E+01
  3.019184205633E+01  3.055414416101E+01  3.092079389094E+01  3.129184341763E+01
  3.166734553864E+01  3.204735368511E+01  3.243192192933E+01  3.282110499248E+01
  3.321495825239E+01  3.361353775142E+01  3.401690020443E+01  3.442510300689E+01
  3.483820424297E+01  3.525626269389E+01  3.567933784621E+01  3.610748990037E+01
  3.654077977917E+01  3.697926913652E+01  3.742302036616E+01  3.787209661055E+01
  3.832656176988E+01  3.878648051112E+01  3.925191827725E+01  3.972294129658E+01
  4.019961659214E+01  4.068201199124E+01  4.117019613514E+01  4.166423848876E+01
  4.216420935063E+01  4.267017986283E+01  4.318222202119E+01  4.370040868544E+01
  4.422481358967E+01
</grid-data>
</grid>
<valence-charge total-charge="16" is-unscreening-charge="yes"
 rescaled-to-z-pseudo="no">
<radfunc>
<data npts="457">
  7.180513924250E+00  7.187351459250E+00  7.207793039837E+00  7.241902991634E+00
  7.289340696553E+00  7.351739406356E+00  7.431303480587E+00  7.522462406442E+00
  7.625024981578E+00  7.744713135579E+00  7.879727957547E+00  8.026603409204E+00
  8.204276974389E+00  8.390025534270E+00  8.609377242847E+00  8.828679389535E+00
  9.081484265230E+00  9.321368005537E+00  9.591313782472E+00  9.895011734452E+00
  1.023657559570E+01  1.054014778416E+01  1.087344163995E+01  1.123924060751E+01
  1.164055117300E+01  1.208060917741E+01  1.256288227103E+01  1.295450604578E+01
  1.337359145848E+01  1.382184428816E+01  1.430102860152E+01  1.481295749286E+01
  1.535948061666E+01  1.594246787078E+01  1.656378849668E+01  1.722528476816E+01
  1.792873934455E+01  1.867583527350E+01  1.919891021832E+01  1.974247437895E+01
  2.030688507110E+01  2.089244048914E+01  2.149936881362E+01  2.212781617665E+01
  2.277783343088E+01  2.344936167833E+01  2.414221652884E+01  2.485607107660E+01
  2.559043760550E+01  2.634464806353E+01  2.711783338046E+01  2.790890174545E+01
  2.871651601022E+01  2.953907044093E+01  3.037466710762E+01  3.122109227466E+01
  3.207579323826E+01  3.293585614800E+01  3.379798544704E+01  3.465848566824E+01
  3.551324642959E+01  3.635773157741E+01  3.718697352681E+01  3.799557393990E+01
  3.877771195703E+01  3.952716124707E+01  4.023731716149E+01  4.057550193056E+01
  4.090123525239E+01  4.121360435241E+01  4.151168233824E+01  4.179453055301E+01
  4.206120115994E+01  4.231073996143E+01  4.254218945504E+01  4.275459212644E+01
  4.294699397800E+01  4.311844828917E+01  4.326801960285E+01  4.339478792910E+01
  4.349785315531E+01  4.357633964870E+01  4.362940103421E+01  4.365622512787E+01
  4.365603900204E+01  4.362811415625E+01  4.357177176332E+01  4.348638795761E+01
  4.337139912865E+01  4.322630718020E+01  4.305068471183E+01  4.284418007694E+01
  4.260652226891E+01  4.233752558451E+01  4.203709401194E+01  4.170522528939E+01
  4.134201457949E+01  4.094765770426E+01  4.052245388638E+01  4.006680794308E+01
  3.958123188171E+01  3.906634584848E+01  3.852287838592E+01  3.795166595932E+01
  3.735365171820E+01  3.672988346516E+01  3.608151081241E+01  3.540978151440E+01
  3.471603697401E+01  3.400170692992E+01  3.326830334293E+01  3.251741350979E+01
  3.175069244438E+01  3.096985457702E+01  3.017666483373E+01  2.937292916806E+01
  2.856048462777E+01  2.774118904834E+01  2.691691047307E+01  2.608951640644E+01
  2.526086301296E+01  2.443278437698E+01  2.360708194097E+01  2.278551423944E+01
  2.196978704318E+01  2.116154402421E+01  2.036235804495E+01  1.957372316680E+01
  1.879704746244E+01  1.803364670399E+01  1.728473898548E+01  1.655144032295E+01
  1.583476125991E+01  1.513560448944E+01  1.445476348811E+01  1.379292214075E+01
  1.315065531995E+01  1.252843037032E+01  1.192660943457E+01  1.134545254825E+01
  1.078512142099E+01  1.024568381600E+01  9.727118435531E+00  9.229320218539E+00
  8.752105957767E+00  8.295220146515E+00  7.858340970681E+00  7.441086368596E+00
  7.043016217022E+00  6.663627197167E+00  6.302372762869E+00  5.958682687563E+00
  5.631961312607E+00  5.321579277424E+00  5.026891763183E+00  4.747258212677E+00
  4.482042947801E+00  4.230618874818E+00  3.992370678188E+00  3.766697518104E+00
  3.553015212846E+00  3.350757891771E+00  3.159390316074E+00  2.978442840156E+00
  2.807479620362E+00  2.646062826499E+00  2.493762070987E+00  2.350155367247E+00
  2.214829979038E+00  2.087383164698E+00  1.967422820534E+00  1.854568027845E+00
  1.748449508277E+00  1.648709992384E+00  1.555004506345E+00  1.467000581928E+00
  1.384378394793E+00  1.306830836255E+00  1.234063523616E+00  1.165794754113E+00
  1.101755407464E+00  1.041688801881E+00  9.853505083183E-01  9.325081275633E-01
  8.829410346188E-01  8.364400946540E-01  7.928073546047E-01  7.518557142926E-01
  7.134085807195E-01  6.772995089591E-01  6.433718328333E-01  6.114782883131E-01
  5.814806323393E-01  5.532492595068E-01  5.266628188114E-01  5.016078324166E-01
  4.779783181650E-01  4.556754173391E-01  4.346070289682E-01  4.146874517904E-01
  3.958370348026E-01  3.779818371772E-01  3.610532981876E-01  3.449879176617E-01
  3.297269473762E-01  3.152160937111E-01  3.014052318023E-01  2.882481313563E-01
  2.757021942232E-01  2.637282037685E-01  2.522900860249E-01  2.413546825562E-01
  2.308915349184E-01  2.208726805579E-01  2.112724599480E-01  2.020673347258E-01
  1.932357165621E-01  1.847578064628E-01  1.766154441811E-01  1.687919673926E-01
  1.612720802730E-01  1.540417311028E-01  1.470879985125E-01  1.403989859789E-01
  1.339637241777E-01  1.277720807973E-01  1.218146774244E-01  1.160828131128E-01
  1.105683942567E-01  1.052638703983E-01  1.001621756066E-01  9.525667508154E-02
  9.054111664278E-02  8.600958678282E-02  8.165647097241E-02  7.747641792374E-02
  7.346430753048E-02  6.961522221834E-02  6.592442145485E-02  6.238731918156E-02
  5.899946394599E-02  5.575652152462E-02  5.265425984155E-02  4.968853599971E-02
  4.685528525373E-02  4.415051176422E-02  4.157028098318E-02  3.911071352942E-02
  3.676798042059E-02  3.453829953425E-02  3.241793318737E-02  3.040318669693E-02
  2.849040783765E-02  2.667598707630E-02  2.495635848368E-02  2.332800122561E-02
  2.178744153829E-02  2.033125509642E-02  1.895606968700E-02  1.765856810551E-02
  1.643549119641E-02  1.528364096431E-02  1.419988368855E-02  1.318115297914E-02
  1.222445271889E-02  1.132685984278E-02  1.048552691244E-02  9.697684450497E-03
  8.960643006128E-03  8.271794929713E-03  7.628615840929E-03  7.028665780436E-03
  6.469590040917E-03  5.949119678292E-03  5.465071708470E-03  5.015348999012E-03
  4.597939868513E-03  4.210917409418E-03  3.852438552317E-03  3.520742891569E-03
  3.214151293426E-03  2.931064308665E-03  2.669960412134E-03  2.429394091668E-03
  2.207993808455E-03  2.004459850344E-03  1.817562098664E-03  1.646137728030E-03
  1.489088857315E-03  1.345380168583E-03  1.214036509242E-03  1.094140491180E-03
  9.848300990464E-04  8.852963183204E-04  7.947807923459E-04  7.125735160750E-04
  6.380105729774E-04  5.704719203780E-04  5.093792274139E-04  4.541937688755E-04
  4.044143773853E-04  3.595754557007E-04  3.192450503679E-04  2.830229875117E-04
  2.505390711981E-04  2.214513445439E-04  1.954444135482E-04  1.722278334805E-04
  1.515345575566E-04  1.331194475541E-04  1.167578459640E-04  1.022442092170E-04
  8.939080147181E-05  7.802644839424E-05  6.799535028801E-05  5.915595385981E-05
  5.137988181448E-05  4.455091937666E-05  3.856405672980E-05  3.332458625130E-05
  2.874725330728E-05  2.475545925574E-05  2.128051519397E-05  1.826094487930E-05
  1.564183515299E-05  1.337423210785E-05  1.141458116287E-05  9.724209143527E-06
  8.268846416225E-06  7.018187088920E-06  5.945485268716E-06  5.027185359809E-06
  4.242584391756E-06  3.573524387634E-06  3.004112813241E-06  2.520469191162E-06
  2.110496015782E-06  1.763672166199E-06  1.470867081904E-06  1.224174039915E-06
  1.016760950445E-06  8.427371699350E-07  6.970349144010E-07  5.753039401612E-07
  4.738182479784E-07  3.893936557588E-07  3.193150781960E-07  2.612728348426E-07
  2.133064903358E-07  1.737557967034E-07  1.412180366156E-07  1.145108686230E-07
  9.264005069104E-08  7.477149740588E-08  6.020715297867E-08  4.818830583287E-08
  3.862251031644E-08  3.088013161147E-08  2.462898090169E-08  1.959435878245E-08
  1.554967990652E-08  1.230852211985E-08  9.717901859099E-09  7.652602129975E-09
  6.010401378826E-09  4.708071200045E-09  3.678028275915E-09  2.865541407578E-09
  2.226408142601E-09  1.725027505748E-09  1.332805855462E-09  1.026842070332E-09
  7.888462582561E-10  6.042531068952E-10  4.614969775845E-10  3.514209963811E-10
  2.667968156364E-10  2.019354982010E-10  1.523731958624E-10  1.146180271312E-10
  8.594687233479E-11  6.424275408754E-11  4.786510974550E-11  3.554663439020E-11
  2.631151757426E-11  1.941084877808E-11  1.427175500628E-11  1.045748487021E-11
  7.636188937299E-12  5.556584984400E-12  4.029055187814E-12  2.911013903000E-12
  2.095621102128E-12  1.503107489294E-12  1.074130969208E-12  7.647073251721E-13
  5.423563364824E-13  3.831828289389E-13  2.696741760739E-13  1.890447313350E-13
  1.319961714837E-13  9.179288450119E-14  6.357505643623E-14  4.385038530653E-14
  3.011948906649E-14  2.060096922524E-14  1.403045138845E-14  9.514311592567E-15
  6.423657256273E-15  4.317813333405E-15  2.889341319859E-15  1.924704244022E-15
  1.276249931921E-15  8.423452782542E-16  5.533540169556E-16  3.617845542461E-16
  2.353998794933E-16  1.524216415990E-16  9.820776623797E-17  6.296194482690E-17
  4.016220226438E-17  2.548811208284E-17  1.609206655967E-17  1.010678635778E-17
  6.314142214451E-18  3.923630323280E-18  2.424969627686E-18  1.490530048256E-18
  9.110930840631E-19  5.537877859115E-19  3.346981259959E-19  2.011234894280E-19
  1.201550086267E-19  7.136086881846E-20  4.212954518481E-20  2.472240118365E-20
  1.441916862608E-20  8.358022409319E-21  4.814466792477E-21  2.755759424848E-21
  1.567292026994E-21  0.000000000000E+00  0.000000000000E+00  0.000000000000E+00
  0.000000000000E+00  0.000000000000E+00  0.000000000000E+00  0.000000000000E+00
  0.000000000000E+00  0.000000000000E+00  0.000000000000E+00  0.000000000000E+00
  0.000000000000E+00  0.000000000000E+00  0.000000000000E+00  0.000000000000E+00
  0.000000000000E+00
</data>
</radfunc>
</valence-charge>
<pseudocore-charge matching-radius="0.416951578209"
 number-of-continuous-derivatives="4">
<annotation model-charge-form="Teter function with specified parameters" />
<radfunc>
<data npts="290">
  1.218361508091E+02  1.218166127669E+02  1.217582175208E+02  1.216608293123E+02
  1.215254992549E+02  1.213476835860E+02  1.211212720301E+02  1.208623031239E+02
  1.205714923323E+02  1.202328581070E+02  1.198518007989E+02  1.194383883453E+02
  1.189398267498E+02  1.184203814437E+02  1.178092630579E+02  1.172007265840E+02
  1.165021970499E+02  1.158422550979E+02  1.151028973696E+02  1.142751623951E+02
  1.133492370331E+02  1.125306387559E+02  1.116364678587E+02  1.106604475807E+02
  1.095959265473E+02  1.084358890857E+02  1.071729748912E+02  1.061536707440E+02
  1.050688484255E+02  1.039150976838E+02  1.026889545508E+02  1.013869226527E+02
  1.000054988217E+02  9.854120350358E+01  9.699061646896E+01  9.535041834301E+01
  9.361743846058E+01  9.178870952707E+01  9.051501569252E+01  8.919683792030E+01
  8.783353116507E+01  8.642453707554E+01  8.496939539636E+01  8.346775605873E+01
  8.191939194112E+01  8.032421226959E+01  7.868227661366E+01  7.699380941806E+01
  7.525921499290E+01  7.347909286522E+01  7.165425337280E+01  6.978573335688E+01
  6.787481178399E+01  6.592302509882E+01  6.393218207971E+01  6.190437793608E+01
  5.984200735469E+01  5.774777616727E+01  5.562471127897E+01  5.347616846416E+01
  5.130583760576E+01  4.911774492702E+01  4.691625174244E+01  4.470604923913E+01
  4.249214879252E+01  4.027986732500E+01  3.807480723256E+01  3.697680775153E+01
  3.588283043803E+01  3.479364329984E+01  3.371002618083E+01  3.263276939045E+01
  3.156267222542E+01  3.050054138315E+01  2.944718926684E+01  2.840343218306E+01
  2.737008843290E+01  2.634797629906E+01  2.533791193160E+01  2.434070713612E+01
  2.335716706912E+01  2.238808784606E+01  2.143425406882E+01  2.049643628010E+01
  1.957538835377E+01  1.867184483068E+01  1.778651821129E+01  1.692009621693E+01
  1.607323903330E+01  1.524657655037E+01  1.444070561442E+01  1.365618730872E+01
  1.289354428065E+01  1.215325813379E+01  1.143576690448E+01  1.074146264326E+01
  1.007068912193E+01  9.423739687823E+00  8.800855287050E+00  8.202222678538E+00
  7.627972860865E+00  7.078179733430E+00  6.552859013025E+00  6.051967426084E+00
  5.575402195789E+00  5.123000841834E+00  4.694541308964E+00  4.289742438381E+00
  3.908264793774E+00  3.549711851085E+00  3.213631558121E+00  2.899518266841E+00
  2.606815037581E+00  2.334916310594E+00  2.083170936254E+00  1.850885550933E+00
  1.637328281179E+00  1.441732754261E+00  1.263302388626E+00  1.101214933236E+00
  9.546272204184E-01  8.226800925863E-01  7.045034593003E-01  5.992214375848E-01
  5.059575253324E-01  4.238397551211E-01  3.520057739172E-01  2.896077930239E-01
  2.358173523587E-01  1.898298437523E-01  1.508687395344E-01  1.181894752377E-01
  9.108293883592E-02  6.887852354206E-02  5.094670679742E-02  3.670112463945E-02
  2.560011806342E-02  1.714773618759E-02  1.089418985643E-02  6.435758607991E-03
  3.414163500246E-03  1.515427923156E-03  4.682579847219E-04  4.198310433779E-05
  4.410582008333E-05  3.175172644026E-04  7.374410394907E-04  1.208173102435E-03
  1.659688551461E-03  2.044187726871E-03  2.332653688973E-03  2.511490851559E-03
  2.579310337607E-03  2.543921556097E-03  2.419581719132E-03  2.224545741998E-03
  1.978948479002E-03  1.703039890255E-03  1.415781905694E-03  1.133803887052E-03
  8.707021413123E-04  6.366583659871E-04  4.383426422313E-04  2.790590269971E-04
  1.590862545363E-04  7.616277755581E-05  2.606449095685E-05  3.224999639405E-06
  1.352103856353E-06  1.400004259180E-05  3.506460072548E-05  5.917699033097E-05
  8.198192303820E-05  1.002949144689E-04  1.121430083251E-04  1.167012113487E-04
  1.141434959047E-04  1.054318675898E-04  9.206946482750E-05  7.584387330724E-05
  5.858489241595E-05  4.195714717391E-05  2.730261479208E-05  1.554186768940E-05
  7.136237559014E-06  2.106810678909E-06  1.007660023267E-07  4.915587715004E-07
  2.497177438808E-06  5.300316468743E-06  8.155760946526E-06  1.047331592805E-05
  1.186880258427E-05  1.218042545677E-05  1.145257098170E-05  9.893223762201E-06
  7.814175163116E-06  5.564702575353E-06  3.469282111496E-06  1.778258940182E-06
  6.375532506590E-07  7.991454296587E-08  0.000000000000E+00  0.000000000000E+00
  0.000000000000E+00  0.000000000000E+00  0.000000000000E+00  0.000000000000E+00
  0.000000000000E+00  0.000000000000E+00  0.000000000000E+00  0.000000000000E+00
  0.000000000000E+00  0.000000000000E+00  0.000000000000E+00  0.000000000000E+00
  0.000000000000E+00  0.000000000000E+00  0.000000000000E+00  0.000000000000E+00
  0.000000000000E+00  0.000000000000E+00  0.000000000000E+00  0.000000000000E+00
  0.000000000000E+00  0.000000000000E+00  0.000000000000E+00  0.000000000000E+00
  0.000000000000E+00  0.000000000000E+00  0.000000000000E+00  0.000000000000E+00
  0.000000000000E+00  0.000000000000E+00  0.000000000000E+00  0.000000000000E+00
  0.000000000000E+00  0.000000000000E+00  0.000000000000E+00  0.000000000000E+00
  0.000000000000E+00  0.000000000000E+00  0.000000000000E+00  0.000000000000E+00
  0.000000000000E+00  0.000000000000E+00  0.000000000000E+00  0.000000000000E+00
  0.000000000000E+00  0.000000000000E+00  0.000000000000E+00  0.000000000000E+00
  0.000000000000E+00  0.000000000000E+00  0.000000000000E+00  0.000000000000E+00
  0.000000000000E+00  0.000000000000E+00  0.000000000000E+00  0.000000000000E+00
  0.000000000000E+00  0.000000000000E+00  0.000000000000E+00  0.000000000000E+00
  0.000000000000E+00  0.000000000000E+00  0.000000000000E+00  0.000000000000E+00
  0.000000000000E+00  0.000000000000E+00  0.000000000000E+00  0.000000000000E+00
  0.000000000000E+00  0.000000000000E+00  0.000000000000E+00  0.000000000000E+00
  0.000000000000E+00  0.000000000000E+00  0.000000000000E+00  0.000000000000E+00
  0.000000000000E+00  0.000000000000E+00  0.000000000000E+00  0.000000000000E+00
  0.000000000000E+00  0.000000000000E+00  0.000000000000E+00  0.000000000000E+00
  0.000000000000E+00  0.000000000000E+00
</data>
</radfunc>
</pseudocore-charge>
<semilocal-potentials set="scalar_relativistic">
<slps n="3" l="s" rc="1.16308029344" eref="-3.45509113504">
<radfunc>
<data npts="290">
 -1.581345718120E+01 -1.581509876656E+01 -1.582000175334E+01 -1.582817608067E+01
 -1.583953042258E+01 -1.585444124355E+01 -1.587341379496E+01 -1.589509627700E+01
 -1.591942150526E+01 -1.594771595132E+01 -1.597951506599E+01 -1.601396626605E+01
 -1.605544678902E+01 -1.609858739995E+01 -1.614924019049E+01 -1.619956982868E+01
 -1.625720784925E+01 -1.631152940679E+01 -1.637223461763E+01 -1.644000337940E+01
 -1.651556927941E+01 -1.658216260445E+01 -1.665467408968E+01 -1.673354831658E+01
 -1.681924631773E+01 -1.691224226624E+01 -1.701301907203E+01 -1.709400027652E+01
 -1.717983552292E+01 -1.727072536938E+01 -1.736686466816E+01 -1.746843981280E+01
 -1.757562558837E+01 -1.768858159520E+01 -1.780744821854E+01 -1.793234211947E+01
 -1.806335122714E+01 -1.820052921815E+01 -1.829541683148E+01 -1.839304576459E+01
 -1.849339853593E+01 -1.859644653746E+01 -1.870214903155E+01 -1.881045210946E+01
 -1.892128761455E+01 -1.903457203427E+01 -1.915020536537E+01 -1.926806995781E+01
 -1.938802934336E+01 -1.950992705600E+01 -1.963358545165E+01 -1.975880453602E+01
 -1.988536080992E+01 -2.001300614235E+01 -2.014146668268E+01 -2.027044182410E+01
 -2.039960323166E+01 -2.052859394938E+01 -2.065702760206E+01 -2.078448770923E+01
 -2.091052712997E+01 -2.103466765970E+01 -2.115639980157E+01 -2.127518273820E+01
 -2.139044453122E+01 -2.150158257887E+01 -2.160796436395E+01 -2.165916607298E+01
 -2.170892852572E+01 -2.175716477979E+01 -2.180378629007E+01 -2.184870297521E+01
 -2.189182329107E+01 -2.193305431111E+01 -2.197230181395E+01 -2.200947037815E+01
 -2.204446348437E+01 -2.207718362487E+01 -2.210753242032E+01 -2.213541074391E+01
 -2.216071885253E+01 -2.218335652491E+01 -2.220322320642E+01 -2.222021816023E+01
 -2.223424062462E+01 -2.224518997585E+01 -2.225296589640E+01 -2.225746854809E+01
 -2.225859874970E+01 -2.225625815873E+01 -2.225034945693E+01 -2.224077653938E+01
 -2.222744470689E+01 -2.221026086154E+01 -2.218913370541E+01 -2.216397394250E+01
 -2.213469448395E+01 -2.210121065688E+01 -2.206344041713E+01 -2.202130456623E+01
 -2.197472697307E+01 -2.192363480069E+01 -2.186795873859E+01 -2.180763324092E+01
 -2.174259677086E+01 -2.167279205142E+01 -2.159816632256E+01 -2.151867160463E+01
 -2.143426496772E+01 -2.134490880642E+01 -2.125057111908E+01 -2.115122579065E+01
 -2.104685287765E+01 -2.093743889383E+01 -2.082297709445E+01 -2.070346775734E+01
 -2.057891845816E+01 -2.044934433749E+01 -2.031476835704E+01 -2.017522154203E+01
 -2.003074320729E+01 -1.988138116397E+01 -1.972719190479E+01 -1.956824076551E+01