<?xml version="1.0" encoding="UTF-8" ?>
<psml version="0.9" energy_unit="hartree" length_unit="bohr"
 uuid="3aca2120-4aff-11e6-5388-9a52feeb3ffc">
<provenance creator="psop 0.9" date="2016-01-01">
<annotation source-uuid="ce043670-4afe-11e6-7d89-7f6e7b7fc2b5"
 command-line="/Users/ag/L/Siesta/trunk-psml/Pseudo/vnl-operator/psop -3 -p Si.soft.psml"
 local-potential="inserted" nonlocal-projectors="inserted" />
</provenance>
<provenance creator="ATM4.0.2" date="16-JUL-16">
<input-file name="INP">
<![CDATA[#
#  Pseudopotential generation for Silicon
#  pg: simple generation
#
%define SMOOTH_TAIL_CUTOFF
   pg      Silicon
        tm2      3.0             # PS flavor, logder R
 n=Si c=ca                       # Symbol, XC flavor,{ |r|s}
       0.0       0.0       0.0       0.0       0.0       0.0
    3    4                       # norbs_core, norbs_valence
    3    0      2.00      0.00   # 3s2
    3    1      2.00      0.00   # 3p2
    3    2      0.00      0.00   # 3d0
    4    3      0.00      0.00   # 4f0
      1.90      1.90      1.90      1.90      0.00      0.00
#
# Last line (above):
#    rc(s)     rc(p)     rc(d)     rc(f)   rcore_flag  rcore
#
#23456789012345678901234567890123456789012345678901234567890

]]>
</input-file>
</provenance>
<header atomic-label="Si" z-pseudo="4" atomic-number="14"
 flavor="Troullier-Martins" relativity="no" polarized="no" core-corrections="no">
<exchange-correlation>
<annotation atom-xc-code="ca" siesta-xc-type="LDA" siesta-xc-authors="CA" />
<libxc-info number-of-functionals="2">
<functional name="XC_LDA_X" type="XC_EXCHANGE" id="1" />
<functional name="XC_LDA_C_PZ" type="XC_CORRELATION" id="9" />
</libxc-info>
</exchange-correlation>
<valence-configuration total-valence-charge="4">
<shell n="3" l="s" occupation="2" />
<shell n="3" l="p" occupation="2" />
</valence-configuration>
</header>
<grid npts="1075">
<annotation type="log-atom" nrval="1075" scale="0.177053726905E-03"
 step="0.125000000000E-01" />
<grid-data>
  0.000000000000E+00  2.227061723960E-06  4.482136435893E-06  6.765576495810E-06
  9.077738695867E-06  1.141898431611E-05  1.378967918094E-05  1.619019371623E-05
  1.862090300729E-05  2.108218685737E-05  2.357442984708E-05  2.609802139447E-05
  2.865335581585E-05  3.124083238742E-05  3.386085540765E-05  3.651383426048E-05
  3.920018347925E-05  4.192032281148E-05  4.467467728450E-05  4.746367727177E-05
  5.028775856024E-05  5.314736241833E-05  5.604293566498E-05  5.897493073940E-05
  6.194380577178E-05  6.495002465488E-05  6.799405711653E-05  7.107637879298E-05
  7.419747130327E-05  7.735782232446E-05  8.055792566781E-05  8.379828135600E-05
  8.707939570118E-05  9.040178138416E-05  9.376595753445E-05  9.717244981141E-05
  1.006217904864E-04  1.041145185259E-04  1.076511796759E-04  1.112323265467E-04
  1.148585186998E-04  1.185303227353E-04  1.222483123799E-04  1.260130685770E-04
  1.298251795776E-04  1.336852410316E-04  1.375938560816E-04  1.415516354565E-04
  1.455591975676E-04  1.496171686045E-04  1.537261826333E-04  1.578868816961E-04
  1.620999159104E-04  1.663659435713E-04  1.706856312545E-04  1.750596539199E-04
  1.794886950174E-04  1.839734465937E-04  1.885146094004E-04  1.931128930035E-04
  1.977690158939E-04  2.024837056006E-04  2.072576988032E-04  2.120917414480E-04
  2.169865888639E-04  2.219430058808E-04  2.269617669491E-04  2.320436562602E-04
  2.371894678697E-04  2.424000058212E-04  2.476760842718E-04  2.530185276196E-04
  2.584281706321E-04  2.639058585771E-04  2.694524473544E-04  2.750688036300E-04
  2.807558049707E-04  2.865143399823E-04  2.923453084474E-04  2.982496214668E-04
  3.042282016014E-04  3.102819830165E-04  3.164119116277E-04  3.226189452490E-04
  3.289040537418E-04  3.352682191673E-04  3.417124359392E-04  3.482377109794E-04
  3.548450638756E-04  3.615355270399E-04  3.683101458710E-04  3.751699789167E-04
  3.821160980400E-04  3.891495885860E-04  3.962715495521E-04  4.034830937590E-04
  4.107853480253E-04  4.181794533430E-04  4.256665650561E-04  4.332478530411E-04
  4.409245018896E-04  4.486977110936E-04  4.565686952330E-04  4.645386841649E-04
  4.726089232164E-04  4.807806733787E-04  4.890552115044E-04  4.974338305070E-04
  5.059178395627E-04  5.145085643151E-04  5.232073470825E-04  5.320155470675E-04
  5.409345405691E-04  5.499657211983E-04  5.591105000953E-04  5.683703061506E-04
  5.777465862276E-04  5.872408053892E-04  5.968544471264E-04  6.065890135904E-04
  6.164460258269E-04  6.264270240141E-04  6.365335677034E-04  6.467672360627E-04
  6.571296281235E-04  6.676223630307E-04  6.782470802955E-04  6.890054400516E-04
  6.998991233144E-04  7.109298322443E-04  7.220992904120E-04  7.334092430679E-04
  7.448614574153E-04  7.564577228858E-04  7.681998514196E-04  7.800896777482E-04
  7.921290596810E-04  8.043198783961E-04  8.166640387337E-04  8.291634694938E-04
  8.418201237381E-04  8.546359790944E-04  8.676130380663E-04  8.807533283456E-04
  8.940589031294E-04  9.075318414408E-04  9.211742484539E-04  9.349882558226E-04
  9.489760220134E-04  9.631397326435E-04  9.774816008214E-04  9.920038674931E-04
  1.006708801792E-03  1.021598701395E-03  1.036675892879E-03  1.051942732085E-03
  1.067401604488E-03  1.083054925568E-03  1.098905141189E-03  1.114954727979E-03
  1.131206193719E-03  1.147662077733E-03  1.164324951287E-03  1.181197417988E-03
  1.198282114194E-03  1.215581709424E-03  1.233098906773E-03  1.250836443341E-03
  1.268797090653E-03  1.286983655096E-03  1.305398978360E-03  1.324045937874E-03
  1.342927447265E-03  1.362046456807E-03  1.381405953884E-03  1.401008963457E-03
  1.420858548536E-03  1.440957810658E-03  1.461309890376E-03  1.481917967742E-03
  1.502785262810E-03  1.523915036138E-03  1.545310589296E-03  1.566975265383E-03
  1.588912449548E-03  1.611125569521E-03  1.633618096147E-03  1.656393543929E-03
  1.679455471578E-03  1.702807482566E-03  1.726453225692E-03  1.750396395653E-03
  1.774640733616E-03  1.799190027810E-03  1.824048114111E-03  1.849218876646E-03
  1.874706248398E-03  1.900514211820E-03  1.926646799460E-03  1.953108094587E-03
  1.979902231832E-03  2.007033397835E-03  2.034505831894E-03  2.062323826633E-03
  2.090491728672E-03  2.119013939301E-03  2.147894915174E-03  2.177139169003E-03
  2.206751270261E-03  2.236735845901E-03  2.267097581071E-03  2.297841219857E-03
  2.328971566013E-03  2.360493483719E-03  2.392411898340E-03  2.424731797193E-03
  2.457458230327E-03  2.490596311314E-03  2.524151218047E-03  2.558128193548E-03
  2.592532546790E-03  2.627369653521E-03  2.662644957111E-03  2.698363969398E-03
  2.734532271550E-03  2.771155514938E-03  2.808239422018E-03  2.845789787226E-03
  2.883812477884E-03  2.922313435113E-03  2.961298674767E-03  3.000774288369E-03
  3.040746444064E-03  3.081221387582E-03  3.122205443215E-03  3.163705014807E-03
  3.205726586748E-03  3.248276724996E-03  3.291362078096E-03  3.334989378222E-03
  3.379165442228E-03  3.423897172715E-03  3.469191559106E-03  3.515055678742E-03
  3.561496697983E-03  3.608521873335E-03  3.656138552576E-03  3.704354175909E-03
  3.753176277124E-03  3.802612484774E-03  3.852670523365E-03  3.903358214569E-03
  3.954683478441E-03  4.006654334657E-03  4.059278903769E-03  4.112565408474E-03
  4.166522174897E-03  4.221157633890E-03  4.276480322358E-03  4.332498884581E-03
  4.389222073574E-03  4.446658752452E-03  4.504817895811E-03  4.563708591137E-03
  4.623340040220E-03  4.683721560596E-03  4.744862587000E-03  4.806772672841E-03
  4.869461491697E-03  4.932938838824E-03  4.997214632685E-03  5.062298916504E-03
  5.128201859833E-03  5.194933760142E-03  5.262505044425E-03  5.330926270832E-03
  5.400208130320E-03  5.470361448321E-03  5.541397186432E-03  5.613326444133E-03
  5.686160460517E-03  5.759910616045E-03  5.834588434332E-03  5.910205583936E-03
  5.986773880193E-03  6.064305287054E-03  6.142811918959E-03  6.222306042728E-03
  6.302800079482E-03  6.384306606576E-03  6.466838359571E-03  6.550408234222E-03
  6.635029288492E-03  6.720714744592E-03  6.807477991049E-03  6.895332584797E-03
  6.984292253296E-03  7.074370896673E-03  7.165582589901E-03  7.257941584993E-03
  7.351462313228E-03  7.446159387412E-03  7.542047604154E-03  7.639141946184E-03
  7.737457584691E-03  7.837009881691E-03  7.937814392436E-03  8.039886867833E-03
  8.143243256916E-03  8.247899709331E-03  8.353872577861E-03  8.461178420982E-03
  8.569834005451E-03  8.679856308924E-03  8.791262522609E-03  8.904070053955E-03
  9.018296529367E-03  9.133959796965E-03  9.251077929369E-03  9.369669226526E-03
  9.489752218568E-03  9.611345668705E-03  9.734468576163E-03  9.859140179147E-03
  9.985379957846E-03  1.011320763748E-02  1.024264319140E-02  1.037370684415E-02
  1.050641907471E-02  1.064080061963E-02  1.077687247630E-02  1.091465590623E-02
  1.105417243835E-02  1.119544387242E-02  1.133849228237E-02  1.148334001981E-02
  1.163000971749E-02  1.177852429287E-02  1.192890695163E-02  1.208118119138E-02
  1.223537080527E-02  1.239149988575E-02  1.254959282830E-02  1.270967433527E-02
  1.287176941972E-02  1.303590340933E-02  1.320210195038E-02  1.337039101172E-02
  1.354079688886E-02  1.371334620808E-02  1.388806593054E-02  1.406498335656E-02
  1.424412612986E-02  1.442552224184E-02  1.460920003603E-02  1.479518821246E-02
  1.498351583215E-02  1.517421232168E-02  1.536730747775E-02  1.556283147190E-02
  1.576081485513E-02  1.596128856275E-02  1.616428391918E-02  1.636983264287E-02
  1.657796685122E-02  1.678871906563E-02  1.700212221655E-02  1.721820964866E-02
  1.743701512607E-02  1.765857283757E-02  1.788291740201E-02  1.811008387368E-02
  1.834010774780E-02  1.857302496608E-02  1.880887192230E-02  1.904768546804E-02
  1.928950291838E-02  1.953436205781E-02  1.978230114605E-02  2.003335892410E-02
  2.028757462025E-02  2.054498795621E-02  2.080563915335E-02  2.106956893893E-02
  2.133681855254E-02  2.160742975246E-02  2.188144482224E-02  2.215890657730E-02
  2.243985837160E-02  2.272434410443E-02  2.301240822726E-02  2.330409575071E-02
  2.359945225153E-02  2.389852387978E-02  2.420135736602E-02  2.450800002859E-02
  2.481849978103E-02  2.513290513957E-02  2.545126523066E-02  2.577362979874E-02
  2.610004921391E-02  2.643057447988E-02  2.676525724189E-02  2.710414979481E-02
  2.744730509127E-02  2.779477675001E-02  2.814661906417E-02  2.850288700982E-02
  2.886363625457E-02  2.922892316621E-02  2.959880482156E-02  2.997333901539E-02
  3.035258426943E-02  3.073659984152E-02  3.112544573488E-02  3.151918270746E-02
  3.191787228147E-02  3.232157675296E-02  3.273035920159E-02  3.314428350044E-02
  3.356341432602E-02  3.398781716839E-02  3.441755834134E-02  3.485270499280E-02
  3.529332511534E-02  3.573948755673E-02  3.619126203078E-02  3.664871912815E-02
  3.711193032745E-02  3.758096800638E-02  3.805590545302E-02  3.853681687732E-02
  3.902377742267E-02  3.951686317764E-02  4.001615118788E-02  4.052171946816E-02
  4.103364701456E-02  4.155201381679E-02  4.207690087072E-02  4.260839019103E-02
  4.314656482400E-02  4.369150886051E-02  4.424330744917E-02  4.480204680964E-02
  4.536781424608E-02  4.594069816080E-02  4.652078806808E-02  4.710817460815E-02
  4.770294956136E-02  4.830520586248E-02  4.891503761531E-02  4.953254010728E-02
  5.015780982443E-02  5.079094446642E-02  5.143204296181E-02  5.208120548357E-02
  5.273853346465E-02  5.340412961388E-02  5.407809793202E-02  5.476054372799E-02
  5.545157363534E-02  5.615129562889E-02  5.685981904162E-02  5.757725458177E-02
  5.830371435009E-02  5.903931185741E-02  5.978416204232E-02  6.053838128920E-02
  6.130208744631E-02  6.207539984432E-02  6.285843931485E-02  6.365132820942E-02
  6.445419041852E-02  6.526715139102E-02  6.609033815371E-02  6.692387933120E-02
  6.776790516600E-02  6.862254753887E-02  6.948793998940E-02  7.036421773694E-02
  7.125151770167E-02  7.214997852600E-02  7.305974059627E-02  7.398094606465E-02
  7.491373887138E-02  7.585826476723E-02  7.681467133628E-02  7.778310801902E-02
  7.876372613564E-02  7.975667890972E-02  8.076212149215E-02  8.178021098539E-02
  8.281110646797E-02  8.385496901943E-02  8.491196174541E-02  8.598224980317E-02
  8.706600042739E-02  8.816338295633E-02  8.927456885823E-02  9.039973175815E-02
  9.153904746508E-02  9.269269399942E-02  9.386085162078E-02  9.504370285618E-02
  9.624143252852E-02  9.745422778551E-02  9.868227812886E-02  9.992577544395E-02
  1.011849140298E-01  1.024598906292E-01  1.037509044601E-01  1.050581572459E-01
  1.063818532475E-01  1.077221992951E-01  1.090794048205E-01  1.104536818898E-01
  1.118452452367E-01  1.132543122957E-01  1.146811032364E-01  1.161258409978E-01
  1.175887513231E-01  1.190700627951E-01  1.205700068716E-01  1.220888179220E-01
  1.236267332636E-01  1.251839931988E-01  1.267608410527E-01  1.283575232108E-01
  1.299742891581E-01  1.316113915176E-01  1.332690860897E-01  1.349476318927E-01
  1.366472912027E-01  1.383683295949E-01  1.401110159852E-01  1.418756226718E-01
  1.436624253781E-01  1.454717032957E-01  1.473037391278E-01  1.491588191339E-01
  1.510372331740E-01  1.529392747540E-01  1.548652410719E-01  1.568154330638E-01
  1.587901554511E-01  1.607897167883E-01  1.628144295109E-01  1.648646099843E-01
  1.669405785535E-01  1.690426595927E-01  1.711711815565E-01  1.733264770305E-01
  1.755088827843E-01  1.777187398231E-01  1.799563934415E-01  1.822221932776E-01
  1.845164933671E-01  1.868396521991E-01  1.891920327719E-01  1.915740026497E-01
  1.939859340202E-01  1.964282037525E-01  1.989011934564E-01  2.014052895414E-01
  2.039408832776E-01  2.065083708568E-01  2.091081534541E-01  2.117406372908E-01
  2.144062336978E-01  2.171053591801E-01  2.198384354815E-01  2.226058896507E-01
  2.254081541081E-01  2.282456667131E-01  2.311188708329E-01  2.340282154116E-01
  2.369741550400E-01  2.399571500273E-01  2.429776664724E-01  2.460361763373E-01
  2.491331575204E-01  2.522690939311E-01  2.554444755661E-01  2.586597985850E-01
  2.619155653888E-01  2.652122846975E-01  2.685504716302E-01  2.719306477856E-01
  2.753533413229E-01  2.788190870450E-01  2.823284264817E-01  2.858819079745E-01
  2.894800867620E-01  2.931235250670E-01  2.968127921842E-01  3.005484645691E-01
  3.043311259280E-01  3.081613673095E-01  3.120397871966E-01  3.159669916004E-01
  3.199435941544E-01  3.239702162109E-01  3.280474869379E-01  3.321760434171E-01
  3.363565307439E-01  3.405896021279E-01  3.448759189953E-01  3.492161510916E-01
  3.536109765870E-01  3.580610821820E-01  3.625671632145E-01  3.671299237690E-01
  3.717500767859E-01  3.764283441737E-01  3.811654569212E-01  3.859621552118E-01
  3.908191885393E-01  3.957373158252E-01  4.007173055369E-01  4.057599358078E-01
  4.108659945592E-01  4.160362796232E-01  4.212715988673E-01  4.265727703208E-01
  4.319406223026E-01  4.373759935504E-01  4.428797333520E-01  4.484527016780E-01
  4.540957693161E-01  4.598098180070E-01  4.655957405824E-01  4.714544411046E-01
  4.773868350073E-01  4.833938492393E-01  4.894764224088E-01  4.956355049300E-01
  5.018720591723E-01  5.081870596100E-01  5.145814929746E-01  5.210563584094E-01
  5.276126676253E-01  5.342514450590E-01  5.409737280329E-01  5.477805669174E-01
  5.546730252950E-01  5.616521801263E-01  5.687191219184E-01  5.758749548954E-01
  5.831207971708E-01  5.904577809221E-01  5.978870525679E-01  6.054097729471E-01
  6.130271175001E-01  6.207402764524E-01  6.285504550008E-01  6.364588735016E-01
  6.444667676612E-01  6.525753887295E-01  6.607860036950E-01  6.690998954829E-01
  6.775183631558E-01  6.860427221164E-01  6.946743043131E-01  7.034144584481E-01
  7.122645501884E-01  7.212259623788E-01  7.303000952582E-01  7.394883666782E-01
  7.487922123251E-01  7.582130859435E-01  7.677524595643E-01  7.774118237338E-01
  7.871926877475E-01  7.970965798852E-01  8.071250476502E-01  8.172796580110E-01
  8.275619976462E-01  8.379736731922E-01  8.485163114945E-01  8.591915598618E-01
  8.700010863233E-01  8.809465798897E-01  8.920297508164E-01  9.032523308716E-01
  9.146160736062E-01  9.261227546280E-01  9.377741718795E-01  9.495721459183E-01
  9.615185202018E-01  9.736151613753E-01  9.858639595636E-01  9.982668286664E-01
  1.010825706657E+00  1.023542555886E+00  1.036419363387E+00  1.049458141187E+00
  1.062660926621E+00  1.076029782653E+00  1.089566798192E+00  1.103274088425E+00
  1.117153795144E+00  1.131208087081E+00  1.145439160249E+00  1.159849238280E+00
  1.174440572780E+00  1.189215443674E+00  1.204176159565E+00  1.219325058096E+00
  1.234664506314E+00  1.250196901037E+00  1.265924669235E+00  1.281850268402E+00
  1.297976186948E+00  1.314304944578E+00  1.330839092694E+00  1.347581214792E+00
  1.364533926861E+00  1.381699877797E+00  1.399081749816E+00  1.416682258869E+00
  1.434504155072E+00  1.452550223133E+00  1.470823282787E+00  1.489326189236E+00
  1.508061833597E+00  1.527033143353E+00  1.546243082810E+00  1.565694653559E+00
  1.585390894947E+00  1.605334884554E+00  1.625529738668E+00  1.645978612775E+00
  1.666684702055E+00  1.687651241875E+00  1.708881508300E+00  1.730378818602E+00
  1.752146531781E+00  1.774188049085E+00  1.796506814546E+00  1.819106315517E+00
  1.841990083215E+00  1.865161693277E+00  1.888624766313E+00  1.912382968477E+00
  1.936440012034E+00  1.960799655949E+00  1.985465706464E+00  2.010442017700E+00
  2.035732492256E+00  2.061341081822E+00  2.087271787790E+00  2.113528661886E+00
  2.140115806801E+00  2.167037376830E+00  2.194297578523E+00  2.221900671342E+00
  2.249850968327E+00  2.278152836767E+00  2.306810698888E+00  2.335829032539E+00
  2.365212371894E+00  2.394965308159E+00  2.425092490291E+00  2.455598625723E+00
  2.486488481102E+00  2.517766883029E+00  2.549438718820E+00  2.581508937262E+00
  2.613982549393E+00  2.646864629280E+00  2.680160314816E+00  2.713874808519E+00
  2.748013378347E+00  2.782581358521E+00  2.817584150359E+00  2.853027223118E+00
  2.888916114849E+00  2.925256433267E+00  2.962053856618E+00  2.999314134576E+00
  3.037043089135E+00  3.075246615520E+00  3.113930683110E+00  3.153101336371E+00
  3.192764695795E+00  3.232926958863E+00  3.273594401011E+00  3.314773376610E+00
  3.356470319957E+00  3.398691746286E+00  3.441444252780E+00  3.484734519605E+00
  3.528569310954E+00  3.572955476101E+00  3.617899950476E+00  3.663409756744E+00
  3.709492005904E+00  3.756153898402E+00  3.803402725254E+00  3.851245869185E+00
  3.899690805783E+00  3.948745104669E+00  3.998416430676E+00  4.048712545051E+00
  4.099641306662E+00  4.151210673234E+00  4.203428702584E+00  4.256303553885E+00
  4.309843488942E+00  4.364056873477E+00  4.418952178442E+00  4.474537981341E+00
  4.530822967568E+00  4.587815931766E+00  4.645525779203E+00  4.703961527159E+00
  4.763132306339E+00  4.823047362298E+00  4.883716056884E+00  4.945147869706E+00
  5.007352399608E+00  5.070339366175E+00  5.134118611249E+00  5.198700100466E+00
  5.264093924816E+00  5.330310302216E+00  5.397359579111E+00  5.465252232086E+00
  5.533998869506E+00  5.603610233174E+00  5.674097200006E+00  5.745470783735E+00
  5.817742136628E+00  5.890922551231E+00  5.965023462133E+00  6.040056447752E+00
  6.116033232145E+00  6.192965686838E+00  6.270865832684E+00  6.349745841740E+00
  6.429618039168E+00  6.510494905160E+00  6.592389076892E+00  6.675313350494E+00
  6.759280683053E+00  6.844304194636E+00  6.930397170340E+00  7.017573062366E+00
  7.105845492126E+00  7.195228252365E+00  7.285735309323E+00  7.377380804911E+00
  7.470179058924E+00  7.564144571278E+00  7.659292024276E+00  7.755636284901E+00
  7.853192407139E+00  7.951975634333E+00  8.052001401564E+00  8.153285338060E+00
  8.255843269644E+00  8.359691221200E+00  8.464845419182E+00  8.571322294148E+00
  8.679138483326E+00  8.788310833214E+00  8.898856402216E+00  9.010792463300E+00
  9.124136506704E+00  9.238906242665E+00  9.355119604189E+00  9.472794749849E+00
  9.591950066626E+00  9.712604172781E+00  9.834775920763E+00  9.958484400157E+00
  1.008374894066E+01  1.021058911512E+01  1.033902474257E+01  1.046907589134E+01
  1.060076288217E+01  1.073410629144E+01  1.086912695432E+01  1.100584596807E+01
  1.114428469530E+01  1.128446476736E+01  1.142640808766E+01  1.157013683513E+01
  1.171567346769E+01  1.186304072574E+01  1.201226163569E+01  1.216335951363E+01
  1.231635796891E+01  1.247128090784E+01  1.262815253745E+01  1.278699736925E+01
  1.294784022307E+01  1.311070623093E+01  1.327562084098E+01  1.344260982147E+01
  1.361169926475E+01  1.378291559140E+01  1.395628555431E+01  1.413183624291E+01
  1.430959508733E+01  1.448958986276E+01  1.467184869376E+01  1.485640005863E+01
  1.504327279389E+01  1.523249609880E+01  1.542409953989E+01  1.561811305557E+01
  1.581456696086E+01  1.601349195207E+01  1.621491911165E+01  1.641887991299E+01
  1.662540622539E+01  1.683453031900E+01  1.704628486989E+01  1.726070296514E+01
  1.747781810800E+01  1.769766422317E+01  1.792027566205E+01  1.814568720812E+01
  1.837393408240E+01  1.860505194893E+01  1.883907692034E+01  1.907604556351E+01
  1.931599490528E+01  1.955896243822E+01  1.980498612650E+01  2.005410441181E+01
  2.030635621941E+01  2.056178096414E+01  2.082041855665E+01  2.108230940959E+01
  2.134749444392E+01  2.161601509536E+01  2.188791332080E+01  2.216323160489E+01
  2.244201296668E+01  2.272430096632E+01  2.301013971188E+01  2.329957386625E+01
  2.359264865411E+01  2.388940986898E+01  2.418990388041E+01  2.449417764120E+01
  2.480227869475E+01  2.511425518248E+01  2.543015585133E+01  2.575003006144E+01
  2.607392779380E+01  2.640189965809E+01  2.673399690058E+01  2.707027141214E+01
  2.741077573635E+01  2.775556307771E+01  2.810468730992E+01  2.845820298438E+01
  2.881616533861E+01  2.917863030497E+01  2.954565451935E+01  2.991729533002E+01
  3.029361080661E+01  3.067465974920E+01  3.106050169744E+01  3.145119693993E+01
  3.184680652360E+01  3.224739226324E+01  3.265301675120E+01  3.306374336712E+01
  3.347963628787E+01  3.390076049758E+01  3.432718179775E+01  3.475896681758E+01
  3.519618302436E+01  3.563889873401E+01  3.608718312176E+01  3.654110623296E+01
  3.700073899401E+01  3.746615322348E+01  3.793742164327E+01  3.841461789005E+01
  3.889781652670E+01  3.938709305398E+01  3.988252392234E+01  4.038418654388E+01
  4.089215930439E+01  4.140652157566E+01  4.192735372782E+01  4.245473714198E+01
  4.298875422285E+01  4.352948841170E+01  4.407702419933E+01  4.463144713934E+01
  4.519284386143E+01  4.576130208499E+01  4.633691063276E+01  4.691975944476E+01
  4.750993959230E+01  4.810754329222E+01  4.871266392132E+01  4.932539603093E+01
  4.994583536169E+01  5.057407885851E+01  5.121022468570E+01  5.185437224236E+01
  5.250662217784E+01  5.316707640753E+01  5.383583812874E+01  5.451301183686E+01
  5.519870334164E+01  5.589301978379E+01  5.659606965166E+01  5.730796279823E+01
  5.802881045824E+01  5.875872526561E+01  5.949782127102E+01  6.024621395971E+01
  6.100402026957E+01  6.177135860938E+01  6.254834887730E+01  6.333511247967E+01
  6.413177234987E+01  6.493845296765E+01  6.575528037849E+01  6.658238221334E+01
  6.741988770853E+01  6.826792772601E+01  6.912663477375E+01  6.999614302648E+01
  7.087658834663E+01  7.176810830558E+01  7.267084220512E+01  7.358493109928E+01
  7.451051781629E+01  7.544774698098E+01  7.639676503729E+01  7.735772027123E+01
  7.833076283402E+01  7.931604476553E+01  8.031372001807E+01  8.132394448043E+01
  8.234687600223E+01  8.338267441861E+01  8.443150157517E+01  8.549352135330E+01
  8.656889969574E+01  8.765780463255E+01  8.876040630734E+01  8.987687700387E+01
  9.100739117295E+01  9.215212545972E+01  9.331125873124E+01  9.448497210445E+01
  9.567344897445E+01  9.687687504316E+01  9.809543834836E+01  9.932932929304E+01
  1.005787406752E+02  1.018438677178E+02  1.031249080997E+02  1.044220619859E+02
  1.057355320595E+02  1.070655235526E+02  1.084122442794E+02  1.097759046675E+02
  1.111567177918E+02  1.125548994070E+02  1.139706679819E+02  1.154042447332E+02
  1.168558536603E+02  1.183257215798E+02  1.198140781618E+02
</grid-data>
</grid>
<semilocal-potentials set="non_relativistic">
<slps n="3" l="s" rc="1.88862476631" flavor="Troullier-Martins">
<radfunc>
<data>
 -2.599747086382E-01 -2.599747086340E-01 -2.599747086298E-01 -2.599747086226E-01
 -2.599747086123E-01 -2.599747085988E-01 -2.599747085820E-01 -2.599747085617E-01
 -2.599747085380E-01 -2.599747085105E-01 -2.599747084792E-01 -2.599747084439E-01
 -2.599747084046E-01 -2.599747083610E-01 -2.599747083131E-01 -2.599747082606E-01
 -2.599747082034E-01 -2.599747081413E-01 -2.599747080743E-01 -2.599747080020E-01
 -2.599747079244E-01 -2.599747078413E-01 -2.599747077524E-01 -2.599747076575E-01
 -2.599747075566E-01 -2.599747074494E-01 -2.599747073356E-01 -2.599747072151E-01
 -2.599747070876E-01 -2.599747069529E-01 -2.599747068108E-01 -2.599747066611E-01
 -2.599747065034E-01 -2.599747063377E-01 -2.599747061634E-01 -2.599747059806E-01
 -2.599747057888E-01 -2.599747055877E-01 -2.599747053771E-01 -2.599747051567E-01
 -2.599747049262E-01 -2.599747046853E-01 -2.599747044336E-01 -2.599747041708E-01
 -2.599747038966E-01 -2.599747036106E-01 -2.599747033125E-01 -2.599747030018E-01
 -2.599747026783E-01 -2.599747023416E-01 -2.599747019911E-01 -2.599747016266E-01
 -2.599747012475E-01 -2.599747008535E-01 -2.599747004442E-01 -2.599747000190E-01
 -2.599746995775E-01 -2.599746991192E-01 -2.599746986436E-01 -2.599746981502E-01
 -2.599746976385E-01 -2.599746971079E-01 -2.599746965579E-01 -2.599746959880E-01
 -2.599746953975E-01 -2.599746947858E-01 -2.599746941523E-01 -2.599746934965E-01
 -2.599746928176E-01 -2.599746921150E-01 -2.599746913880E-01 -2.599746906359E-01
 -2.599746898580E-01 -2.599746890536E-01 -2.599746882218E-01 -2.599746873620E-01
 -2.599746864732E-01 -2.599746855548E-01 -2.599746846058E-01 -2.599746836253E-01
 -2.599746826126E-01 -2.599746815667E-01 -2.599746804865E-01 -2.599746793713E-01
 -2.599746782200E-01 -2.599746770316E-01 -2.599746758050E-01 -2.599746745391E-01
 -2.599746732330E-01 -2.599746718854E-01 -2.599746704952E-01 -2.599746690613E-01
 -2.599746675823E-01 -2.599746660571E-01 -2.599746644844E-01 -2.599746628628E-01
 -2.599746611910E-01 -2.599746594677E-01 -2.599746576913E-01 -2.599746558605E-01
 -2.599746539737E-01 -2.599746520294E-01 -2.599746500260E-01 -2.599746479620E-01
 -2.599746458355E-01 -2.599746436451E-01 -2.599746413888E-01 -2.599746390649E-01
 -2.599746366715E-01 -2.599746342068E-01 -2.599746316688E-01 -2.599746290555E-01
 -2.599746263649E-01 -2.599746235949E-01 -2.599746207433E-01 -2.599746178079E-01
 -2.599746147865E-01 -2.599746116767E-01 -2.599746084761E-01 -2.599746051823E-01
 -2.599746017928E-01 -2.599745983050E-01 -2.599745947163E-01 -2.599745910238E-01
 -2.599745872250E-01 -2.599745833168E-01 -2.599745792963E-01 -2.599745751607E-01
 -2.599745709066E-01 -2.599745665311E-01 -2.599745620309E-01 -2.599745574025E-01
 -2.599745526426E-01 -2.599745477478E-01 -2.599745427143E-01 -2.599745375385E-01
 -2.599745322165E-01 -2.599745267446E-01 -2.599745211188E-01 -2.599745153348E-01
 -2.599745093886E-01 -2.599745032758E-01 -2.599744969920E-01 -2.599744905327E-01
 -2.599744838932E-01 -2.599744770688E-01 -2.599744700545E-01 -2.599744628453E-01
 -2.599744554362E-01 -2.599744478217E-01 -2.599744399966E-01 -2.599744319551E-01
 -2.599744236917E-01 -2.599744152004E-01 -2.599744064753E-01 -2.599743975103E-01
 -2.599743882989E-01 -2.599743788347E-01 -2.599743691111E-01 -2.599743591213E-01
 -2.599743488582E-01 -2.599743383147E-01 -2.599743274834E-01 -2.599743163568E-01
 -2.599743049272E-01 -2.599742931866E-01 -2.599742811268E-01 -2.599742687395E-01
 -2.599742560162E-01 -2.599742429480E-01 -2.599742295260E-01 -2.599742157408E-01
 -2.599742015830E-01 -2.599741870429E-01 -2.599741721105E-01 -2.599741567755E-01
 -2.599741410275E-01 -2.599741248557E-01 -2.599741082490E-01 -2.599740911962E-01
 -2.599740736855E-01 -2.599740557051E-01 -2.599740372428E-01 -2.599740182860E-01
 -2.599739988218E-01 -2.599739788372E-01 -2.599739583184E-01 -2.599739372518E-01
 -2.599739156230E-01 -2.599738934175E-01 -2.599738706202E-01 -2.599738472159E-01
 -2.599738231888E-01 -2.599737985228E-01 -2.599737732012E-01 -2.599737472072E-01
 -2.599737205233E-01 -2.599736931316E-01 -2.599736650138E-01 -2.599736361511E-01
 -2.599736065243E-01 -2.599735761135E-01 -2.599735448986E-01 -2.599735128588E-01
 -2.599734799726E-01 -2.599734462183E-01 -2.599734115734E-01 -2.599733760150E-01
 -2.599733395194E-01 -2.599733020624E-01 -2.599732636194E-01 -2.599732241648E-01
 -2.599731836725E-01 -2.599731421158E-01 -2.599730994672E-01 -2.599730556987E-01
 -2.599730107814E-01 -2.599729646856E-01 -2.599729173811E-01 -2.599728688366E-01
 -2.599728190204E-01 -2.599727678997E-01 -2.599727154408E-01 -2.599726616094E-01
 -2.599726063703E-01 -2.599725496871E-01 -2.599724915228E-01 -2.599724318393E-01
 -2.599723705976E-01 -2.599723077577E-01 -2.599722432785E-01 -2.599721771178E-01
 -2.599721092326E-01 -2.599720395786E-01 -2.599719681103E-01 -2.599718947812E-01
 -2.599718195436E-01 -2.599717423485E-01 -2.599716631458E-01 -2.599715818839E-01
 -2.599714985101E-01 -2.599714129702E-01 -2.599713252087E-01 -2.599712351686E-01
 -2.599711427918E-01 -2.599710480182E-01 -2.599709507864E-01 -2.599708510337E-01
 -2.599707486953E-01 -2.599706437052E-01 -2.599705359954E-01 -2.599704254964E-01
 -2.599703121368E-01 -2.599701958435E-01 -2.599700765414E-01 -2.599699541535E-01
 -2.599698286010E-01 -2.599696998030E-01 -2.599695676765E-01 -2.599694321365E-01
 -2.599692930956E-01 -2.599691504646E-01 -2.599690041517E-01 -2.599688540628E-01
 -2.599687001016E-01 -2.599685421690E-01 -2.599683801639E-01 -2.599682139821E-01
 -2.599680435172E-01 -2.599678686597E-01 -2.599676892977E-01 -2.599675053162E-01
 -2.599673165973E-01 -2.599671230203E-01 -2.599669244613E-01 -2.599667207932E-01
 -2.599665118858E-01 -2.599662976056E-01 -2.599660778155E-01 -2.599658523752E-01
 -2.599656211408E-01 -2.599653839646E-01 -2.599651406952E-01 -2.599648911774E-01
 -2.599646352522E-01 -2.599643727564E-01 -2.599641035227E-01 -2.599638273796E-01
 -2.599635441512E-01 -2.599632536571E-01 -2.599629557126E-01 -2.599626501281E-01
 -2.599623367092E-01 -2.599620152566E-01 -2.599616855660E-01 -2.599613474279E-01
 -2.599610006276E-01 -2.599606449449E-01 -2.599602801539E-01 -2.599599060231E-01