<?xml version="1.0" encoding="UTF-8" ?>
<psml version="1.1" energy_unit="hartree" length_unit="bohr"
 uuid="892ccc00-7303-11e7-6e21-1ea5ed9f1753"
 xmlns="http://esl.cecam.org/PSML/ns/1.1">
<provenance record-number="2" creator="psop-1.1" date="2017-07-27">
<annotation source-uuid="4ff87ab0-7303-11e7-7179-ea09b6feac32"
 command-line="psop -o Si.tm2.nrl.vnl.psml Si.nrl.psml"
 action="inserted-local-potential" action-cont="inserted-nonlocal-projectors" />
</provenance>
<provenance record-number="1" creator="ATM4.2.6" date="27-JUL-17">
<annotation action="semilocal-pseudopotential-generation" />
<input-file name="INP">
<![CDATA[#
#  Pseudopotential generation for Silicon
#  pg: simple generation
#
   pg      Silicon
        tm2      3.0             # PS flavor, logder R
 n=Si c=ca                       # Symbol, XC flavor,{ |r|s}
       0.0       0.0       0.0       0.0       0.0       0.0
    3    4                       # norbs_core, norbs_valence
    3    0      2.00      0.00   # 3s2
    3    1      2.00      0.00   # 3p2
    3    2      0.00      0.00   # 3d0
    4    3      0.00      0.00   # 4f0
      1.90      1.90      1.90      1.90      0.00      0.00
#
# Last line (above):
#    rc(s)     rc(p)     rc(d)     rc(f)   rcore_flag  rcore
#
#23456789012345678901234567890123456789012345678901234567890

]]>
</input-file>
</provenance>
<pseudo-atom-spec atomic-label="Si" atomic-number="14" z-pseudo="4"
 flavor="Troullier-Martins" relativity="no" spin-dft="no" core-corrections="no">
<annotation pseudo-energy="-3.74607094364" />
<exchange-correlation>
<annotation atom-xc-code="ca" siesta-xc-type="LDA" siesta-xc-authors="CA" />
<libxc-info number-of-functionals="2">
<functional name="XC_LDA_X" type="XC_EXCHANGE" id="1" />
<functional name="XC_LDA_C_PZ" type="XC_CORRELATION" id="9" />
</libxc-info>
</exchange-correlation>
<valence-configuration total-valence-charge="4">
<shell n="3" l="s" occupation="2" />
<shell n="3" l="p" occupation="2" />
</valence-configuration>
</pseudo-atom-spec>
<grid npts="376">
<annotation type="sampled-log-atom"
 recipe="r(i:1..N) = a*(exp(b*(i-1))-1); resampled"
 recipe-cont="a: scale; b: step" scale="0.177053726905E-03"
 step="0.125000000000E-01" delta="0.500000000000E-02" rmax="20" />
<grid-data>
  0.000000000000E+00  5.062298916504E-03  1.011320763748E-02  1.517421232168E-02
  2.028757462025E-02  2.545126523066E-02  3.073659984152E-02  3.573948755673E-02
  4.103364701456E-02  4.652078806808E-02  5.208120548357E-02  5.757725458177E-02
  6.285843931485E-02  6.862254753887E-02  7.398094606465E-02  7.975667890972E-02
  8.491196174541E-02  9.039973175815E-02  9.624143252852E-02  1.024598906292E-01
  1.077221992951E-01  1.132543122957E-01  1.190700627951E-01  1.251839931988E-01
  1.316113915176E-01  1.366472912027E-01  1.418756226718E-01  1.473037391278E-01
  1.529392747540E-01  1.587901554511E-01  1.648646099843E-01  1.711711815565E-01
  1.777187398231E-01  1.845164933671E-01  1.915740026497E-01  1.989011934564E-01
  2.039408832776E-01  2.091081534541E-01  2.144062336978E-01  2.198384354815E-01
  2.254081541081E-01  2.311188708329E-01  2.369741550400E-01  2.429776664724E-01
  2.491331575204E-01  2.554444755661E-01  2.619155653888E-01  2.685504716302E-01
  2.753533413229E-01  2.823284264817E-01  2.894800867620E-01  2.968127921842E-01
  3.043311259280E-01  3.120397871966E-01  3.199435941544E-01  3.280474869379E-01
  3.363565307439E-01  3.448759189953E-01  3.536109765870E-01  3.625671632145E-01
  3.717500767859E-01  3.811654569212E-01  3.908191885393E-01  4.007173055369E-01
  4.057599358078E-01  4.108659945592E-01  4.160362796232E-01  4.212715988673E-01
  4.265727703208E-01  4.319406223026E-01  4.373759935504E-01  4.428797333520E-01
  4.484527016780E-01  4.540957693161E-01  4.598098180070E-01  4.655957405824E-01
  4.714544411046E-01  4.773868350073E-01  4.833938492393E-01  4.894764224088E-01
  4.956355049300E-01  5.018720591723E-01  5.081870596100E-01  5.145814929746E-01
  5.210563584094E-01  5.276126676253E-01  5.342514450590E-01  5.409737280329E-01
  5.477805669174E-01  5.546730252950E-01  5.616521801263E-01  5.687191219184E-01
  5.758749548954E-01  5.831207971708E-01  5.904577809221E-01  5.978870525679E-01
  6.054097729471E-01  6.130271175001E-01  6.207402764524E-01  6.285504550008E-01
  6.364588735016E-01  6.444667676612E-01  6.525753887295E-01  6.607860036950E-01
  6.690998954829E-01  6.775183631558E-01  6.860427221164E-01  6.946743043131E-01
  7.034144584481E-01  7.122645501884E-01  7.212259623788E-01  7.303000952582E-01
  7.394883666782E-01  7.487922123251E-01  7.582130859435E-01  7.677524595643E-01
  7.774118237338E-01  7.871926877475E-01  7.970965798852E-01  8.071250476502E-01
  8.172796580110E-01  8.275619976462E-01  8.379736731922E-01  8.485163114945E-01
  8.591915598618E-01  8.700010863233E-01  8.809465798897E-01  8.920297508164E-01
  9.032523308716E-01  9.146160736062E-01  9.261227546280E-01  9.377741718795E-01
  9.495721459183E-01  9.615185202018E-01  9.736151613753E-01  9.858639595636E-01
  9.982668286664E-01  1.010825706657E+00  1.023542555886E+00  1.036419363387E+00
  1.049458141187E+00  1.062660926621E+00  1.076029782653E+00  1.089566798192E+00
  1.103274088425E+00  1.117153795144E+00  1.131208087081E+00  1.145439160249E+00
  1.159849238280E+00  1.174440572780E+00  1.189215443674E+00  1.204176159565E+00
  1.219325058096E+00  1.234664506314E+00  1.250196901037E+00  1.265924669235E+00
  1.281850268402E+00  1.297976186948E+00  1.314304944578E+00  1.330839092694E+00
  1.347581214792E+00  1.364533926861E+00  1.381699877797E+00  1.399081749816E+00
  1.416682258869E+00  1.434504155072E+00  1.452550223133E+00  1.470823282787E+00
  1.489326189236E+00  1.508061833597E+00  1.527033143353E+00  1.546243082810E+00
  1.565694653559E+00  1.585390894947E+00  1.605334884554E+00  1.625529738668E+00
  1.645978612775E+00  1.666684702055E+00  1.687651241875E+00  1.708881508300E+00
  1.730378818602E+00  1.752146531781E+00  1.774188049085E+00  1.796506814546E+00
  1.819106315517E+00  1.841990083215E+00  1.865161693277E+00  1.888624766313E+00
  1.912382968477E+00  1.936440012034E+00  1.960799655949E+00  1.985465706464E+00
  2.010442017700E+00  2.035732492256E+00  2.061341081822E+00  2.087271787790E+00
  2.113528661886E+00  2.140115806801E+00  2.167037376830E+00  2.194297578523E+00
  2.221900671342E+00  2.249850968327E+00  2.278152836767E+00  2.306810698888E+00
  2.335829032539E+00  2.365212371894E+00  2.394965308159E+00  2.425092490291E+00
  2.455598625723E+00  2.486488481102E+00  2.517766883029E+00  2.549438718820E+00
  2.581508937262E+00  2.613982549393E+00  2.646864629280E+00  2.680160314816E+00
  2.713874808519E+00  2.748013378347E+00  2.782581358521E+00  2.817584150359E+00
  2.853027223118E+00  2.888916114849E+00  2.925256433267E+00  2.962053856618E+00
  2.999314134576E+00  3.037043089135E+00  3.075246615520E+00  3.113930683110E+00
  3.153101336371E+00  3.192764695795E+00  3.232926958863E+00  3.273594401011E+00
  3.314773376610E+00  3.356470319957E+00  3.398691746286E+00  3.441444252780E+00
  3.484734519605E+00  3.528569310954E+00  3.572955476101E+00  3.617899950476E+00
  3.663409756744E+00  3.709492005904E+00  3.756153898402E+00  3.803402725254E+00
  3.851245869185E+00  3.899690805783E+00  3.948745104669E+00  3.998416430676E+00
  4.048712545051E+00  4.099641306662E+00  4.151210673234E+00  4.203428702584E+00
  4.256303553885E+00  4.309843488942E+00  4.364056873477E+00  4.418952178442E+00
  4.474537981341E+00  4.530822967568E+00  4.587815931766E+00  4.645525779203E+00
  4.703961527159E+00  4.763132306339E+00  4.823047362298E+00  4.883716056884E+00
  4.945147869706E+00  5.007352399608E+00  5.070339366175E+00  5.134118611249E+00
  5.198700100466E+00  5.264093924816E+00  5.330310302216E+00  5.397359579111E+00
  5.465252232086E+00  5.533998869506E+00  5.603610233174E+00  5.674097200006E+00
  5.745470783735E+00  5.817742136628E+00  5.890922551231E+00  5.965023462133E+00
  6.040056447752E+00  6.116033232145E+00  6.192965686838E+00  6.270865832684E+00
  6.349745841740E+00  6.429618039168E+00  6.510494905160E+00  6.592389076892E+00
  6.675313350494E+00  6.759280683053E+00  6.844304194636E+00  6.930397170340E+00
  7.017573062366E+00  7.105845492126E+00  7.195228252365E+00  7.285735309323E+00
  7.377380804911E+00  7.470179058924E+00  7.564144571278E+00  7.659292024276E+00
  7.755636284901E+00  7.853192407139E+00  7.951975634333E+00  8.052001401564E+00
  8.153285338060E+00  8.255843269644E+00  8.359691221200E+00  8.464845419182E+00
  8.571322294148E+00  8.679138483326E+00  8.788310833214E+00  8.898856402216E+00
  9.010792463300E+00  9.124136506704E+00  9.238906242665E+00  9.355119604189E+00
  9.472794749849E+00  9.591950066626E+00  9.712604172781E+00  9.834775920763E+00
  9.958484400157E+00  1.008374894066E+01  1.021058911512E+01  1.033902474257E+01
  1.046907589134E+01  1.060076288217E+01  1.073410629144E+01  1.086912695432E+01
  1.100584596807E+01  1.114428469530E+01  1.128446476736E+01  1.142640808766E+01
  1.157013683513E+01  1.171567346769E+01  1.186304072574E+01  1.201226163569E+01
  1.216335951363E+01  1.231635796891E+01  1.247128090784E+01  1.262815253745E+01
  1.278699736925E+01  1.294784022307E+01  1.311070623093E+01  1.327562084098E+01
  1.344260982147E+01  1.361169926475E+01  1.378291559140E+01  1.395628555431E+01
  1.413183624291E+01  1.430959508733E+01  1.448958986276E+01  1.467184869376E+01
  1.485640005863E+01  1.504327279389E+01  1.523249609880E+01  1.542409953989E+01
  1.561811305557E+01  1.581456696086E+01  1.601349195207E+01  1.621491911165E+01
  1.641887991299E+01  1.662540622539E+01  1.683453031900E+01  1.704628486989E+01
  1.726070296514E+01  1.747781810800E+01  1.769766422317E+01  1.792027566205E+01
  1.814568720812E+01  1.837393408240E+01  1.860505194893E+01  1.883907692034E+01
  1.907604556351E+01  1.931599490528E+01  1.955896243822E+01  1.980498612650E+01
</grid-data>
</grid>
<valence-charge total-charge="4">
<radfunc>
<data>
  1.419236680861E-01  1.419353119164E-01  1.419701384831E-01  1.420282864613E-01
  1.421106724991E-01  1.422179781148E-01  1.423528993107E-01  1.425039898548E-01
  1.426886362516E-01  1.429068785779E-01  1.431559275705E-01  1.434296804551E-01
  1.437185653502E-01  1.440627584575E-01  1.444097654569E-01  1.448129681185E-01
  1.451984115943E-01  1.456351924669E-01  1.461301383298E-01  1.466909828111E-01
  1.471929538701E-01  1.477476968075E-01  1.483607493067E-01  1.490382283150E-01
  1.497868902481E-01  1.503995609504E-01  1.510598856879E-01  1.517715617313E-01
  1.525385718515E-01  1.533652061486E-01  1.542560855147E-01  1.552161868440E-01
  1.562508701154E-01  1.573659074754E-01  1.585675144593E-01  1.598623834937E-01
  1.607809776686E-01  1.617464820015E-01  1.627612800831E-01  1.638278753568E-01
  1.649488970028E-01  1.661271060931E-01  1.673654020278E-01  1.686668292630E-01
  1.700345843391E-01  1.714720232201E-01  1.729826689520E-01  1.745702196499E-01
  1.762385568201E-01  1.779917540243E-01  1.798340858917E-01  1.817700374799E-01
  1.838043139882E-01  1.859418508179E-01  1.881878239762E-01  1.905476608104E-01
  1.930270510579E-01  1.956319581864E-01  1.983686309922E-01  2.012436154128E-01
  2.042637664973E-01  2.074362604601E-01  2.107686067256E-01  2.142686598464E-01
  2.160841282702E-01  2.179446311475E-01  2.198512524757E-01  2.218050999136E-01
  2.238073050897E-01  2.258590238928E-01  2.279614367427E-01  2.301157488376E-01
  2.323231903744E-01  2.345850167391E-01  2.369025086618E-01  2.392769723330E-01
  2.417097394748E-01  2.442021673628E-01  2.467556387906E-01  2.493715619724E-01
  2.520513703739E-01  2.547965224649E-01  2.576085013830E-01  2.604888145003E-01
  2.634389928799E-01  2.664605906118E-01  2.695551840143E-01  2.727243706859E-01
  2.759697683933E-01  2.792930137762E-01  2.826957608510E-01  2.861796792929E-01
  2.897464524729E-01  2.933977752249E-01  2.971353513174E-01  3.009608905984E-01
  3.048761057839E-01  3.088827088534E-01  3.129824070167E-01  3.171768982106E-01
  3.214678660826E-01  3.258569744130E-01  3.303458609274E-01  3.349361304430E-01
  3.396293472910E-01  3.444270269551E-01  3.493306268565E-01  3.543415362192E-01
  3.594610649384E-01  3.646904313758E-01  3.700307490004E-01  3.754830117881E-01
  3.810480782932E-01  3.867266543015E-01  3.925192739705E-01  3.984262793659E-01
  4.044477982987E-01  4.105837203721E-01  4.168336711498E-01  4.231969843605E-01
  4.296726720647E-01  4.362593927141E-01  4.429554170541E-01  4.497585918304E-01
  4.566663012861E-01  4.636754264586E-01  4.707823023188E-01  4.779826728288E-01
  4.852716440418E-01  4.926436354126E-01  5.000923295506E-01  5.076106207075E-01
  5.151905623700E-01  5.228233144078E-01  5.304990903201E-01  5.382071052207E-01
  5.459355253142E-01  5.536714197228E-01  5.614007156517E-01  5.691081579976E-01
  5.767772746342E-01  5.843903487326E-01  5.919283995878E-01  5.993711735375E-01
  6.066971466440E-01  6.138835408888E-01  6.209063556637E-01  6.277404163546E-01
  6.343594417730E-01  6.407361320997E-01  6.468422788543E-01  6.526488981847E-01
  6.581263884740E-01  6.632447128855E-01  6.679736070058E-01  6.722828111992E-01
  6.761423266550E-01  6.795226934048E-01  6.823952878164E-01  6.847326362495E-01
  6.865087407135E-01  6.876994115209E-01  6.882826011179E-01  6.882387325263E-01
  6.875510151999E-01  6.862057406102E-01  6.841925495845E-01  6.815046633592E-01
  6.781390705120E-01  6.740966624334E-01  6.693823108002E-01  6.640048816334E-01
  6.579771819472E-01  6.513158367068E-01  6.440410957793E-01  6.361765727382E-01
  6.277489197129E-01  6.187874449233E-01  6.093236820259E-01  5.993909229089E-01
  5.890237280491E-01  5.782574309824E-01  5.671276558325E-01  5.556698692035E-01
  5.439189900927E-01  5.319090838383E-01  5.196731684832E-01  5.072431642894E-01
  4.946500072911E-01  4.819238530086E-01  4.690941300072E-01  4.561894111303E-01
  4.432373890516E-01  4.302648082307E-01  4.172974107233E-01  4.043598899691E-01
  3.914758495647E-01  3.786677685100E-01  3.659569724475E-01  3.533636108344E-01
  3.409066399171E-01  3.286038113525E-01  3.164716662888E-01  3.045255347003E-01
  2.927795397460E-01  2.812466101420E-01  2.699385053347E-01  2.588658234824E-01
  2.480379928732E-01  2.374633295615E-01  2.271490509761E-01  2.171013155864E-01
  2.073252568974E-01  1.978250213425E-01  1.886038077432E-01  1.796639084016E-01
  1.710067515585E-01  1.626329449734E-01  1.545423203559E-01  1.467339784119E-01
  1.392063342551E-01  1.319571629498E-01  1.249836449598E-01  1.182824112912E-01
  1.118495881296E-01  1.056808407888E-01  9.977141679882E-02  9.411618798055E-02
  8.870969136751E-02  8.354616885074E-02  7.861960543888E-02  7.392376604007E-02
  6.945223068682E-02  6.519842813953E-02  6.115566781752E-02  5.731717001972E-02
  5.367609440916E-02  5.022556674712E-02  4.695870387387E-02  4.386863694219E-02
  4.094853291998E-02  3.819161438614E-02  3.559117765178E-02  3.314060924561E-02
  3.083340080844E-02  2.866316244722E-02  2.662363460321E-02  2.470869849336E-02
  2.291238518664E-02  2.122888337996E-02  1.965254594019E-02  1.817789528006E-02
  1.679962763678E-02  1.551261632231E-02  1.431191401434E-02  1.319275415638E-02
  1.215055153446E-02  1.118090209665E-02  1.027958208028E-02  9.442546509579E-03
  8.665927124709E-03  7.946029800688E-03  7.279331512501E-03  6.662476899990E-03
  6.092274483545E-03  5.565692578899E-03  5.079854956542E-03  4.632036288492E-03
  4.219657422350E-03  3.840280519801E-03  3.491604093953E-03  3.171457977241E-03
  2.877798248950E-03  2.608702148902E-03  2.362363001333E-03  2.137085170652E-03
  1.931279068484E-03  1.743456229251E-03  1.572224469470E-03  1.416283144057E-03
  1.274418511078E-03  1.145499214694E-03  1.028471894496E-03  9.223569279307E-04
  8.262443111945E-04  7.392896827159E-04  6.607104922375E-04  5.897823174677E-04
  5.258353293528E-04  4.682509061844E-04  4.164583960142E-04  3.699320261896E-04
  3.281879582399E-04  2.907814858372E-04  2.573043731137E-04  2.273823302420E-04
  2.006726228639E-04  1.768618116870E-04  1.556636183486E-04  1.368169134741E-04
  1.200838227175E-04  1.052479464765E-04  9.211268890109E-05  8.049969178068E-05
  7.024736887522E-05  6.120953626757E-05  5.325413434036E-05  4.626203702632E-05
  4.012594404160E-05  3.474935188514E-05  3.004559947248E-05  2.593698436727E-05
  2.235394567737E-05  1.923430979299E-05  1.652259526093E-05  1.416937321046E-05
  1.213067987188E-05  1.036747785750E-05  8.845163005369E-06  7.533113718820E-06
  6.404279868180E-06  5.434808454558E-06  4.603703369182E-06  3.892516714223E-06
  3.285069282417E-06  2.767197922329E-06  2.326527643510E-06  1.952266440649E-06
  1.635020937771E-06  1.366631072281E-06  1.140022153864E-06  9.490727447339E-07
  7.884969152118E-07  6.537395319394E-07  5.408833350489E-07  4.465666551716E-07
  3.679107112204E-07  3.024555153432E-07  2.481034923049E-07  2.030699968160E-07
  1.658399840175E-07  1.351301555154E-07  1.098559661154E-07  8.910293484430E-08
  7.210175807996E-08  5.820677279142E-08  4.687736416512E-08  3.766195443240E-08
  3.018424869120E-08  2.413144911605E-08  1.924418136172E-08  1.530790637956E-08
  1.214561747124E-08  9.611646394234E-09  7.586423893267E-09  5.972059346195E-09
  4.688621459184E-09  3.671017295763E-09  2.866380542046E-09  2.231891951936E-09
  1.732965529313E-09  1.341743327880E-09  1.035849913338E-09  7.973646576258E-10
  6.119762327863E-10  4.682890454666E-10  3.572559962407E-10  2.717159467888E-10
  2.060177102885E-10  1.557153165468E-10  1.173218066288E-10  8.811093860191E-11
  6.595798691023E-11  4.921233753182E-11  3.659585893539E-11  2.712209965452E-11
</data>
</radfunc>
</valence-charge>
<semilocal-potentials set="non_relativistic">
<slps n="3" l="s" rc="1.88862476631" flavor="Troullier-Martins">
<radfunc>
<data>
 -2.599747086352E-01 -2.599675053162E-01 -2.599459837188E-01 -2.599101286448E-01
 -2.598594956971E-01 -2.597938424739E-01 -2.597117663533E-01 -2.596204795415E-01
 -2.595098157644E-01 -2.593802886648E-01 -2.592341599422E-01 -2.590756036202E-01
 -2.589106290726E-01 -2.587172122627E-01 -2.585256706146E-01 -2.583074647982E-01
 -2.581032418731E-01 -2.578769780392E-01 -2.576272009771E-01 -2.573526540901E-01
 -2.571145627269E-01 -2.568598189732E-01 -2.565885158331E-01 -2.563011583724E-01
 -2.559987939194E-01 -2.557631942332E-01 -2.555211828969E-01 -2.552741658756E-01
 -2.550239597153E-01 -2.547728704105E-01 -2.545237855475E-01 -2.542802818009E-01
 -2.540467501617E-01 -2.538285416218E-01 -2.536321364218E-01 -2.534653404086E-01
 -2.533751427232E-01 -2.533054364277E-01 -2.532598280553E-01 -2.532423641079E-01
 -2.532575782597E-01 -2.533105432297E-01 -2.534069277444E-01 -2.535530590433E-01
 -2.537559914154E-01 -2.540235812880E-01 -2.543645694231E-01 -2.547886708167E-01
 -2.553066729280E-01 -2.559305429028E-01 -2.566735444884E-01 -2.575503653702E-01
 -2.585772556837E-01 -2.597721784833E-01 -2.611549729586E-01 -2.627475311960E-01
 -2.645739892776E-01 -2.666609334797E-01 -2.690376222953E-01 -2.717362249268E-01
 -2.747920767988E-01 -2.782439524938E-01 -2.821343563258E-01 -2.865098305150E-01
 -2.888951972934E-01 -2.914212806078E-01 -2.940951815189E-01 -2.969243173788E-01
 -2.999164333213E-01 -3.030796139438E-01 -3.064222951577E-01 -3.099532761818E-01
 -3.136817316487E-01 -3.176172237892E-01 -3.217697146566E-01 -3.261495783444E-01
 -3.307676131486E-01 -3.356350536171E-01 -3.407635824215E-01 -3.461653419813E-01
 -3.518529457596E-01 -3.578394891429E-01 -3.641385598046E-01 -3.707642474456E-01
 -3.777311527904E-01 -3.850543957064E-01 -3.927496223015E-01 -4.008330108389E-01
 -4.093212762951E-01 -4.182316733706E-01 -4.275819977423E-01 -4.373905853340E-01
 -4.476763093555E-01 -4.584585748450E-01 -4.697573104251E-01 -4.815929569600E-01
 -4.939864527781E-01 -5.069592150980E-01 -5.205331172713E-01 -5.347304614258E-01
 -5.495739460683E-01 -5.650866281747E-01 -5.812918792683E-01 -5.982133349559E-01
 -6.158748373667E-01 -6.343003699045E-01 -6.535139837019E-01 -6.735397151368E-01
 -6.944014937464E-01 -7.161230398563E-01 -7.387277512209E-01 -7.622385779599E-01
 -7.866778850699E-01 -8.120673017836E-01 -8.384275570622E-01 -8.657783005192E-01
 -8.941379081003E-01 -9.235232718882E-01 -9.539495734507E-01 -9.854300402265E-01
 -1.017975684532E+00 -1.051595024885E+00 -1.086293789478E+00 -1.122074601800E+00
 -1.158936648597E+00 -1.196875330593E+00 -1.235881896653E+00 -1.275943062368E+00
 -1.317040614409E+00 -1.359151002354E+00 -1.402244920168E+00 -1.446286879967E+00
 -1.491234781270E+00 -1.537039479526E+00 -1.583644358335E+00 -1.630984910511E+00
 -1.678988333870E+00 -1.727573148405E+00 -1.776648842404E+00 -1.826115555870E+00
 -1.875863810555E+00 -1.925774296800E+00 -1.975717728274E+00 -2.025554776590E+00
 -2.075136098597E+00 -2.124302469887E+00 -2.172885038721E+00 -2.220705715032E+00
 -2.267577709496E+00 -2.313306237728E+00 -2.357689404427E+00 -2.400519281755E+00
 -2.441583195275E+00 -2.480665229359E+00 -2.517547962047E+00 -2.552014436807E+00
 -2.583850375514E+00 -2.612846633059E+00 -2.638801889424E+00 -2.661525569593E+00
 -2.680840975432E+00 -2.696588606537E+00 -2.708629638971E+00 -2.716849521939E+00
 -2.721161642519E+00 -2.721510997814E+00 -2.717877802094E+00 -2.710280943745E+00
 -2.698781192932E+00 -2.683484045720E+00 -2.664542073689E+00 -2.642156629447E+00
 -2.616578737272E+00 -2.588108973727E+00 -2.557096114292E+00 -2.523934287706E+00
 -2.489058337978E+00 -2.452937043154E+00 -2.416063777535E+00 -2.378944127947E+00
 -2.342079882324E+00 -2.305948698311E+00 -2.270978629102E+00 -2.237516532752E+00
 -2.205789220057E+00 -2.175856006651E+00 -2.147551129518E+00 -2.120414268217E+00
 -2.093801500832E+00 -2.067550129640E+00 -2.041652370528E+00 -2.016100895049E+00
 -1.990888754124E+00 -1.966009347989E+00 -1.941456398349E+00 -1.917223922668E+00
 -1.893306210470E+00 -1.869697801530E+00 -1.846393465836E+00 -1.823388185205E+00
 -1.800677136445E+00 -1.778255675936E+00 -1.756119325559E+00 -1.734263759828E+00
 -1.712684794172E+00 -1.691351277707E+00 -1.670296990035E+00 -1.649515013483E+00
 -1.628999328282E+00 -1.608744616778E+00 -1.588746110493E+00 -1.568999470999E+00
 -1.549500697429E+00 -1.530246054885E+00 -1.511232019177E+00 -1.492455234296E+00
 -1.473912479782E+00 -1.455600645739E+00 -1.437516713753E+00 -1.419657742346E+00
 -1.402020855907E+00 -1.384603236269E+00 -1.367402116301E+00 -1.350414775034E+00
 -1.333638533925E+00 -1.317070754001E+00 -1.300708833645E+00 -1.284550206869E+00
 -1.268592341949E+00 -1.252832740324E+00 -1.237268935703E+00 -1.221898493306E+00
 -1.206719009222E+00 -1.191728109847E+00 -1.176923451376E+00 -1.162302719342E+00
 -1.147863628185E+00 -1.133603920854E+00 -1.119521368412E+00 -1.105613769671E+00
 -1.091878950830E+00 -1.078314765123E+00 -1.064919092477E+00 -1.051689839176E+00
 -1.038624937527E+00 -1.025722345538E+00 -1.012980046594E+00 -1.000396049142E+00
 -9.879683863792E-01 -9.756951159434E-01 -9.635743196100E-01 -9.516041029918E-01
 -9.397825952420E-01 -9.281079487616E-01 -9.165783389107E-01 -9.051919637230E-01
 -8.939470436237E-01 -8.828418211512E-01 -8.718745606825E-01 -8.610435481615E-01
 -8.503470908309E-01 -8.397835169678E-01 -8.293511756216E-01 -8.190484363565E-01
 -8.088736889961E-01 -7.988253433717E-01 -7.889018290737E-01 -7.791015952059E-01
 -7.694231101428E-01 -7.598648612905E-01 -7.504253548498E-01 -7.411031155829E-01
 -7.318966865823E-01 -7.228046290434E-01 -7.138255220393E-01 -7.049579622985E-01
 -6.962005639858E-01 -6.875519584851E-01 -6.790107941861E-01 -6.705757362720E-01
 -6.622454665119E-01 -6.540186830537E-01 -6.458941002211E-01 -6.378704483122E-01
 -6.299464734015E-01 -6.221209371432E-01 -6.143926165782E-01 -6.067603039422E-01
 -5.992228064775E-01 -5.917789462463E-01 -5.844275599461E-01 -5.771674987285E-01
 -5.699976280192E-01 -5.629168273406E-01 -5.559239901368E-01 -5.490180236004E-01
 -5.421978485016E-01 -5.354623990199E-01 -5.288106225770E-01 -5.222414796723E-01
 -5.157539437206E-01 -5.093470008915E-01 -5.030196499508E-01 -4.967709021043E-01
 -4.905997808427E-01 -4.845053217892E-01 -4.784865725490E-01 -4.725425925600E-01
 -4.666724529459E-01 -4.608752363711E-01 -4.551500368970E-01 -4.494959598409E-01
 -4.439121216354E-01 -4.383976496911E-01 -4.329516822595E-01 -4.275733682987E-01
 -4.222618673400E-01 -4.170163493571E-01 -4.118359946357E-01 -4.067199936457E-01
 -4.016675469148E-01 -3.966778649029E-01 -3.917501678797E-01 -3.868836858016E-01
 -3.820776581924E-01 -3.773313340238E-01 -3.726439715982E-01 -3.680148384328E-01
 -3.634432111449E-01 -3.589283753390E-01 -3.544696254953E-01 -3.500662648589E-01
 -3.457176053315E-01 -3.414229673633E-01 -3.371816798473E-01 -3.329930800138E-01
 -3.288565133274E-01 -3.247713333843E-01 -3.207369018115E-01 -3.167525881667E-01
 -3.128177698401E-01 -3.089318319570E-01 -3.050941672816E-01 -3.013041761219E-01
 -2.975612662366E-01 -2.938648527418E-01 -2.902143580199E-01 -2.866092116297E-01
 -2.830488502163E-01 -2.795327174241E-01 -2.760602638091E-01 -2.726309467533E-01
 -2.692442303799E-01 -2.658995854695E-01 -2.625964893773E-01 -2.593344259518E-01
 -2.561128854534E-01 -2.529313644756E-01 -2.497893658655E-01 -2.466863986467E-01
 -2.436219779423E-01 -2.405956248991E-01 -2.376068666130E-01 -2.346552360547E-01
 -2.317402719970E-01 -2.288615189426E-01 -2.260185270530E-01 -2.232108520781E-01
 -2.204380552868E-01 -2.176997033984E-01 -2.149953685150E-01 -2.123246280544E-01
 -2.096870646844E-01 -2.070822662573E-01 -2.045098257453E-01 -2.019693411776E-01
</data>
</radfunc>
</slps>
<slps n="3" l="p" rc="1.88862476631" flavor="Troullier-Martins">
<radfunc>
<data>
 -2.791833842729E+00 -2.791826637681E+00 -2.791805090328E+00 -2.791769123499E+00
 -2.791718184986E+00 -2.791651874972E+00 -2.791568557580E+00 -2.791475331519E+00
 -2.791361510113E+00 -2.791227133980E+00 -2.791073993990E+00 -2.790905914371E+00
 -2.790728827988E+00 -2.790518217326E+00 -2.790306301392E+00 -2.790060590400E+00
 -2.789826225884E+00 -2.789561262920E+00 -2.789261803982E+00 -2.788923481678E+00
 -2.788621577212E+00 -2.788288920992E+00 -2.787922498234E+00 -2.787519023603E+00
 -2.787074922310E+00 -2.786712861190E+00 -2.786324011706E+00 -2.785906507680E+00
 -2.785458370800E+00 -2.784977506681E+00 -2.784461701253E+00 -2.783908617592E+00
 -2.783315793302E+00 -2.782680638579E+00 -2.782000435111E+00 -2.781272335966E+00
 -2.780758864134E+00 -2.780221873563E+00 -2.779660427646E+00 -2.779073566181E+00
 -2.778460306181E+00 -2.777819642878E+00 -2.777150550923E+00 -2.776451985800E+00
 -2.775722885480E+00 -2.774962172316E+00 -2.774168755219E+00 -2.773341532108E+00
 -2.772479392679E+00 -2.771581221481E+00 -2.770645901349E+00 -2.769672317179E+00
 -2.768659360094E+00 -2.767605931983E+00 -2.766510950455E+00 -2.765373354198E+00
 -2.764192108769E+00 -2.762966212802E+00 -2.761694704654E+00 -2.760376669469E+00
 -2.759011246659E+00 -2.757597637785E+00 -2.756135114804E+00 -2.754623028647E+00
 -2.753848220317E+00 -2.753060818092E+00 -2.752260767033E+00 -2.751448018839E+00
 -2.750622532129E+00 -2.749784272735E+00 -2.748933213990E+00 -2.748069337014E+00
 -2.747192630991E+00 -2.746303093449E+00 -2.745400730526E+00 -2.744485557231E+00
 -2.743557597695E+00 -2.742616885402E+00 -2.741663463414E+00 -2.740697384573E+00
 -2.739718711685E+00 -2.738727517675E+00 -2.737723885722E+00 -2.736707909357E+00
 -2.735679692532E+00 -2.734639349642E+00 -2.733587005511E+00 -2.732522795323E+00
 -2.731446864500E+00 -2.730359368518E+00 -2.729260472654E+00 -2.728150351660E+00
 -2.727029189348E+00 -2.725897178089E+00 -2.724754518208E+00 -2.723601417258E+00
 -2.722438089187E+00 -2.721264753353E+00 -2.720081633401E+00 -2.718888955969E+00
 -2.717686949221E+00 -2.716475841180E+00 -2.715255857851E+00 -2.714027221103E+00
 -2.712790146307E+00 -2.711544839685E+00 -2.710291495362E+00 -2.709030292088E+00
 -2.707761389597E+00 -2.706484924579E+00 -2.705201006228E+00 -2.703909711325E+00
 -2.702611078825E+00 -2.701305103902E+00 -2.699991731401E+00 -2.698670848660E+00
 -2.697342277638E+00 -2.696005766300E+00 -2.694660979198E+00 -2.693307487175E+00
 -2.691944756144E+00 -2.690572134841E+00 -2.689188841497E+00 -2.687793949337E+00
 -2.686386370817E+00 -2.684964840511E+00 -2.683527896547E+00 -2.682073860492E+00
 -2.680600815586E+00 -2.679106583191E+00 -2.677588697382E+00 -2.676044377513E+00
 -2.674470498687E+00 -2.672863559972E+00 -2.671219650271E+00 -2.669534411711E+00
 -2.667803000454E+00 -2.666020044820E+00 -2.664179600627E+00 -2.662275103682E+00
 -2.660299319361E+00 -2.658244289248E+00 -2.656101274842E+00 -2.653860698376E+00
 -2.651512080846E+00 -2.649043977407E+00 -2.646443910368E+00 -2.643698300118E+00
 -2.640792394388E+00 -2.637710196421E+00 -2.634434392727E+00 -2.630946281284E+00
 -2.627225701240E+00 -2.623250965390E+00 -2.618998796936E+00 -2.614444272359E+00
 -2.609560772521E+00 -2.604319944502E+00 -2.598691677074E+00 -2.592644093178E+00
 -2.586143563271E+00 -2.579154743980E+00 -2.571640647103E+00 -2.563562744715E+00
 -2.554881116849E+00 -2.545554649078E+00 -2.535541288219E+00 -2.524798365356E+00
 -2.513282996505E+00 -2.500952572391E+00 -2.487765350177E+00 -2.473681161422E+00
 -2.458662252168E+00 -2.442674272928E+00 -2.425687438371E+00 -2.407677878886E+00
 -2.388629208927E+00 -2.368534340131E+00 -2.347397570888E+00 -2.325236988281E+00
 -2.302087223305E+00 -2.278002606145E+00 -2.253060775143E+00 -2.227366801086E+00
 -2.201057897707E+00 -2.174308799814E+00 -2.147337902292E+00 -2.120414266074E+00
 -2.093801500832E+00 -2.067550129640E+00 -2.041652370528E+00 -2.016100895049E+00
 -1.990888754124E+00 -1.966009347989E+00 -1.941456398349E+00 -1.917223922668E+00
 -1.893306210470E+00 -1.869697801530E+00 -1.846393465836E+00 -1.823388185205E+00
 -1.800677136445E+00 -1.778255675936E+00 -1.756119325559E+00 -1.734263759828E+00
 -1.712684794172E+00 -1.691351277707E+00 -1.670296990035E+00 -1.649515013483E+00
 -1.628999328282E+00 -1.608744616778E+00 -1.588746110493E+00 -1.568999470999E+00
 -1.549500697429E+00 -1.530246054885E+00 -1.511232019177E+00 -1.492455234296E+00
 -1.473912479782E+00 -1.455600645739E+00 -1.437516713753E+00 -1.419657742346E+00
 -1.402020855907E+00 -1.384603236269E+00 -1.367402116301E+00 -1.350414775034E+00