Siesta Version: siesta-trunk-479
Architecture  : atto-intel12-openmpi
Compiler flags: /share/apps/openmpi-1.6.5-intel/bin/mpif90 -w  -O2 -mp
PP flags      : -DCDF -DMPI -DTRANSIESTA  -DTRANSIESTA
PARALLEL version
TRANSIESTA support
NetCDF support

* Running on    4 nodes in parallel
>> Start of run:   3-OCT-2015   3:22:06

                           ***********************       
                           *  WELCOME TO SIESTA  *       
                           ***********************       

reinit: Reading from standard input
************************** Dump of input data file ****************************
SolutionMethod        Transiesta
SystemName  Au 100 with gold chain
SystemLabel au_100
==================================================
==================================================
# SPECIES AND BASIS
# Number of species
NumberOfSpecies 1
%block ChemicalSpeciesLabel
  1  79 Au
%endblock ChemicalSpeciesLabel
PAO.BasisSize    SZP
PAO.EnergyShift  0.005 Ry
XC.functional   GGA
XC.authors      PBE
==================================================
==================================================
# K-points
%block kgrid_Monkhorst_Pack
 2    0    0    0.0
 0    2    0    0.0
 0    0    2    0.0
%endblock kgrid_Monkhorst_Pack
==================================================
==================================================
# Structure
NumberOfAtoms 112
LatticeConstant 1.0 Ang
%block LatticeVectors
     8.651160000      0.000000000      0.000000000
     0.000000000      8.651160000      0.000000000
     0.000000000      0.000000000     32.625600000
%endblock LatticeVectors
AtomicCoordinatesFormat  Ang
%block AtomicCoordinatesAndAtomicSpecies
     0.000000000      0.000000000      0.000000000 1 # 1. layer
     2.883720000      0.000000000      0.000000000 1
     5.767440000      0.000000000      0.000000000 1
     0.000000000      2.883720000      0.000000000 1
     2.883720000      2.883720000      0.000000000 1
     5.767440000      2.883720000      0.000000000 1
     0.000000000      5.767440000      0.000000000 1
     2.883720000      5.767440000      0.000000000 1
     5.767440000      5.767440000      0.000000000 1
     1.441860000      1.441860000      2.039100000 1 # 2. layer
     4.325580000      1.441860000      2.039100000 1
     7.209300000      1.441860000      2.039100000 1
     1.441860000      4.325580000      2.039100000 1
     4.325580000      4.325580000      2.039100000 1
     7.209300000      4.325580000      2.039100000 1
     1.441860000      7.209300000      2.039100000 1
     4.325580000      7.209300000      2.039100000 1
     7.209300000      7.209300000      2.039100000 1
     0.000000000      0.000000000      4.078200000 1 # 3. layer
     2.883720000      0.000000000      4.078200000 1
     5.767440000      0.000000000      4.078200000 1
     0.000000000      2.883720000      4.078200000 1
     2.883720000      2.883720000      4.078200000 1
     5.767440000      2.883720000      4.078200000 1
     0.000000000      5.767440000      4.078200000 1
     2.883720000      5.767440000      4.078200000 1
     5.767440000      5.767440000      4.078200000 1
     1.441860000      1.441860000      6.117300000 1 # 4. layer
     4.325580000      1.441860000      6.117300000 1
     7.209300000      1.441860000      6.117300000 1
     1.441860000      4.325580000      6.117300000 1
     4.325580000      4.325580000      6.117300000 1
     7.209300000      4.325580000      6.117300000 1
     1.441860000      7.209300000      6.117300000 1
     4.325580000      7.209300000      6.117300000 1
     7.209300000      7.209300000      6.117300000 1
     0.000000000      0.000000000      8.156400000 1 # 5. layer
     2.883720000      0.000000000      8.156400000 1
     5.767440000      0.000000000      8.156400000 1
     0.000000000      2.883720000      8.156400000 1
     2.883720000      2.883720000      8.156400000 1
     5.767440000      2.883720000      8.156400000 1
     0.000000000      5.767440000      8.156400000 1
     2.883720000      5.767440000      8.156400000 1
     5.767440000      5.767440000      8.156400000 1
     1.441860000      1.441860000     10.195500000 1 # 6. layer
     4.325580000      1.441860000     10.195500000 1
     7.209300000      1.441860000     10.195500000 1
     1.441860000      4.325580000     10.195500000 1
     4.325580000      4.325580000     10.195500000 1
     7.209300000      4.325580000     10.195500000 1
     1.441860000      7.209300000     10.195500000 1
     4.325580000      7.209300000     10.195500000 1
     7.209300000      7.209300000     10.195500000 1
     0.000000000      0.000000000     12.234600000 1 # 7. layer
     1.441860000      1.441860000     14.273700000 1 # 8. layer
     0.000000000      0.000000000     16.312800000 1 # 9. layer
     1.441860000      1.441860000     18.351900000 1 # 10. layer
     0.000000000      0.000000000     20.391000000 1 # 11. layer
     2.883720000      0.000000000     20.391000000 1
     5.767440000      0.000000000     20.391000000 1
     0.000000000      2.883720000     20.391000000 1
     2.883720000      2.883720000     20.391000000 1
     5.767440000      2.883720000     20.391000000 1
     0.000000000      5.767440000     20.391000000 1
     2.883720000      5.767440000     20.391000000 1
     5.767440000      5.767440000     20.391000000 1
     1.441860000      1.441860000     22.430100000 1 # 12. layer
     4.325580000      1.441860000     22.430100000 1
     7.209300000      1.441860000     22.430100000 1
     1.441860000      4.325580000     22.430100000 1
     4.325580000      4.325580000     22.430100000 1
     7.209300000      4.325580000     22.430100000 1
     1.441860000      7.209300000     22.430100000 1
     4.325580000      7.209300000     22.430100000 1
     7.209300000      7.209300000     22.430100000 1
     0.000000000      0.000000000     24.469200000 1 # 13. layer
     2.883720000      0.000000000     24.469200000 1
     5.767440000      0.000000000     24.469200000 1
     0.000000000      2.883720000     24.469200000 1
     2.883720000      2.883720000     24.469200000 1
     5.767440000      2.883720000     24.469200000 1
     0.000000000      5.767440000     24.469200000 1
     2.883720000      5.767440000     24.469200000 1
     5.767440000      5.767440000     24.469200000 1
     1.441860000      1.441860000     26.508300000 1 # 14. layer
     4.325580000      1.441860000     26.508300000 1
     7.209300000      1.441860000     26.508300000 1
     1.441860000      4.325580000     26.508300000 1
     4.325580000      4.325580000     26.508300000 1
     7.209300000      4.325580000     26.508300000 1
     1.441860000      7.209300000     26.508300000 1
     4.325580000      7.209300000     26.508300000 1
     7.209300000      7.209300000     26.508300000 1
     0.000000000      0.000000000     28.547400000 1 # 15. layer
     2.883720000      0.000000000     28.547400000 1
     5.767440000      0.000000000     28.547400000 1
     0.000000000      2.883720000     28.547400000 1
     2.883720000      2.883720000     28.547400000 1
     5.767440000      2.883720000     28.547400000 1
     0.000000000      5.767440000     28.547400000 1
     2.883720000      5.767440000     28.547400000 1
     5.767440000      5.767440000     28.547400000 1
     1.441860000      1.441860000     30.586500000 1 # 16. layer
     4.325580000      1.441860000     30.586500000 1
     7.209300000      1.441860000     30.586500000 1
     1.441860000      4.325580000     30.586500000 1
     4.325580000      4.325580000     30.586500000 1
     7.209300000      4.325580000     30.586500000 1
     1.441860000      7.209300000     30.586500000 1
     4.325580000      7.209300000     30.586500000 1
     7.209300000      7.209300000     30.586500000 1
%endblock AtomicCoordinatesAndAtomicSpecies
==================================================
==================================================
# SCF variables
DM.MixSCF1   T
MaxSCFIterations      300           # Maximum number of SCF iter
DM.MixingWeight       0.05          # New DM amount for next SCF cycle
DM.Tolerance          1.d-4         # Tolerance in maximum difference
DM.UseSaveDM          true          # to use continuation files
DM.NumberPulay        5
TS.MixH               yes
==================================================
==================================================
# MD variables
MD.FinalTimeStep 1
MD.TypeOfRun CG
MD.NumCGsteps     000
MD.UseSaveXV      .true.
==================================================
==================================================
# Output variables
WriteMullikenPop                1
WriteBands                      .false.
SaveRho                         .false.
SaveDeltaRho                    .false.
SaveHS                          .false.
SaveElectrostaticPotential      True
SaveTotalPotential              no
WriteCoorXmol                   .true.
WriteMDXmol                     .true.
WriteMDhistory                  .false.
WriteEigenvalues                yes
==================================================
==================================================
# Transmission
TS.TBT.NPoints      101
TS.TBT.Emin        -0.5 eV
TS.TBT.Emax         0.5 eV
TS.TBT.NEigen              9
# Bias voltage
TS.Voltage 0.25 eV
TS.biasContour.NumPoints       20
# Transiesta: electrode definition:
# LEFT ELECTRODE
TS.HSFileLeft ./elec_au_100.TSHS
TS.ReplicateA1Left    3
TS.ReplicateA2Left    3
TS.NumUsedAtomsLeft   4
TS.BufferAtomsLeft    0
# RIGHT ELECTRODE
TS.HSFileRight ./elec_au_100.TSHS
TS.ReplicateA1Right   3
TS.ReplicateA2Right   3
TS.NumUsedAtomsRight  4
TS.BufferAtomsRight   0
# SPECIES AND ATOMS
# DYNAMICS
TS.UseBulkInElectrodes  T
************************** End of input data file *****************************

reinit: -----------------------------------------------------------------------
reinit: System Name: Au 100 with gold chain
reinit: -----------------------------------------------------------------------
reinit: System Label: au_100                                                      
reinit: -----------------------------------------------------------------------

initatom: Reading input for the pseudopotentials and atomic orbitals ----------
 Species number:            1  Label: Au Atomic number:          79
Ground state valence configuration:   6s01  5d10
Reading pseudopotential information in formatted form from Au.psf

Pseudopotential generated from a relativistic atomic calculation
There are spin-orbit pseudopotentials available
Spin-orbit interaction is not included in this calculation

Valence configuration for pseudopotential generation:
6s( 1.00) rc: 2.29
6p( 0.00) rc: 3.14
5d(10.00) rc: 1.20
5f( 0.00) rc: 3.14
For Au, standard SIESTA heuristics set lmxkb to 3
 (one more than the basis l, including polarization orbitals).
Use PS.lmax or PS.KBprojectors blocks to override.

<basis_specs>
===============================================================================
Au                   Z=  79    Mass=  196.97        Charge= 0.17977+309
Lmxo=2 Lmxkb= 3    BasisType=split      Semic=F
L=0  Nsemic=0  Cnfigmx=6
          n=1  nzeta=1  polorb=1
            splnorm:   0.15000    
               vcte:    0.0000    
               rinn:    0.0000    
               qcoe:    0.0000    
               qyuk:    0.0000    
               qwid:   0.10000E-01
                rcs:    0.0000    
            lambdas:   1.00000    
L=1  Nsemic=0  Cnfigmx=6
L=2  Nsemic=0  Cnfigmx=5
          n=1  nzeta=1  polorb=0
            splnorm:   0.15000    
               vcte:    0.0000    
               rinn:    0.0000    
               qcoe:    0.0000    
               qyuk:    0.0000    
               qwid:   0.10000E-01
                rcs:    0.0000    
            lambdas:   1.00000    
-------------------------------------------------------------------------------
L=0  Nkbl=1  erefs: 0.17977+309
L=1  Nkbl=1  erefs: 0.17977+309
L=2  Nkbl=1  erefs: 0.17977+309
L=3  Nkbl=1  erefs: 0.17977+309
===============================================================================
</basis_specs>

atom: Called for Au                    (Z =  79)

read_vps: Pseudopotential generation method:
read_vps: ATM3      Troullier-Martins                       
Total valence charge:   11.00000

read_vps: Pseudopotential includes a core correction:
read_vps: Pseudo-core for xc-correction

xc_check: Exchange-correlation functional:
xc_check: GGA Perdew, Burke & Ernzerhof 1996
V l=0 = -2*Zval/r beyond r=  2.9833
V l=1 = -2*Zval/r beyond r=  3.1363
V l=2 = -2*Zval/r beyond r=  2.9833
V l=3 = -2*Zval/r beyond r=  3.1363
All V_l potentials equal beyond r=  3.0973
This should be close to max(r_c) in ps generation
All pots = -2*Zval/r beyond r=  3.1363

VLOCAL1: 99.0% of the norm of Vloc inside      4.525 Ry
VLOCAL1: 99.9% of the norm of Vloc inside     10.312 Ry
atom: Maximum radius for 4*pi*r*r*local-pseudopot. charge    3.73611
atom: Maximum radius for r*vlocal+2*Zval:    3.29710
GHOST: No ghost state for L =  0
GHOST: No ghost state for L =  1
GHOST: No ghost state for L =  2
GHOST: No ghost state for L =  3

KBgen: Kleinman-Bylander projectors: 
   l= 0   rc=  3.423088   el= -0.421435   Ekb=  5.114239   kbcos=  0.182513
   l= 1   rc=  3.553892   el= -0.058080   Ekb=  1.612319   kbcos=  0.221966
   l= 2   rc=  3.256140   el= -0.508574   Ekb= -6.472599   kbcos= -0.707183
   l= 3   rc=  3.643860   el=  0.003083   Ekb= -1.026026   kbcos= -0.026089

KBgen: Total number of  Kleinman-Bylander projectors:   16
atom: -------------------------------------------------------------------------

atom: SANKEY-TYPE ORBITALS:

SPLIT: Orbitals with angular momentum L= 0

SPLIT: Basis orbitals for state 6s

SPLIT: PAO cut-off radius determined from an
SPLIT: energy shift=  0.005000 Ry

   izeta = 1
                 lambda =    1.000000
                     rc =    7.246712
                 energy =   -0.416422
                kinetic =    0.363232
    potential(screened) =   -0.779654
       potential(ionic) =   -8.332754

SPLIT: Orbitals with angular momentum L= 2

SPLIT: Basis orbitals for state 5d

SPLIT: PAO cut-off radius determined from an
SPLIT: energy shift=  0.005000 Ry

   izeta = 1
                 lambda =    1.000000
                     rc =    5.106662
                 energy =   -0.503595
                kinetic =    4.974612
    potential(screened) =   -5.478207
       potential(ionic) =  -15.919605

POLgen: Perturbative polarization orbital with L=  1

POLgen: Polarization orbital for state 6s

   izeta = 1
                     rc =    7.246712
                 energy =   -0.086468
                kinetic =    0.638528
    potential(screened) =   -0.724996
       potential(ionic) =   -7.799440
atom: Total number of Sankey-type orbitals:  9

atm_pop: Valence configuration (for local Pseudopot. screening):
 6s( 1.00)                                                            
 6p( 0.00)                                                            
 5d(10.00)                                                            
Vna: chval, zval:   11.00000  11.00000

Vna:  Cut-off radius for the neutral-atom potential:   7.246712
comcore: Pseudo-core radius Rcore=  4.027091

atom: _________________________________________________________________________

prinput: Basis input ----------------------------------------------------------

PAO.BasisType split     

%block ChemicalSpeciesLabel
    1   79 Au                      # Species index, atomic number, species label
%endblock ChemicalSpeciesLabel

%block PAO.Basis                 # Define Basis set
Au                    2                    # Species label, number of l-shells
 n=6   0   1 P   1                   # n, l, Nzeta, Polarization, NzetaPol
   7.247   
   1.000   
 n=5   2   1                         # n, l, Nzeta 
   5.107   
   1.000   
%endblock PAO.Basis

prinput: ----------------------------------------------------------------------

Dumping basis to NetCDF file Au.ion.nc
coor:   Atomic-coordinates input format  =     Cartesian coordinates
coor:                                          (in Angstroms)

siesta: WARNING: XV file not found

siesta: Atomic coordinates (Bohr) and species
siesta:      0.00000   0.00000   0.00000  1        1
siesta:      5.44944   0.00000   0.00000  1        2
siesta:     10.89889   0.00000   0.00000  1        3
siesta:      0.00000   5.44944   0.00000  1        4
siesta:      5.44944   5.44944   0.00000  1        5
siesta:     10.89889   5.44944   0.00000  1        6
siesta:      0.00000  10.89889   0.00000  1        7
siesta:      5.44944  10.89889   0.00000  1        8
siesta:     10.89889  10.89889   0.00000  1        9
siesta:      2.72472   2.72472   3.85334  1       10
siesta:      8.17416   2.72472   3.85334  1       11
siesta:     13.62361   2.72472   3.85334  1       12
siesta:      2.72472   8.17416   3.85334  1       13
siesta:      8.17416   8.17416   3.85334  1       14
siesta:     13.62361   8.17416   3.85334  1       15
siesta:      2.72472  13.62361   3.85334  1       16
siesta:      8.17416  13.62361   3.85334  1       17
siesta:     13.62361  13.62361   3.85334  1       18
siesta:      0.00000   0.00000   7.70668  1       19
siesta:      5.44944   0.00000   7.70668  1       20
siesta:     10.89889   0.00000   7.70668  1       21
siesta:      0.00000   5.44944   7.70668  1       22
siesta:      5.44944   5.44944   7.70668  1       23
siesta:     10.89889   5.44944   7.70668  1       24
siesta:      0.00000  10.89889   7.70668  1       25
siesta:      5.44944  10.89889   7.70668  1       26
siesta:     10.89889  10.89889   7.70668  1       27
siesta:      2.72472   2.72472  11.56003  1       28
siesta:      8.17416   2.72472  11.56003  1       29
siesta:     13.62361   2.72472  11.56003  1       30
siesta:      2.72472   8.17416  11.56003  1       31
siesta:      8.17416   8.17416  11.56003  1       32
siesta:     13.62361   8.17416  11.56003  1       33
siesta:      2.72472  13.62361  11.56003  1       34
siesta:      8.17416  13.62361  11.56003  1       35
siesta:     13.62361  13.62361  11.56003  1       36
siesta:      0.00000   0.00000  15.41337  1       37
siesta:      5.44944   0.00000  15.41337  1       38
siesta:     10.89889   0.00000  15.41337  1       39
siesta:      0.00000   5.44944  15.41337  1       40
siesta:      5.44944   5.44944  15.41337  1       41
siesta:     10.89889   5.44944  15.41337  1       42
siesta:      0.00000  10.89889  15.41337  1       43
siesta:      5.44944  10.89889  15.41337  1       44
siesta:     10.89889  10.89889  15.41337  1       45
siesta:      2.72472   2.72472  19.26671  1       46
siesta:      8.17416   2.72472  19.26671  1       47
siesta:     13.62361   2.72472  19.26671  1       48
siesta:      2.72472   8.17416  19.26671  1       49
siesta:      8.17416   8.17416  19.26671  1       50
siesta:     13.62361   8.17416  19.26671  1       51
siesta:      2.72472  13.62361  19.26671  1       52
siesta:      8.17416  13.62361  19.26671  1       53
siesta:     13.62361  13.62361  19.26671  1       54
siesta:      0.00000   0.00000  23.12005  1       55
siesta:      2.72472   2.72472  26.97339  1       56
siesta:      0.00000   0.00000  30.82674  1       57
siesta:      2.72472   2.72472  34.68008  1       58
siesta:      0.00000   0.00000  38.53342  1       59
siesta:      5.44944   0.00000  38.53342  1       60
siesta:     10.89889   0.00000  38.53342  1       61
siesta:      0.00000   5.44944  38.53342  1       62
siesta:      5.44944   5.44944  38.53342  1       63
siesta:     10.89889   5.44944  38.53342  1       64
siesta:      0.00000  10.89889  38.53342  1       65
siesta:      5.44944  10.89889  38.53342  1       66
siesta:     10.89889  10.89889  38.53342  1       67
siesta:      2.72472   2.72472  42.38676  1       68
siesta:      8.17416   2.72472  42.38676  1       69
siesta:     13.62361   2.72472  42.38676  1       70
siesta:      2.72472   8.17416  42.38676  1       71
siesta:      8.17416   8.17416  42.38676  1       72
siesta:     13.62361   8.17416  42.38676  1       73
siesta:      2.72472  13.62361  42.38676  1       74
siesta:      8.17416  13.62361  42.38676  1       75
siesta:     13.62361  13.62361  42.38676  1       76
siesta:      0.00000   0.00000  46.24010  1       77
siesta:      5.44944   0.00000  46.24010  1       78
siesta:     10.89889   0.00000  46.24010  1       79
siesta:      0.00000   5.44944  46.24010  1       80
siesta:      5.44944   5.44944  46.24010  1       81
siesta:     10.89889   5.44944  46.24010  1       82
siesta:      0.00000  10.89889  46.24010  1       83
siesta:      5.44944  10.89889  46.24010  1       84
siesta:     10.89889  10.89889  46.24010  1       85
siesta:      2.72472   2.72472  50.09345  1       86
siesta:      8.17416   2.72472  50.09345  1       87
siesta:     13.62361   2.72472  50.09345  1       88
siesta:      2.72472   8.17416  50.09345  1       89
siesta:      8.17416   8.17416  50.09345  1       90
siesta:     13.62361   8.17416  50.09345  1       91
siesta:      2.72472  13.62361  50.09345  1       92
siesta:      8.17416  13.62361  50.09345  1       93
siesta:     13.62361  13.62361  50.09345  1       94
siesta:      0.00000   0.00000  53.94679  1       95
siesta:      5.44944   0.00000  53.94679  1       96
siesta:     10.89889   0.00000  53.94679  1       97
siesta:      0.00000   5.44944  53.94679  1       98
siesta:      5.44944   5.44944  53.94679  1       99
siesta:     10.89889   5.44944  53.94679  1      100
siesta:      0.00000  10.89889  53.94679  1      101
siesta:      5.44944  10.89889  53.94679  1      102
siesta:     10.89889  10.89889  53.94679  1      103
siesta:      2.72472   2.72472  57.80013  1      104
siesta:      8.17416   2.72472  57.80013  1      105
siesta:     13.62361   2.72472  57.80013  1      106
siesta:      2.72472   8.17416  57.80013  1      107
siesta:      8.17416   8.17416  57.80013  1      108
siesta:     13.62361   8.17416  57.80013  1      109
siesta:      2.72472  13.62361  57.80013  1      110
siesta:      8.17416  13.62361  57.80013  1      111
siesta:     13.62361  13.62361  57.80013  1      112

siesta: System type = bulk      

initatomlists: Number of atoms, orbitals, and projectors:    112  1008  1792

coxmol: Writing XMOL coordinates into file au_100.xyz                                                      

siesta: ******************** Simulation parameters ****************************
siesta:
siesta: The following are some of the parameters of the simulation.
siesta: A complete list of the parameters used, including default values,
siesta: can be found in file out.fdf
siesta:
redata: Non-Collinear-spin run           =     F
redata: SpinPolarized (Up/Down) run      =     F
redata: Number of spin components        =     1
redata: Long output                      =     F
redata: Number of Atomic Species         =        1
redata: Charge density info will appear in .RHO file
redata: Write Mulliken Pop.              =     Atomic and Orbital charges
redata: Mesh Cutoff                      =   100.0000  Ry
redata: Net charge of the system         =     0.0000 |e|
redata: Min. number of SCF Iter          =        0
redata: Max. number of SCF Iter          =      300
redata: Mix Hamiltonian instead of DM    =     T
redata: Mix DM or H after convergence    =     F
redata: Recompute H after scf cycle      =     F
redata: Performing Pulay mixing using    =     5 iterations
redata: Mix DM in first SCF step ?       =     T
redata: Write Pulay info on disk?        =     F
redata: Discard 1st Pulay DM after  kick =     F
redata: New DM Mixing Weight             =     0.0500
redata: New DM Occupancy tolerance       = 0.000000000001
redata: No kicks to SCF
redata: DM Mixing Weight for Kicks       =     0.5000
redata: DM Tolerance for SCF             =     0.000100
redata: Require (free) Energy convergence in SCF =     F
redata: DM (free)Energy tolerance for SCF =     0.000010 eV
redata: Require Harris convergence for SCF =     F
redata: DM Harris energy tolerance for SCF =     0.000010 eV
redata: Using Saved Data (generic)   =     F
redata: Use continuation files for DM    =     T
redata: Neglect nonoverlap interactions  =     F
redata: Method of Calculation            =         Transiesta
redata: Fix the spin of the system       =     F
redata: Dynamics option                  =     Single-point calculation
redata: ***********************************************************************
Total number of electrons:  1232.000000
Total ionic charge:  1232.000000

* ProcessorY, Blocksize:    2  24


* Orbital distribution balance (max,min):   264   240

k-point displ. along   1 input, could be:     0.00    0.50
k-point displ. along   2 input, could be:     0.00    0.50
k-point displ. along   3 input, could be:     0.00    0.50
 Kpoints in:            8 . Kpoints trimmed:            8

siesta: k-grid: Number of k-points =     8
siesta: k-grid: Cutoff (effective) =     8.651 Ang
siesta: k-grid: Supercell and displacements
siesta: k-grid:    2   0   0      0.000
siesta: k-grid:    0   2   0      0.000
siesta: k-grid:    0   0   2      0.000

ts_read_options: **************************************************************
ts_read_options: Save H and S matrices        =    T
ts_read_options: Save S and quit (onlyS)      =    F
ts_read_options: TranSIESTA Voltage           =    0.2500 Volts
ts_read_options: Bulk Values in Electrodes    =    T
ts_read_options: TriDiag                      =    F
ts_read_options: Update DM Contact Reg. only  =    T
ts_read_options: N. Buffer At. Left           =    0
ts_read_options: N. Buffer At. Right          =    0
ts_read_options: N. Pts. Circle               =   24
ts_read_options: N. Pts. Line                 =    6
ts_read_options: N. Poles in Contour          =    6
ts_read_options: N. Pts. Bias Contour         =   20
ts_read_options: Contour E Min.               =   -3.0000 Ry
ts_read_options: GFEta                        =    0.000001 Ry
ts_read_options: Electronic Temperature       =    0.0019 Ry
ts_read_options: Bias Contour Method          =    gaussfermi
ts_read_options: Will not correct charge fluctuations
ts_read_options: Calc. band bottom in elec.   =    F
ts_read_options: GF title                     =    Generated GF file
ts_read_options: Left GF File                 =    au_100.TSGFL
ts_read_options: Right GF File                =    au_100.TSGFR
ts_read_options: Re-use GF file if exists     =    T
ts_read_options: Left electrode TSHS file     =    ./elec_au_100.TSHS
ts_read_options: # atoms used in left elec.   =     4
ts_read_options: Left elec. repetition A1/A2  =   3 X   3
ts_read_options: Right electrode TSHS file    =    ./elec_au_100.TSHS
ts_read_options: # atoms used in right elec.  =     4
ts_read_options: Right elec. repetition A1/A2 =   3 X   3
ts_read_options: **************************************************************

************************ Begin: TS CHECKS AND WARNINGS ************************
************************ End: TS CHECKS AND WARNINGS **************************
 
k-point displ. along   1 input, could be:     0.00    0.50
k-point displ. along   2 input, could be:     0.00    0.50
 Kpoints in:            4 . Kpoints trimmed:            4

transiesta: ts_k-grid: Number of Transport k-points =     4
transiesta: ts_k-grid: Supercell and displacements
transiesta: ts_k-grid:    2   0   0      0.000
transiesta: ts_k-grid:    0   2   0      0.000

transiesta: Atomic coordinates and regions (Ang):
##############################################
#     0.0000000     0.0000000     0.0000000  #
#     2.8837200     0.0000000     0.0000000  #
#     5.7674400     0.0000000     0.0000000  #
#     0.0000000     2.8837200     0.0000000  #
#     2.8837200     2.8837200     0.0000000  #
#     5.7674400     2.8837200     0.0000000  #
#     0.0000000     5.7674400     0.0000000  #
#     2.8837200     5.7674400     0.0000000  #
#     5.7674400     5.7674400     0.0000000  #
#     1.4418600     1.4418600     2.0391000  #
#     4.3255800     1.4418600     2.0391000  #
#     7.2093000     1.4418600     2.0391000  #
#     1.4418600     4.3255800     2.0391000  #
#     4.3255800     4.3255800     2.0391000  #
#     7.2093000     4.3255800     2.0391000  #
#     1.4418600     7.2093000     2.0391000  #
#     4.3255800     7.2093000     2.0391000  #
#     7.2093000     7.2093000     2.0391000  #     Left electrode
#     0.0000000     0.0000000     4.0782000  #
#     2.8837200     0.0000000     4.0782000  #
#     5.7674400     0.0000000     4.0782000  #
#     0.0000000     2.8837200     4.0782000  #
#     2.8837200     2.8837200     4.0782000  #
#     5.7674400     2.8837200     4.0782000  #
#     0.0000000     5.7674400     4.0782000  #
#     2.8837200     5.7674400     4.0782000  #
#     5.7674400     5.7674400     4.0782000  #
#     1.4418600     1.4418600     6.1173000  #
#     4.3255800     1.4418600     6.1173000  #
#     7.2093000     1.4418600     6.1173000  #
#     1.4418600     4.3255800     6.1173000  #
#     4.3255800     4.3255800     6.1173000  #
#     7.2093000     4.3255800     6.1173000  #
#     1.4418600     7.2093000     6.1173000  #
#     4.3255800     7.2093000     6.1173000  #
#     7.2093000     7.2093000     6.1173000  #
##############################################
      0.0000000     0.0000000     8.1564000
      2.8837200     0.0000000     8.1564000
      5.7674400     0.0000000     8.1564000
      0.0000000     2.8837200     8.1564000
      2.8837200     2.8837200     8.1564000
      5.7674400     2.8837200     8.1564000
      0.0000000     5.7674400     8.1564000
      2.8837200     5.7674400     8.1564000
      5.7674400     5.7674400     8.1564000
      1.4418600     1.4418600    10.1955000
      4.3255800     1.4418600    10.1955000
      7.2093000     1.4418600    10.1955000
      1.4418600     4.3255800    10.1955000
      4.3255800     4.3255800    10.1955000
      7.2093000     4.3255800    10.1955000
      1.4418600     7.2093000    10.1955000
      4.3255800     7.2093000    10.1955000
      7.2093000     7.2093000    10.1955000
      0.0000000     0.0000000    12.2346000
      1.4418600     1.4418600    14.2737000        Device
      0.0000000     0.0000000    16.3128000
      1.4418600     1.4418600    18.3519000
      0.0000000     0.0000000    20.3910000
      2.8837200     0.0000000    20.3910000
      5.7674400     0.0000000    20.3910000
      0.0000000     2.8837200    20.3910000
      2.8837200     2.8837200    20.3910000
      5.7674400     2.8837200    20.3910000
      0.0000000     5.7674400    20.3910000
      2.8837200     5.7674400    20.3910000
      5.7674400     5.7674400    20.3910000
      1.4418600     1.4418600    22.4301000
      4.3255800     1.4418600    22.4301000
      7.2093000     1.4418600    22.4301000
      1.4418600     4.3255800    22.4301000
      4.3255800     4.3255800    22.4301000
      7.2093000     4.3255800    22.4301000
      1.4418600     7.2093000    22.4301000
      4.3255800     7.2093000    22.4301000
      7.2093000     7.2093000    22.4301000
##############################################
#     0.0000000     0.0000000    24.4692000  #
#     2.8837200     0.0000000    24.4692000  #
#     5.7674400     0.0000000    24.4692000  #
#     0.0000000     2.8837200    24.4692000  #
#     2.8837200     2.8837200    24.4692000  #
#     5.7674400     2.8837200    24.4692000  #
#     0.0000000     5.7674400    24.4692000  #
#     2.8837200     5.7674400    24.4692000  #
#     5.7674400     5.7674400    24.4692000  #
#     1.4418600     1.4418600    26.5083000  #
#     4.3255800     1.4418600    26.5083000  #
#     7.2093000     1.4418600    26.5083000  #
#     1.4418600     4.3255800    26.5083000  #
#     4.3255800     4.3255800    26.5083000  #
#     7.2093000     4.3255800    26.5083000  #
#     1.4418600     7.2093000    26.5083000  #
#     4.3255800     7.2093000    26.5083000  #
#     7.2093000     7.2093000    26.5083000  #     Right electrode
#     0.0000000     0.0000000    28.5474000  #
#     2.8837200     0.0000000    28.5474000  #
#     5.7674400     0.0000000    28.5474000  #
#     0.0000000     2.8837200    28.5474000  #
#     2.8837200     2.8837200    28.5474000  #
#     5.7674400     2.8837200    28.5474000  #
#     0.0000000     5.7674400    28.5474000  #
#     2.8837200     5.7674400    28.5474000  #
#     5.7674400     5.7674400    28.5474000  #
#     1.4418600     1.4418600    30.5865000  #
#     4.3255800     1.4418600    30.5865000  #
#     7.2093000     1.4418600    30.5865000  #
#     1.4418600     4.3255800    30.5865000  #
#     4.3255800     4.3255800    30.5865000  #
#     7.2093000     4.3255800    30.5865000  #
#     1.4418600     7.2093000    30.5865000  #
#     4.3255800     7.2093000    30.5865000  #
#     7.2093000     7.2093000    30.5865000  #
##############################################
 
transiesta: contour integration path:
 Type         Re(c)[eV]    Im(c)[eV]     Re(weight)     Im(weight)
 Left equilibrium:
 resi   :       0.12500      0.08121    0.000000000   -0.011938052
 resi   :       0.12500      0.24364    0.000000000   -0.011938052
 resi   :       0.12500      0.40607    0.000000000   -0.011938052
 resi   :       0.12500      0.56849    0.000000000   -0.011938052
 resi   :       0.12500      0.73092    0.000000000   -0.011938052
 resi   :       0.12500      0.89335    0.000000000   -0.011938052
 fermi  :       0.35748      0.97456    0.000001810    0.000000000
 fermi  :       0.20598      0.97456    0.000353799    0.000000000
 fermi  :       0.11127      0.97456    0.003920956    0.000000000
 fermi  :       0.02253      0.97456    0.006614407    0.000000000
 fermi  :      -0.06289      0.97456    0.005471678    0.000000000
 fermi  :      -0.11935      0.97456    0.002637437    0.000000000
 circle :      -0.14133      1.12541    0.001579328   -0.028423993
 circle :      -0.18708      1.76586    0.005727976   -0.065566097
 circle :      -0.31872      2.90225    0.014608979   -0.101088842
 circle :      -0.61585      4.50209    0.030350180   -0.133380264
 circle :      -1.18182      6.50727    0.054260132   -0.160258868
 circle :      -2.13028      8.82625    0.086484080   -0.179028288
 circle :      -3.56726     11.32908    0.125727324   -0.186819446
 circle :      -5.57072     13.84870    0.169158845   -0.181151570
 circle :      -8.17054     16.19076    0.212604741   -0.160604333
 circle :     -11.33352     18.15233    0.251084580   -0.125425600
 circle :     -14.95780     19.54737    0.279640919   -0.077872935
 circle :     -18.87967     20.23402    0.294296349   -0.022130809
 circle :     -22.89289     20.13759    0.292893799    0.036239980
 circle :     -26.77725     19.26337    0.275578053    0.091213894
 circle :     -30.33035     17.69587    0.244770770    0.137340153
 circle :     -33.39546     15.58465    0.204645745    0.170630146
 circle :     -35.87979     13.12043    0.160263128    0.189067014
 circle :     -37.75992     10.50748    0.116609508    0.192642384
 circle :     -39.07504      7.93853    0.077785753    0.182975410
 circle :     -39.91103      5.57668    0.046500466    0.162679972
 circle :     -40.38004      3.54663    0.023909055    0.134684021
 circle :     -40.59999      1.93436    0.009736937    0.101673836
 circle :     -40.67690      0.79296    0.002572042    0.065765810
 circle :     -40.69184      0.15105    0.000211927    0.028467907
 Right equilibrium:
 resi   :      -0.12500      0.08121    0.000000000   -0.011938052
 resi   :      -0.12500      0.24364    0.000000000   -0.011938052
 resi   :      -0.12500      0.40607    0.000000000   -0.011938052
 resi   :      -0.12500      0.56849    0.000000000   -0.011938052
 resi   :      -0.12500      0.73092    0.000000000   -0.011938052
 resi   :      -0.12500      0.89335    0.000000000   -0.011938052
 fermi  :       0.10748      0.97456    0.000001810    0.000000000
 fermi  :      -0.04402      0.97456    0.000353799    0.000000000
 fermi  :      -0.13873      0.97456    0.003920956    0.000000000
 fermi  :      -0.22747      0.97456    0.006614407    0.000000000
 fermi  :      -0.31289      0.97456    0.005471678    0.000000000
 fermi  :      -0.36935      0.97456    0.002637437    0.000000000
 circle :      -0.39133      1.12541    0.001579328   -0.028423993
 circle :      -0.43708      1.76586    0.005727976   -0.065566097
 circle :      -0.56872      2.90225    0.014608979   -0.101088842
 circle :      -0.86585      4.50209    0.030350180   -0.133380264
 circle :      -1.43182      6.50727    0.054260132   -0.160258868
 circle :      -2.38028      8.82625    0.086484080   -0.179028288
 circle :      -3.81726     11.32908    0.125727324   -0.186819446
 circle :      -5.82072     13.84870    0.169158845   -0.181151570
 circle :      -8.42054     16.19076    0.212604741   -0.160604333
 circle :     -11.58352     18.15233    0.251084580   -0.125425600
 circle :     -15.20780     19.54737    0.279640919   -0.077872935
 circle :     -19.12967     20.23402    0.294296349   -0.022130809
 circle :     -23.14289     20.13759    0.292893799    0.036239980
 circle :     -27.02725     19.26337    0.275578053    0.091213894
 circle :     -30.58035     17.69587    0.244770770    0.137340153
 circle :     -33.64546     15.58465    0.204645745    0.170630146
 circle :     -36.12979     13.12043    0.160263128    0.189067014
 circle :     -38.00992     10.50748    0.116609508    0.192642384
 circle :     -39.32504      7.93853    0.077785753    0.182975410
 circle :     -40.16103      5.57668    0.046500466    0.162679972
 circle :     -40.63004      3.54663    0.023909055    0.134684021
 circle :     -40.84999      1.93436    0.009736937    0.101673836
 circle :     -40.92690      0.79296    0.002572042    0.065765810
 circle :     -40.94184      0.15105    0.000211927    0.028467907
 Non-equilibrium:
 gaussF :      -0.22050      0.00001    0.000034771    0.000000000
 gaussF :      -0.19250      0.00001    0.000170781    0.000000000
 gaussF :      -0.15694      0.00001    0.000589430    0.000000000
 gaussF :      -0.12316      0.00001    0.001194262    0.000000000
 gaussF :      -0.09537      0.00001    0.001309572    0.000000000
 gaussF :      -0.07771      0.00001    0.000707862    0.000000000
 gaussQ :      -0.07330      0.00001    0.000479902    0.000000000
 gaussQ :      -0.05236      0.00001    0.001782544    0.000000000
 gaussQ :      -0.03141      0.00001    0.001339678    0.000000000
 gaussQ :      -0.01047      0.00001    0.001544506    0.000000000
 gaussQ :       0.01047      0.00001    0.001544506    0.000000000
 gaussQ :       0.03141      0.00001    0.001339678    0.000000000
 gaussQ :       0.05236      0.00001    0.001782544    0.000000000
 gaussQ :       0.07330      0.00001    0.000479902    0.000000000
 gaussF :       0.07771      0.00001    0.000707862    0.000000000
 gaussF :       0.09537      0.00001    0.001309572    0.000000000
 gaussF :       0.12316      0.00001    0.001194262    0.000000000
 gaussF :       0.15694      0.00001    0.000589430    0.000000000
 gaussF :       0.19250      0.00001    0.000170781    0.000000000
 gaussF :       0.22050      0.00001    0.000034771    0.000000000
 

Creating Green's function file for: left 
 Left unit cell (Ang):
  2.8837  0.0000  0.0000
  0.0000  2.8837  0.0000
  0.0000  0.0000  8.1564
 Structure of the Left electrode  | System electrode:
     X (Ang)   Y (Ang)   Z (Ang)  |   X (Ang)   Y (Ang)   Z (Ang)
     0.00000   0.00000   0.00000  |   0.00000   0.00000   0.00000
     2.88372   0.00000   0.00000  |   2.88372   0.00000   0.00000
     5.76744   0.00000   0.00000  |   5.76744   0.00000   0.00000
     0.00000   2.88372   0.00000  |   0.00000   2.88372   0.00000
     2.88372   2.88372   0.00000  |   2.88372   2.88372   0.00000
     5.76744   2.88372   0.00000  |   5.76744   2.88372   0.00000
     0.00000   5.76744   0.00000  |   0.00000   5.76744   0.00000
     2.88372   5.76744   0.00000  |   2.88372   5.76744   0.00000
     5.76744   5.76744   0.00000  |   5.76744   5.76744   0.00000
     1.44186   1.44186   2.03910  |   1.44186   1.44186   2.03910
     4.32558   1.44186   2.03910  |   4.32558   1.44186   2.03910
     7.20930   1.44186   2.03910  |   7.20930   1.44186   2.03910
     1.44186   4.32558   2.03910  |   1.44186   4.32558   2.03910
     4.32558   4.32558   2.03910  |   4.32558   4.32558   2.03910
     7.20930   4.32558   2.03910  |   7.20930   4.32558   2.03910
     1.44186   7.20930   2.03910  |   1.44186   7.20930   2.03910
     4.32558   7.20930   2.03910  |   4.32558   7.20930   2.03910
     7.20930   7.20930   2.03910  |   7.20930   7.20930   2.03910
     0.00000   0.00000   4.07820  |   0.00000   0.00000   4.07820
     2.88372   0.00000   4.07820  |   2.88372   0.00000   4.07820
     5.76744   0.00000   4.07820  |   5.76744   0.00000   4.07820
     0.00000   2.88372   4.07820  |   0.00000   2.88372   4.07820
     2.88372   2.88372   4.07820  |   2.88372   2.88372   4.07820
     5.76744   2.88372   4.07820  |   5.76744   2.88372   4.07820
     0.00000   5.76744   4.07820  |   0.00000   5.76744   4.07820
     2.88372   5.76744   4.07820  |   2.88372   5.76744   4.07820
     5.76744   5.76744   4.07820  |   5.76744   5.76744   4.07820
     1.44186   1.44186   6.11730  |   1.44186   1.44186   6.11730
     4.32558   1.44186   6.11730  |   4.32558   1.44186   6.11730
     7.20930   1.44186   6.11730  |   7.20930   1.44186   6.11730
     1.44186   4.32558   6.11730  |   1.44186   4.32558   6.11730
     4.32558   4.32558   6.11730  |   4.32558   4.32558   6.11730
     7.20930   4.32558   6.11730  |   7.20930   4.32558   6.11730
     1.44186   7.20930   6.11730  |   1.44186   7.20930   6.11730
     4.32558   7.20930   6.11730  |   4.32558   7.20930   6.11730
     7.20930   7.20930   6.11730  |   7.20930   7.20930   6.11730
 Electrodes with transport k-points  (Bohr**-1) and weights:
   1     0.00000E+00   0.00000E+00   0.25000E+00
   2     0.19217E+00   0.00000E+00   0.25000E+00
   3     0.00000E+00   0.19217E+00   0.25000E+00
   4     0.19217E+00   0.19217E+00   0.25000E+00
 Atoms available    / used atoms   :      4 /      4
 Orbitals available / used orbitals:     36 /     36
 q-points for expanding electrode (Bohr**-1):
   1     0.00000E+00   0.00000E+00   0.11111E+00
   2     0.00000E+00   0.38433E+00   0.11111E+00
   3     0.00000E+00   0.76866E+00   0.11111E+00
   4     0.38433E+00   0.00000E+00   0.11111E+00
   5     0.38433E+00   0.38433E+00   0.11111E+00
   6     0.38433E+00   0.76866E+00   0.11111E+00
   7     0.76866E+00   0.00000E+00   0.11111E+00
   8     0.76866E+00   0.38433E+00   0.11111E+00
   9     0.76866E+00   0.76866E+00   0.11111E+00
 Fermi level shift in electrode :        0.12500  eV
Done creating 'au_100.TSGFL'.

Creating Green's function file for: right
 Right unit cell (Ang):
  2.8837  0.0000  0.0000
  0.0000  2.8837  0.0000
  0.0000  0.0000  8.1564
 Structure of the Right electrode | System electrode:
     X (Ang)   Y (Ang)   Z (Ang)  |   X (Ang)   Y (Ang)   Z (Ang)
     0.00000   0.00000   0.00000  |   0.00000   0.00000   0.00000
     2.88372   0.00000   0.00000  |   2.88372   0.00000   0.00000
     5.76744   0.00000   0.00000  |   5.76744   0.00000   0.00000
     0.00000   2.88372   0.00000  |   0.00000   2.88372   0.00000
     2.88372   2.88372   0.00000  |   2.88372   2.88372   0.00000
     5.76744   2.88372   0.00000  |   5.76744   2.88372   0.00000
     0.00000   5.76744   0.00000  |   0.00000   5.76744   0.00000
     2.88372   5.76744   0.00000  |   2.88372   5.76744   0.00000
     5.76744   5.76744   0.00000  |   5.76744   5.76744   0.00000
     1.44186   1.44186   2.03910  |   1.44186   1.44186   2.03910
     4.32558   1.44186   2.03910  |   4.32558   1.44186   2.03910
     7.20930   1.44186   2.03910  |   7.20930   1.44186   2.03910
     1.44186   4.32558   2.03910  |   1.44186   4.32558   2.03910
     4.32558   4.32558   2.03910  |   4.32558   4.32558   2.03910
     7.20930   4.32558   2.03910  |   7.20930   4.32558   2.03910
     1.44186   7.20930   2.03910  |   1.44186   7.20930   2.03910
     4.32558   7.20930   2.03910  |   4.32558   7.20930   2.03910
     7.20930   7.20930   2.03910  |   7.20930   7.20930   2.03910
     0.00000   0.00000   4.07820  |   0.00000   0.00000   4.07820
     2.88372   0.00000   4.07820  |   2.88372   0.00000   4.07820
     5.76744   0.00000   4.07820  |   5.76744   0.00000   4.07820
     0.00000   2.88372   4.07820  |   0.00000   2.88372   4.07820
     2.88372   2.88372   4.07820  |   2.88372   2.88372   4.07820
     5.76744   2.88372   4.07820  |   5.76744   2.88372   4.07820
     0.00000   5.76744   4.07820  |   0.00000   5.76744   4.07820
     2.88372   5.76744   4.07820  |   2.88372   5.76744   4.07820
     5.76744   5.76744   4.07820  |   5.76744   5.76744   4.07820
     1.44186   1.44186   6.11730  |   1.44186   1.44186   6.11730
     4.32558   1.44186   6.11730  |   4.32558   1.44186   6.11730
     7.20930   1.44186   6.11730  |   7.20930   1.44186   6.11730
     1.44186   4.32558   6.11730  |   1.44186   4.32558   6.11730
     4.32558   4.32558   6.11730  |   4.32558   4.32558   6.11730
     7.20930   4.32558   6.11730  |   7.20930   4.32558   6.11730
     1.44186   7.20930   6.11730  |   1.44186   7.20930   6.11730
     4.32558   7.20930   6.11730  |   4.32558   7.20930   6.11730
     7.20930   7.20930   6.11730  |   7.20930   7.20930   6.11730
 Electrodes with transport k-points  (Bohr**-1) and weights:
   1     0.00000E+00   0.00000E+00   0.25000E+00
   2     0.19217E+00   0.00000E+00   0.25000E+00
   3     0.00000E+00   0.19217E+00   0.25000E+00
   4     0.19217E+00   0.19217E+00   0.25000E+00
 Atoms available    / used atoms   :      4 /      4
 Orbitals available / used orbitals:     36 /     36
 q-points for expanding electrode (Bohr**-1):
   1     0.00000E+00   0.00000E+00   0.11111E+00
   2     0.00000E+00   0.38433E+00   0.11111E+00
   3     0.00000E+00   0.76866E+00   0.11111E+00
   4     0.38433E+00   0.00000E+00   0.11111E+00
   5     0.38433E+00   0.38433E+00   0.11111E+00
   6     0.38433E+00   0.76866E+00   0.11111E+00
   7     0.76866E+00   0.00000E+00   0.11111E+00
   8     0.76866E+00   0.38433E+00   0.11111E+00
   9     0.76866E+00   0.76866E+00   0.11111E+00
 Fermi level shift in electrode :       -0.12500  eV
Done creating 'au_100.TSGFR'.

Left : GF atoms    / Expanded atoms    :      4 /     36
Left : GF orbitals / Expanded orbitals :     36 /    324
Right: GF atoms    / Expanded atoms    :      4 /     36
Right: GF orbitals / Expanded orbitals :     36 /    324
 
Naive supercell factors:     3    3    1

superc: Internal auxiliary supercell:     3 x     3 x     1  =       9
superc: Number of atoms, orbitals, and projectors:   1008   9072  16128

                     ====================================
                        Single-point calculation
                     ====================================

superc: Internal auxiliary supercell:     3 x     3 x     1  =       9
superc: Number of atoms, orbitals, and projectors:   1008   9072  16128

outcell: Unit cell vectors (Ang):
        8.651160    0.000000    0.000000
        0.000000    8.651160    0.000000
        0.000000    0.000000   32.625600

outcell: Cell vector modules (Ang)   :    8.651160    8.651160   32.625600
outcell: Cell angles (23,13,12) (deg):     90.0000     90.0000     90.0000
outcell: Cell volume (Ang**3)        :   2441.7837
New_DM. Step:     1
Initializing Density Matrix...
TRANSIESTA: No TS-DensityMatrix file found
TRANSIESTA: Initialization runs using diagon
New grid distribution:   1
           1       1:   27    1:   14    1:   50
           2       1:   27    1:   14   51:  100
           3       1:   27   15:   27    1:   50
           4       1:   27   15:   27   51:  100

InitMesh: MESH =    54 x    54 x   200 =      583200
InitMesh: (bp) =    27 x    27 x   100 =       72900
InitMesh: Mesh cutoff (required, used) =   100.000   103.859 Ry
ExtMesh (bp) on 0 =    75 x    62 x    98 =      455700
New grid distribution:   2
           1       1:   27    1:   27   19:   63
           2       1:   27    1:   27   64:   82
           3       1:   27    1:   27    1:   18
           4       1:   27    1:   27   83:  100
New grid distribution:   3
           1       1:   27    1:   27   26:   51
           2       1:   27    1:   27   52:   76
           3       1:   27    1:   27    1:   25
           4       1:   27    1:   27   77:  100
Setting up quadratic distribution...
ExtMesh (bp) on 0 =    75 x    75 x    93 =      523125
PhiOnMesh: Number of (b)points on node 0 =                32805
PhiOnMesh: nlist on node 0 =              1510850
 
ts_voltage: Bias  0.250 V
ts_voltage: In unit cell direction = { 0.000, 0.000, 1.000}

stepf: Fermi-Dirac step function

siesta: Program's energy decomposition (eV):
siesta: Ebs     =     19211.935713
siesta: Eions   =    106428.788183
siesta: Ena     =       385.354664
siesta: Ekin    =     71439.585242
siesta: Enl     =    -46038.605114
siesta: DEna    =       166.581003
siesta: DUscf   =       281.732917
siesta: DUext   =         0.000000
siesta: Exc     =    -80125.865728
siesta: eta*DQ  =         0.000000
siesta: Emadel  =         0.000000
siesta: Emeta   =         0.000000
siesta: Emolmec =         0.000000
siesta: Ekinion =         0.000000
siesta: Eharris =   -159815.176421
siesta: Etot    =   -160320.005200
siesta: FreeEng =   -160320.098686

   scf: iscf   Eharris(eV)      E_KS(eV)   FreeEng(eV)    dDmax  Ef(eV)
   scf:    1  -159815.1764  -160320.0052  -160320.0987  5.55020 -1.9561
timer: Routine,Calls,Time,% =    IterSCF     1      46.128  69.69
   scf:    2  -156826.3096  -159514.6690  -159514.7896 12.52590 -0.8774
   scf:    3  -160665.8403  -160494.4219  -160494.5538  1.21073 -1.8165
   scf:    4  -160509.6687  -160510.4320  -160510.5993  0.28799 -2.0294
   scf:    5  -160499.5346  -160509.6105  -160509.7308  0.52692 -1.9327
   scf:    6  -160510.8828  -160510.7680  -160510.8851  0.43770 -1.9349
   scf:    7  -160520.9019  -160517.1585  -160517.2953  0.22951 -2.0376
   scf:    8  -160522.0436  -160519.6616  -160519.7989  0.23262 -2.0971
   scf:    9  -160529.3649  -160526.6691  -160526.8085  0.33045 -2.5395
   scf:   10  -160525.6822  -160526.7116  -160526.8479  0.08087 -2.3697
   scf:   11  -160527.8693  -160527.3517  -160527.4893  0.03217 -2.4503
   scf:   12  -160527.3854  -160527.3867  -160527.5245  0.03545 -2.4604
   scf:   13  -160527.5483  -160527.4825  -160527.6211  0.03510 -2.4743
   scf:   14  -160527.5303  -160527.5092  -160527.6480  0.01272 -2.4790
   scf:   15  -160527.5285  -160527.5194  -160527.6581  0.01196 -2.4838
   scf:   16  -160527.5368  -160527.5292  -160527.6676  0.00487 -2.4889
   scf:   17  -160527.5307  -160527.5300  -160527.6683  0.00605 -2.4897
   scf:   18  -160527.5301  -160527.5302  -160527.6686  0.00693 -2.4901
   scf:   19  -160527.5306  -160527.5306  -160527.6690  0.00450 -2.4920
   scf:   20  -160527.5318  -160527.5312  -160527.6696  0.00402 -2.4931
   scf:   21  -160527.5340  -160527.5330  -160527.6712  0.00368 -2.4978
   scf:   22  -160527.5316  -160527.5323  -160527.6706  0.00443 -2.4985
   scf:   23  -160527.5342  -160527.5333  -160527.6715  0.00342 -2.4988
   scf:   24  -160527.5335  -160527.5335  -160527.6716  0.00389 -2.5017
   scf:   25  -160527.5341  -160527.5339  -160527.6720  0.00355 -2.5011
   scf:   26  -160527.5349  -160527.5344  -160527.6725  0.00139 -2.5014
   scf:   27  -160527.5362  -160527.5354  -160527.6733  0.00130 -2.5000
   scf:   28  -160527.5359  -160527.5357  -160527.6736  0.00088 -2.4998
   scf:   29  -160527.5357  -160527.5357  -160527.6737  0.00046 -2.4999
   scf:   30  -160527.5357  -160527.5357  -160527.6737  0.00048 -2.4996
   scf:   31  -160527.5357  -160527.5357  -160527.6737  0.00040 -2.4994
   scf:   32  -160527.5357  -160527.5357  -160527.6737  0.00016 -2.4991
   scf:   33  -160527.5357  -160527.5357  -160527.6737  0.00007 -2.4991

SCF Convergence by dMax criterion
max |H_out - H_in| (eV):     0.00099492
SCF cycle converged after   33 iterations

                          ************************       
                          *   TRANSIESTA BEGIN   *       
                          ************************       

Creating update lists and calculating SIESTA charge distribution...

transiesta: Total elements / Updated elements :  1226352 /   187524

Efermi from SIESTA                   :    -2.49913
Total charge                  [Qt0]  :  1232.00000
Charge in update region       [Qc]   :   436.14157
Charge outside update region  [Qcn]  :   795.85843
Left electrode                [L]    :   392.14870
Left electrode/device         [L-C]  :     3.86784
Device                        [C]    :   436.14157
Device/right electrode        [C-R]  :     3.86788
Right electrode               [R]    :   392.14863
Other                         [O]    :     3.82538

 Reading GF file, with title:
   /home/albertog/code/SIESTA/trunk-ag/TS_ParIntel/Tests/TranSiesta-TBTrans/ts_au_100_repetition_0.25V/work/Scat_au_100/au_100.TSGFL
 Title: 'Generated GF file'

 Reading GF file, with title:
   /home/albertog/code/SIESTA/trunk-ag/TS_ParIntel/Tests/TranSiesta-TBTrans/ts_au_100_repetition_0.25V/work/Scat_au_100/au_100.TSGFR
 Title: 'Generated GF file'

ts-charge:        O        L      L-C        C      C-R        R       Qt
ts-charge:    3.825  392.149    3.868  436.182    3.868  392.149 1232.040

siesta: Program's energy decomposition (eV):
siesta: Ebs     =     -8767.818872
siesta: Eions   =    106428.788183
siesta: Ena     =       385.354664
siesta: Ekin    =     73195.402030
siesta: Enl     =    -47374.092623
siesta: DEna    =       105.031184
siesta: DUscf   =        42.154309
siesta: DUext   =         0.000000
siesta: Exc     =    -80451.935480
siesta: eta*DQ  =         0.000000
siesta: Emadel  =         0.000000
siesta: Emeta   =         0.000000
siesta: Emolmec =         0.000000
siesta: Ekinion =         0.000000
siesta: Eharris =   -160525.018277
siesta: Etot    =   -160526.874099
siesta: FreeEng =   -160527.012101

transiesta: iscf   Eharris(eV)      E_KS(eV)   FreeEng(eV)    dDmax  Ef(eV)
transiesta:    1  -160525.0183  -160526.8741  -160527.0121  0.24960 -2.4991
timer: Routine,Calls,Time,% =         TS     1     189.214  11.64
timer: Routine,Calls,Time,% =    TS_calc     2     189.179  11.64
ts-charge:        O        L      L-C        C      C-R        R       Qt
ts-charge:    3.825  392.149    3.868  436.367    3.868  392.149 1232.226
transiesta:    2  -160514.8047  -160525.0720  -160525.2100  0.50194 -2.4991
ts-charge:        O        L      L-C        C      C-R        R       Qt
ts-charge:    3.825  392.149    3.868  435.987    3.868  392.149 1231.846
transiesta:    3  -160526.3655  -160527.2866  -160527.4246  0.05014 -2.4991
ts-charge:        O        L      L-C        C      C-R        R       Qt
ts-charge:    3.825  392.149    3.868  436.126    3.868  392.149 1231.985
transiesta:    4  -160528.1757  -160527.7895  -160527.9275  0.01444 -2.4991
ts-charge:        O        L      L-C        C      C-R        R       Qt
ts-charge:    3.825  392.149    3.868  436.209    3.868  392.149 1232.067
transiesta:    5  -160528.3340  -160528.1022  -160528.2402  0.01513 -2.4991
ts-charge:        O        L      L-C        C      C-R        R       Qt
ts-charge:    3.825  392.149    3.868  436.171    3.868  392.149 1232.030
transiesta:    6  -160527.8821  -160527.9772  -160528.1152  0.00550 -2.4991
ts-charge:        O        L      L-C        C      C-R        R       Qt
ts-charge:    3.825  392.149    3.868  436.149    3.868  392.149 1232.008
transiesta:    7  -160527.8596  -160527.9097  -160528.0477  0.00175 -2.4991
ts-charge:        O        L      L-C        C      C-R        R       Qt
ts-charge:    3.825  392.149    3.868  436.149    3.868  392.149 1232.007
transiesta:    8  -160527.9221  -160527.9158  -160528.0538  0.00103 -2.4991
ts-charge:        O        L      L-C        C      C-R        R       Qt
ts-charge:    3.825  392.149    3.868  436.150    3.868  392.149 1232.009
transiesta:    9  -160527.9413  -160527.9291  -160528.0671  0.00056 -2.4991
ts-charge:        O        L      L-C        C      C-R        R       Qt
ts-charge:    3.825  392.149    3.868  436.150    3.868  392.149 1232.008
transiesta:   10  -160527.9381  -160527.9334  -160528.0714  0.00068 -2.4991
ts-charge:        O        L      L-C        C      C-R        R       Qt
ts-charge:    3.825  392.149    3.868  436.150    3.868  392.149 1232.008
transiesta:   11  -160527.9415  -160527.9375  -160528.0755  0.00041 -2.4991
ts-charge:        O        L      L-C        C      C-R        R       Qt
ts-charge:    3.825  392.149    3.868  436.150    3.868  392.149 1232.008
transiesta:   12  -160527.9406  -160527.9389  -160528.0769  0.00042 -2.4991
ts-charge:        O        L      L-C        C      C-R        R       Qt
ts-charge:    3.825  392.149    3.868  436.150    3.868  392.149 1232.008
transiesta:   13  -160527.9434  -160527.9413  -160528.0793  0.00010 -2.4991
ts-charge:        O        L      L-C        C      C-R        R       Qt
ts-charge:    3.825  392.149    3.868  436.150    3.868  392.149 1232.008
transiesta:   14  -160527.9425  -160527.9419  -160528.0799  0.00009 -2.4991

SCF Convergence by dMax criterion
max |H_out - H_in| (eV):     0.00124957
SCF cycle converged after   14 iterations

Using DM_out to compute the final energy and forces

siesta: E_KS(eV) =          -160527.9419

siesta: E_KS - E_eggbox =   -160527.9419

siesta: Atomic forces (eV/Ang):
----------------------------------------
   Tot   -0.005843   -0.005843    0.216471
----------------------------------------
   Max    1.296515
   Res    0.295534    sqrt( Sum f_i^2 / 3N )
----------------------------------------
   Max    1.296515    constrained

Stress-tensor-Voigt (kbar):     -137.97     -137.97     -138.35        1.12        0.58        0.58
(Free)E + p*V (eV/cell)  -160317.6125
Target enthalpy (eV/cell)  -160528.0799
 
mulliken: Atomic and Orbital Populations:

Species: Au                  
Atom  Qatom  Qorb
               6s      5dxy    5dyz    5dz2    5dxz    5dx2-y2 6Ppy    6Ppz    
               6Ppx    
   1 10.998   0.973   1.932   1.890   1.939   1.890   1.894   0.159   0.161
              0.159
   2 10.999   0.976   1.932   1.890   1.940   1.890   1.894   0.158   0.161
              0.158
   3 10.999   0.976   1.932   1.889   1.940   1.890   1.894   0.158   0.162
              0.158
   4 10.999   0.976   1.932   1.890   1.940   1.890   1.894   0.158   0.161
              0.158
   5 10.999   0.975   1.933   1.889   1.939   1.889   1.894   0.159   0.162
              0.159
   6 10.999   0.975   1.932   1.890   1.939   1.891   1.894   0.158   0.162
              0.159
   7 10.999   0.976   1.932   1.890   1.940   1.889   1.894   0.158   0.162
              0.158
   8 10.999   0.975   1.932   1.891   1.939   1.890   1.894   0.159   0.162
              0.158
   9 10.999   0.974   1.933   1.890   1.938   1.890   1.894   0.159   0.162
              0.159
  10 11.004   0.987   1.935   1.886   1.939   1.886   1.894   0.159   0.160
              0.159
  11 11.002   0.981   1.935   1.887   1.940   1.886   1.894   0.159   0.161
              0.159
  12 11.003   0.984   1.935   1.886   1.940   1.886   1.894   0.159   0.161
              0.159
  13 11.002   0.981   1.935   1.886   1.940   1.887   1.894   0.159   0.161
              0.159
  14 11.001   0.982   1.935   1.888   1.940   1.888   1.893   0.159   0.157
              0.159
  15 11.001   0.980   1.935   1.887   1.939   1.887   1.894   0.159   0.161
              0.159
  16 11.003   0.984   1.935   1.886   1.940   1.886   1.894   0.159   0.161
              0.159
  17 11.001   0.980   1.935   1.887   1.939   1.887   1.894   0.159   0.161
              0.159
  18 11.004   0.985   1.935   1.886   1.940   1.886   1.894   0.159   0.161
              0.159
  19 10.997   0.971   1.932   1.890   1.939   1.890   1.894   0.159   0.164
              0.159
  20 11.000   0.978   1.932   1.889   1.940   1.891   1.893   0.159   0.160
              0.158
  21 11.000   0.979   1.932   1.888   1.940   1.891   1.893   0.159   0.160
              0.159
  22 11.000   0.978   1.932   1.891   1.940   1.889   1.893   0.158   0.160
              0.159
  23 11.000   0.978   1.932   1.889   1.940   1.889   1.894   0.159   0.160
              0.159
  24 11.000   0.978   1.932   1.889   1.941   1.890   1.894   0.159   0.159
              0.159
  25 11.000   0.979   1.932   1.891   1.940   1.888   1.893   0.159   0.160
              0.159
  26 11.000   0.978   1.932   1.890   1.941   1.889   1.894   0.159   0.159
              0.159
  27 10.999   0.977   1.933   1.889   1.940   1.889   1.894   0.159   0.159
              0.159
  28 10.998   0.975   1.936   1.891   1.939   1.891   1.889   0.159   0.160
              0.159
  29 10.999   0.973   1.935   1.890   1.938   1.891   1.889   0.160   0.164
              0.160
  30 10.998   0.975   1.935   1.890   1.939   1.891   1.889   0.159   0.161
              0.159
  31 10.999   0.973   1.935   1.891   1.938   1.890   1.889   0.160   0.164
              0.160
  32 11.001   0.973   1.934   1.890   1.937   1.890   1.890   0.161   0.165
              0.161
  33 10.999   0.973   1.935   1.891   1.938   1.890   1.889   0.160   0.163
              0.160
  34 10.998   0.975   1.935   1.891   1.939   1.890   1.889   0.159   0.161
              0.159
  35 10.999   0.973   1.935   1.890   1.938   1.891   1.889   0.160   0.163
              0.160
  36 10.998   0.973   1.935   1.890   1.938   1.890   1.889   0.160   0.162
              0.160
  37 10.960   0.948   1.938   1.903   1.937   1.903   1.878   0.153   0.148
              0.153
  38 10.972   0.955   1.938   1.902   1.928   1.900   1.879   0.153   0.162
              0.154
  39 10.973   0.960   1.938   1.902   1.927   1.901   1.878   0.153   0.160
              0.153
  40 10.972   0.955   1.938   1.900   1.928   1.902   1.879   0.154   0.162
              0.153
  41 10.972   0.952   1.939   1.901   1.928   1.901   1.878   0.154   0.165
              0.154
  42 10.975   0.958   1.939   1.900   1.927   1.901   1.878   0.153   0.165
              0.154
  43 10.973   0.960   1.938   1.901   1.927   1.902   1.878   0.153   0.160
              0.153
  44 10.975   0.958   1.939   1.901   1.927   1.900   1.878   0.154   0.165
              0.153
  45 10.978   0.963   1.938   1.900   1.926   1.900   1.878   0.154   0.164
              0.154
  46 11.015   1.007   1.950   1.915   1.934   1.915   1.868   0.143   0.140
              0.143
  47 11.028   1.039   1.949   1.921   1.948   1.927   1.860   0.136   0.111
              0.137
  48 11.014   1.012   1.949   1.912   1.939   1.916   1.867   0.144   0.132
              0.141
  49 11.028   1.039   1.949   1.927   1.948   1.921   1.860   0.137   0.111
              0.136
  50 11.034   1.048   1.948   1.922   1.949   1.922   1.861   0.137   0.110
              0.137
  51 11.025   1.039   1.949   1.926   1.949   1.922   1.861   0.135   0.109
              0.136
  52 11.014   1.012   1.949   1.916   1.939   1.912   1.867   0.141   0.132
              0.144
  53 11.025   1.039   1.949   1.922   1.949   1.926   1.861   0.136   0.109
              0.135
  54 11.033   1.032   1.948   1.911   1.937   1.911   1.869   0.145   0.136
              0.145
  55 11.043   1.093   1.928   1.900   1.962   1.900   1.976   0.085   0.116
              0.085
  56 11.006   1.071   1.977   1.939   1.966   1.939   1.986   0.026   0.078
              0.026
  57 11.016   1.089   1.976   1.936   1.965   1.936   1.986   0.025   0.076
              0.025
  58 11.044   1.094   1.927   1.899   1.962   1.899   1.976   0.083   0.122
              0.083
  59 11.013   1.003   1.950   1.914   1.937   1.914   1.867   0.143   0.142
              0.143
  60 11.012   1.008   1.949   1.911   1.939   1.917   1.867   0.145   0.132
              0.142
  61 11.024   1.034   1.949   1.921   1.948   1.928   1.860   0.136   0.110
              0.137
  62 11.012   1.008   1.949   1.917   1.939   1.911   1.867   0.142   0.132
              0.145
  63 11.032   1.030   1.948   1.912   1.937   1.912   1.867   0.146   0.136
              0.146
  64 11.021   1.034   1.949   1.922   1.948   1.928   1.860   0.136   0.108
              0.137
  65 11.024   1.034   1.949   1.928   1.948   1.921   1.860   0.137   0.110
              0.136
  66 11.021   1.034   1.949   1.928   1.948   1.922   1.860   0.137   0.108
              0.136
  67 11.029   1.042   1.949   1.923   1.949   1.923   1.861   0.138   0.109
              0.138
  68 10.958   0.947   1.937   1.901   1.943   1.901   1.877   0.152   0.148
              0.152
  69 10.972   0.959   1.938   1.901   1.927   1.901   1.882   0.152   0.159
              0.152
  70 10.972   0.957   1.938   1.901   1.927   1.899   1.882   0.153   0.161
              0.153
  71 10.972   0.959   1.938   1.901   1.927   1.901   1.882   0.152   0.159
              0.152
  72 10.979   0.965   1.938   1.900   1.927   1.900   1.878   0.154   0.164
              0.154
  73 10.977   0.960   1.939   1.902   1.926   1.901   1.878   0.153   0.165
              0.153
  74 10.972   0.957   1.938   1.899   1.927   1.901   1.882   0.153   0.161
              0.153
  75 10.977   0.960   1.939   1.901   1.926   1.902   1.878   0.153   0.165
              0.153
  76 10.974   0.956   1.939   1.901   1.927   1.901   1.878   0.154   0.164
              0.154
  77 10.998   0.975   1.936   1.891   1.939   1.891   1.889   0.159   0.160
              0.159
  78 10.998   0.975   1.935   1.890   1.939   1.891   1.889   0.159   0.161
              0.159
  79 10.999   0.972   1.935   1.890   1.938   1.891   1.889   0.160   0.164
              0.160
  80 10.998   0.975   1.935   1.891   1.939   1.890   1.889   0.159   0.161
              0.159
  81 10.998   0.973   1.935   1.890   1.938   1.890   1.889   0.160   0.162
              0.160
  82 10.999   0.973   1.935   1.890   1.938   1.891   1.889   0.160   0.163
              0.160
  83 10.999   0.972   1.935   1.891   1.938   1.890   1.889   0.160   0.164
              0.160
  84 10.999   0.973   1.935   1.891   1.938   1.890   1.889   0.160   0.163
              0.160
  85 11.001   0.973   1.934   1.890   1.937   1.890   1.890   0.161   0.165
              0.161
  86 10.997   0.971   1.932   1.890   1.939   1.890   1.894   0.159   0.164
              0.159
  87 11.000   0.979   1.932   1.888   1.940   1.890   1.893   0.159   0.160
              0.159
  88 11.000   0.978   1.932   1.889   1.940   1.891   1.893   0.159   0.160
              0.158
  89 11.000   0.979   1.932   1.890   1.940   1.888   1.893   0.159   0.160
              0.159
  90 10.999   0.977   1.933   1.889   1.940   1.889   1.894   0.159   0.159
              0.159
  91 11.000   0.978   1.932   1.890   1.941   1.889   1.894   0.159   0.159
              0.159
  92 11.000   0.978   1.932   1.891   1.940   1.889   1.893   0.158   0.160
              0.159
  93 11.000   0.978   1.932   1.889   1.941   1.890   1.894   0.159   0.159
              0.159
  94 11.000   0.978   1.932   1.889   1.940   1.889   1.894   0.159   0.160
              0.159
  95 11.004   0.987   1.935   1.886   1.939   1.886   1.894   0.159   0.160
              0.159
  96 11.003   0.984   1.935   1.886   1.940   1.886   1.894   0.159   0.161
              0.159
  97 11.002   0.981   1.935   1.887   1.940   1.886   1.894   0.159   0.161
              0.159
  98 11.003   0.984   1.935   1.886   1.940   1.886   1.894   0.159   0.161
              0.159
  99 11.004   0.985   1.935   1.886   1.940   1.886   1.894   0.159   0.161
              0.159
 100 11.001   0.980   1.935   1.887   1.939   1.887   1.894   0.159   0.161
              0.159
 101 11.002   0.981   1.935   1.886   1.940   1.887   1.894   0.159   0.161
              0.159
 102 11.001   0.980   1.935   1.887   1.939   1.887   1.894   0.159   0.161
              0.159
 103 11.001   0.982   1.935   1.888   1.940   1.888   1.893   0.159   0.157
              0.159
 104 10.998   0.973   1.932   1.890   1.939   1.890   1.894   0.159   0.161
              0.159
 105 10.999   0.976   1.932   1.889   1.940   1.890   1.894   0.158   0.162
              0.158
 106 10.999   0.976   1.933   1.890   1.940   1.890   1.894   0.158   0.161
              0.158
 107 10.999   0.976   1.932   1.890   1.940   1.889   1.894   0.158   0.162
              0.158
 108 10.999   0.974   1.933   1.890   1.938   1.890   1.894   0.159   0.162
              0.159
 109 10.999   0.975   1.932   1.891   1.939   1.890   1.894   0.159   0.162
              0.158
 110 10.999   0.976   1.933   1.890   1.940   1.890   1.894   0.158   0.161
              0.158
 111 10.999   0.975   1.932   1.890   1.939   1.891   1.894   0.158   0.162
              0.159
 112 10.999   0.975   1.933   1.889   1.939   1.889   1.894   0.159   0.162
              0.159

mulliken: Qtot =     1232.008

coxmol: Writing XMOL coordinates into file au_100.xyz                                                      

siesta: Program's energy decomposition (eV):
siesta: Ebs     =     -8368.140314
siesta: Eions   =    106428.788183
siesta: Ena     =       385.354664
siesta: Ekin    =     73195.305021
siesta: Enl     =    -47374.427870
siesta: DEna    =       105.164582
siesta: DUscf   =        41.019303
siesta: DUext   =         0.000000
siesta: Exc     =    -80451.569395
siesta: eta*DQ  =         0.000000
siesta: Emadel  =         0.000000
siesta: Emeta   =         0.000000
siesta: Emolmec =         0.000000
siesta: Ekinion =         0.000000
siesta: Eharris =   -160527.942484
siesta: Etot    =   -160527.941878
siesta: FreeEng =   -160528.079880

siesta: Final energy (eV):
siesta:  Band Struct. =   -8368.140314
siesta:       Kinetic =   73195.305021
siesta:       Hartree =  243577.512090
siesta:    Ext. field =       0.000000
siesta:   Exch.-corr. =  -80451.569395
siesta:  Ion-electron = -542408.016513
siesta:       Ion-ion =  145558.826919
siesta:       Ekinion =       0.000000
siesta:         Total = -160527.941878

siesta: Atomic forces (eV/Ang):
siesta:      1   -0.005971   -0.005971   -0.002191
siesta:      2    0.005808   -0.000355   -0.010699
siesta:      3   -0.000381    0.001238   -0.010215
siesta:      4   -0.000355    0.005808   -0.010699
siesta:      5    0.000537    0.000537    0.013066
siesta:      6   -0.000881   -0.011461   -0.004604
siesta:      7    0.001238   -0.000381   -0.010215
siesta:      8   -0.011461   -0.000881   -0.004604
siesta:      9    0.010794    0.010794    0.009356
siesta:     10    0.001493    0.001493    0.034768
siesta:     11   -0.004376   -0.006017    0.050848
siesta:     12    0.003103   -0.002781    0.038587
siesta:     13   -0.006017   -0.004376    0.050848
siesta:     14   -0.004903   -0.004903    0.038000
siesta:     15    0.010830   -0.003258    0.058930
siesta:     16   -0.002781    0.003103    0.038587
siesta:     17   -0.003258    0.010830    0.058930
siesta:     18    0.005854    0.005854    0.049262
siesta:     19   -0.010662   -0.010662   -0.064790
siesta:     20    0.010957   -0.000232   -0.076533
siesta:     21    0.001452    0.004073   -0.087631
siesta:     22   -0.000232    0.010957   -0.076533
siesta:     23    0.003724    0.003724   -0.099242
siesta:     24   -0.003947   -0.007736   -0.086837
siesta:     25    0.004073    0.001452   -0.087631
siesta:     26   -0.007736   -0.003947   -0.086837
siesta:     27    0.003472    0.003472   -0.091250
siesta:     28    0.007708    0.007708    0.032482
siesta:     29   -0.002471   -0.001314   -0.010245
siesta:     30   -0.006501   -0.000241    0.021037
siesta:     31   -0.001314   -0.002471   -0.010245
siesta:     32   -0.008421   -0.008421    0.050002
siesta:     33    0.009169   -0.001821   -0.005170
siesta:     34   -0.000241   -0.006501    0.021037
siesta:     35   -0.001821    0.009169   -0.005170
siesta:     36   -0.001104   -0.001104    0.035450
siesta:     37   -0.002116   -0.002116   -0.323264
siesta:     38    0.026868   -0.023861   -0.040625
siesta:     39   -0.027525    0.009671   -0.003204
siesta:     40   -0.023861    0.026868   -0.040625
siesta:     41   -0.053241   -0.053241    0.097124
siesta:     42    0.081383   -0.052143    0.094126
siesta:     43    0.009671   -0.027525   -0.003204
siesta:     44   -0.052143    0.081383    0.094126
siesta:     45    0.046428    0.046428    0.080746
siesta:     46    0.281195    0.281195    1.284138
siesta:     47   -0.016608    0.017259    1.070348
siesta:     48   -0.255929    0.217827    1.191793
siesta:     49    0.017259   -0.016608    1.070348
siesta:     50    0.002517    0.002517    1.075155
siesta:     51   -0.017002   -0.001252    1.049204
siesta:     52    0.217827   -0.255929    1.191793
siesta:     53   -0.001252   -0.017002    1.049204
siesta:     54   -0.163704   -0.163704    1.274780
siesta:     55    0.367894    0.367894    0.342016
siesta:     56   -0.924580   -0.924580   -0.053280
siesta:     57    0.925104    0.925104    0.031397
siesta:     58   -0.400226   -0.400226   -0.363643
siesta:     59   -0.255315   -0.255315   -1.274584
siesta:     60    0.225459   -0.172689   -1.190942
siesta:     61    0.017218   -0.016126   -1.091751
siesta:     62   -0.172689    0.225459   -1.190942
siesta:     63    0.133364    0.133364   -1.296515
siesta:     64   -0.014155    0.016918   -1.066461
siesta:     65   -0.016126    0.017218   -1.091751
siesta:     66    0.016918   -0.014155   -1.066461
siesta:     67    0.007000    0.007000   -1.104530
siesta:     68    0.018499    0.018499    0.300078
siesta:     69    0.017203    0.012324    0.034509
siesta:     70   -0.025248    0.043348    0.053290
siesta:     71    0.012324    0.017203    0.034509
siesta:     72   -0.064924   -0.064924   -0.070261
siesta:     73    0.055907   -0.077872   -0.079153
siesta:     74    0.043348   -0.025248    0.053290
siesta:     75   -0.077872    0.055907   -0.079153
siesta:     76    0.040919    0.040919   -0.060825
siesta:     77   -0.007696   -0.007696   -0.031219
siesta:     78    0.004848   -0.000102   -0.019335
siesta:     79    0.002732    0.001382    0.011557
siesta:     80   -0.000102    0.004848   -0.019335
siesta:     81   -0.000188   -0.000188   -0.032995
siesta:     82    0.001579   -0.011966    0.006615
siesta:     83    0.001382    0.002732    0.011557
siesta:     84   -0.011966    0.001579    0.006615
siesta:     85    0.008731    0.008731   -0.052209
siesta:     86    0.011271    0.011271    0.067562
siesta:     87   -0.000832   -0.004232    0.091791
siesta:     88   -0.012163    0.000413    0.080404
siesta:     89   -0.004232   -0.000832    0.091791
siesta:     90   -0.003556   -0.003556    0.095659
siesta:     91    0.008003    0.004211    0.091076
siesta:     92    0.000413   -0.012163    0.080404
siesta:     93    0.004211    0.008003    0.091076
siesta:     94   -0.004164   -0.004164    0.103452
siesta:     95   -0.001779   -0.001779   -0.032423
siesta:     96   -0.002938    0.003055   -0.036651
siesta:     97    0.004478    0.006230   -0.048980
siesta:     98    0.003055   -0.002938   -0.036651
siesta:     99   -0.006176   -0.006176   -0.047466
siesta:    100    0.003304   -0.011374   -0.057489
siesta:    101    0.006230    0.004478   -0.048980
siesta:    102   -0.011374    0.003304   -0.057489
siesta:    103    0.005241    0.005241   -0.035799
siesta:    104    0.006070    0.006070    0.021558
siesta:    105    0.000721   -0.001483    0.029894
siesta:    106   -0.006231    0.000670    0.030336
siesta:    107   -0.001483    0.000721    0.029894
siesta:    108   -0.010824   -0.010824    0.008559
siesta:    109    0.011713    0.000675    0.023745
siesta:    110    0.000670   -0.006231    0.030336
siesta:    111    0.000675    0.011713    0.023745
siesta:    112   -0.000631   -0.000631    0.005220
siesta: ----------------------------------------
siesta:    Tot   -0.005843   -0.005843    0.216471

siesta: Stress tensor (static) (eV/Ang**3):
siesta:    -0.086116    0.000701    0.000410
siesta:     0.000701   -0.086116    0.000410
siesta:     0.000362    0.000362   -0.086350

siesta: Cell volume =       2441.783730 Ang**3

siesta: Pressure (static):
siesta:                Solid            Molecule  Units
siesta:           0.00093876          0.00109203  Ry/Bohr**3
siesta:           0.08619410          0.10026679  eV/Ang**3
siesta:         138.09967126        160.64684602  kBar
(Free)E+ p_basis*V_orbitals  =     -160450.472434
(Free)Eharris+ p_basis*V_orbitals  =     -160450.473041

dhscf: Vacuum level (max, mean) =    2.259368    2.127325 eV
>> End of run:   3-OCT-2015   4:30:32
