
                           ***********************       
                           *  WELCOME TO SIESTA  *       
                           ***********************       

reinit: Reading from standard input
reinit: Dumped input in INPUT_TMP.32088
************************** Dump of input data file ****************************
SolutionMethod        Transiesta
SystemName  Au 100 with gold chain
SystemLabel au_100
==================================================
==================================================
# SPECIES AND BASIS
# Number of species
NumberOfSpecies 1
%block ChemicalSpeciesLabel
  1  79 Au
%endblock ChemicalSpeciesLabel
PAO.BasisSize    SZP
PAO.EnergyShift  0.005 Ry
XC.functional   GGA
XC.authors      PBE
==================================================
==================================================
# K-points
%block kgrid_Monkhorst_Pack
 2    0    0    0.0
 0    2    0    0.0
 0    0    2    0.0
%endblock kgrid_Monkhorst_Pack
==================================================
==================================================
# Structure
NumberOfAtoms 112
LatticeConstant 1.0 Ang
%block LatticeVectors
     8.651160000      0.000000000      0.000000000
     0.000000000      8.651160000      0.000000000
     0.000000000      0.000000000     32.625600000
%endblock LatticeVectors
AtomicCoordinatesFormat  Ang
%block AtomicCoordinatesAndAtomicSpecies
     0.000000000      0.000000000      0.000000000 1 # 1. layer
     2.883720000      0.000000000      0.000000000 1
     5.767440000      0.000000000      0.000000000 1
     0.000000000      2.883720000      0.000000000 1
     2.883720000      2.883720000      0.000000000 1
     5.767440000      2.883720000      0.000000000 1
     0.000000000      5.767440000      0.000000000 1
     2.883720000      5.767440000      0.000000000 1
     5.767440000      5.767440000      0.000000000 1
     1.441860000      1.441860000      2.039100000 1 # 2. layer
     4.325580000      1.441860000      2.039100000 1
     7.209300000      1.441860000      2.039100000 1
     1.441860000      4.325580000      2.039100000 1
     4.325580000      4.325580000      2.039100000 1
     7.209300000      4.325580000      2.039100000 1
     1.441860000      7.209300000      2.039100000 1
     4.325580000      7.209300000      2.039100000 1
     7.209300000      7.209300000      2.039100000 1
     0.000000000      0.000000000      4.078200000 1 # 3. layer
     2.883720000      0.000000000      4.078200000 1
     5.767440000      0.000000000      4.078200000 1
     0.000000000      2.883720000      4.078200000 1
     2.883720000      2.883720000      4.078200000 1
     5.767440000      2.883720000      4.078200000 1
     0.000000000      5.767440000      4.078200000 1
     2.883720000      5.767440000      4.078200000 1
     5.767440000      5.767440000      4.078200000 1
     1.441860000      1.441860000      6.117300000 1 # 4. layer
     4.325580000      1.441860000      6.117300000 1
     7.209300000      1.441860000      6.117300000 1
     1.441860000      4.325580000      6.117300000 1
     4.325580000      4.325580000      6.117300000 1
     7.209300000      4.325580000      6.117300000 1
     1.441860000      7.209300000      6.117300000 1
     4.325580000      7.209300000      6.117300000 1
     7.209300000      7.209300000      6.117300000 1
     0.000000000      0.000000000      8.156400000 1 # 5. layer
     2.883720000      0.000000000      8.156400000 1
     5.767440000      0.000000000      8.156400000 1
     0.000000000      2.883720000      8.156400000 1
     2.883720000      2.883720000      8.156400000 1
     5.767440000      2.883720000      8.156400000 1
     0.000000000      5.767440000      8.156400000 1
     2.883720000      5.767440000      8.156400000 1
     5.767440000      5.767440000      8.156400000 1
     1.441860000      1.441860000     10.195500000 1 # 6. layer
     4.325580000      1.441860000     10.195500000 1
     7.209300000      1.441860000     10.195500000 1
     1.441860000      4.325580000     10.195500000 1
     4.325580000      4.325580000     10.195500000 1
     7.209300000      4.325580000     10.195500000 1
     1.441860000      7.209300000     10.195500000 1
     4.325580000      7.209300000     10.195500000 1
     7.209300000      7.209300000     10.195500000 1
     0.000000000      0.000000000     12.234600000 1 # 7. layer
     1.441860000      1.441860000     14.273700000 1 # 8. layer
     0.000000000      0.000000000     16.312800000 1 # 9. layer
     1.441860000      1.441860000     18.351900000 1 # 10. layer
     0.000000000      0.000000000     20.391000000 1 # 11. layer
     2.883720000      0.000000000     20.391000000 1
     5.767440000      0.000000000     20.391000000 1
     0.000000000      2.883720000     20.391000000 1
     2.883720000      2.883720000     20.391000000 1
     5.767440000      2.883720000     20.391000000 1
     0.000000000      5.767440000     20.391000000 1
     2.883720000      5.767440000     20.391000000 1
     5.767440000      5.767440000     20.391000000 1
     1.441860000      1.441860000     22.430100000 1 # 12. layer
     4.325580000      1.441860000     22.430100000 1
     7.209300000      1.441860000     22.430100000 1
     1.441860000      4.325580000     22.430100000 1
     4.325580000      4.325580000     22.430100000 1
     7.209300000      4.325580000     22.430100000 1
     1.441860000      7.209300000     22.430100000 1
     4.325580000      7.209300000     22.430100000 1
     7.209300000      7.209300000     22.430100000 1
     0.000000000      0.000000000     24.469200000 1 # 13. layer
     2.883720000      0.000000000     24.469200000 1
     5.767440000      0.000000000     24.469200000 1
     0.000000000      2.883720000     24.469200000 1
     2.883720000      2.883720000     24.469200000 1
     5.767440000      2.883720000     24.469200000 1
     0.000000000      5.767440000     24.469200000 1
     2.883720000      5.767440000     24.469200000 1
     5.767440000      5.767440000     24.469200000 1
     1.441860000      1.441860000     26.508300000 1 # 14. layer
     4.325580000      1.441860000     26.508300000 1
     7.209300000      1.441860000     26.508300000 1
     1.441860000      4.325580000     26.508300000 1
     4.325580000      4.325580000     26.508300000 1
     7.209300000      4.325580000     26.508300000 1
     1.441860000      7.209300000     26.508300000 1
     4.325580000      7.209300000     26.508300000 1
     7.209300000      7.209300000     26.508300000 1
     0.000000000      0.000000000     28.547400000 1 # 15. layer
     2.883720000      0.000000000     28.547400000 1
     5.767440000      0.000000000     28.547400000 1
     0.000000000      2.883720000     28.547400000 1
     2.883720000      2.883720000     28.547400000 1
     5.767440000      2.883720000     28.547400000 1
     0.000000000      5.767440000     28.547400000 1
     2.883720000      5.767440000     28.547400000 1
     5.767440000      5.767440000     28.547400000 1
     1.441860000      1.441860000     30.586500000 1 # 16. layer
     4.325580000      1.441860000     30.586500000 1
     7.209300000      1.441860000     30.586500000 1
     1.441860000      4.325580000     30.586500000 1
     4.325580000      4.325580000     30.586500000 1
     7.209300000      4.325580000     30.586500000 1
     1.441860000      7.209300000     30.586500000 1
     4.325580000      7.209300000     30.586500000 1
     7.209300000      7.209300000     30.586500000 1
%endblock AtomicCoordinatesAndAtomicSpecies
==================================================
==================================================
# SCF variables
DM.MixSCF1   T
MaxSCFIterations      300           # Maximum number of SCF iter
DM.MixingWeight       0.05          # New DM amount for next SCF cycle
DM.Tolerance          1.d-4         # Tolerance in maximum difference
DM.UseSaveDM          true          # to use continuation files
DM.NumberPulay        5
TS.MixH               yes
==================================================
==================================================
# MD variables
MD.FinalTimeStep 1
MD.TypeOfRun CG
MD.NumCGsteps     000
MD.UseSaveXV      .true.
==================================================
==================================================
# Output variables
WriteMullikenPop                1
WriteBands                      .false.
SaveRho                         .false.
SaveDeltaRho                    .false.
SaveHS                          .false.
SaveElectrostaticPotential      True
SaveTotalPotential              no
WriteCoorXmol                   .true.
WriteMDXmol                     .true.
WriteMDhistory                  .false.
WriteEigenvalues                yes
==================================================
==================================================
TS.Voltage 0.25 eV
%block TS.ChemPots
  Left
  Right
%endblock TS.ChemPots
%block TS.ChemPot.Left
  mu V/2
  contour.eq
    begin
      c-Left
      t-Left
    end
%endblock TS.ChemPot.Left
%block TS.ChemPot.Right
  mu -V/2
  contour.eq
    begin
      c-Right
      t-Right
    end
%endblock TS.ChemPot.Right
TS.Elecs.Bulk true
TS.Elecs.DM.Update none
TS.Elecs.GF.ReUse false
%block TS.Elecs
  Left
  Right
%endblock TS.Elecs
%block TS.Elec.Left
  TSHS ./elec_au_100.TSHS
  chem-pot Left
  semi-inf-dir -a3
  elec-pos begin 1
  used-atoms 4
  bloch-a1 3
  bloch-a2 3
%endblock TS.Elec.Left
%block TS.Elec.Right
  TSHS ./elec_au_100.TSHS
  chem-pot Right
  semi-inf-dir +a3
  elec-pos end -1
  used-atoms 4
  bloch-a1 3
  bloch-a2 3
%endblock TS.Elec.Right
TS.Contours.Eq.Pole 2.5 eV
%block TS.Contour.c-Left
  part circle
   from   -40.00000 eV + V/2 to -10. kT + V/2
    points 30
     method g-legendre
%endblock TS.Contour.c-Left
%block TS.Contour.t-Left
  part tail
   from prev to inf
    points 10
     method g-fermi
%endblock TS.Contour.t-Left
%block TS.Contour.c-Right
  part circle
   from   -40.00000 eV - V/2 to -10. kT - V/2
    points 30
     method g-legendre
%endblock TS.Contour.c-Right
%block TS.Contour.t-Right
  part tail
   from prev to inf
    points 10
     method g-fermi
%endblock TS.Contour.t-Right
TS.Contours.nEq.Eta    0.0001 eV
%block TS.Contours.nEq
  neq
%endblock TS.Contours.nEq
%block TS.Contour.nEq.neq
  part line
   from -|V|/2 - 5 kT to |V|/2 + 5 kT
    delta    0.01 eV
     method mid-rule
%endblock TS.Contour.nEq.neq
************************** End of input data file *****************************

reinit: -----------------------------------------------------------------------
reinit: System Name: Au 100 with gold chain
reinit: -----------------------------------------------------------------------
reinit: System Label: au_100
reinit: -----------------------------------------------------------------------
Siesta Version: siesta-4.1--731
Architecture  : x86_64-linux-n-62-18-14
Compiler flags: mpifort -m64 -fPIC -O3 -march=native -ftree-vectorize -fexpensive-optimizatioons -funroll-loops -fprefetch-loop-arrays -fno-second-underscore  -flto -fuse-linker-plugin
PP flags      : -I/zdata/groups/common/nicpa/2016-oct/generic/build-tools/1.0/include -I/zdatta/groups/common/nicpa/2016-oct/generic/gmp/6.1.0/include -I/zdata/groups/common/nicpa/2016-oct/generic/mpfr/3.1.4/include -I/zdata/groups/common/nicpa/2016-oct/generic/mpc/1.0.3/include -I/zdata/groups/common/nicpa/2016-oct/generic/isl/0.16.1/include -I/zdata/groups/common/nicpa/2016-oct/generic/gcc/6.2.0/include -I/zdata/groups/common/nicpa/2016-oct/generic/numactl/2.0.11/include -I/zdata/groups/common/nicpa/2016-oct/XeonE5-2665/zlib/1.2.8/gnu-6.2.0/include -I/zdata/groups/common/nicpa/2016-oct/XeonE5-2665/libxml2/2.9.4/gnu-6.2.0/include -I/zdata/groups/common/nicpa/2016-oct/XeonE5-2665/hwloc/1.11.4/gnu-6.2.0/include -I/zdata/groups/common/nicpa/2016-oct/XeonE5-2665/openmpi/2.0.1/gnu-6.2.0/include -I/zdata/groups/common/nicpa/2016-oct/XeonE5-2665/hdf5/1.8.17/gnu-6.2.0/include -I/zdata/groups/common/nicpa/2016-oct/XeonE5-2665/pnetcdf/1.7.0/gnu-6.2.0/include -I/zdata/groups/common/nicpa/2016-oct/XeonE5-2665/netcdf/4.4.1/gnu-6.2.0/include -I/zdata/groups/common/nicpa/2016-oct/XeonE5-2665/flook/0.7.0/gnu-6.2.0/include -I/zdata/groups/common/nicpa/2016-oct/XeonE5-2665/parmetis/4.0.3/gnu-6.2.0/include -I/zdata/groups/common/nicpa/2016-oct/XeonE5-2665/scalapack/204/gnu-6.2.0/include -I/zdata/groups/common/nicpa/2016-oct/XeonE5-2665/openblas/0.2.19/gnu-6.2.0/include -I/zdata/groups/common/nicpa/2016-oct/XeonE5-2665/mumps/5.0.2/gnu-6.2.0/include -I/zdata/groups/common/nicpa/2016-oct/XeonE5-2665/fftw/3.3.5/gnu-6.2.0/include -DMPI -DFC_HAVE_FLUSH -DFC_HAVE_ABORT -DCDF -DCDF4 -DSIESTA__METIS -DSIESTA__MUMPS -DTS_NOCHECKS -DNCDF -DNCDF_4 -DNCDF_PARALLEL -DSIESTA__FLOOK  -DTRANSIESTA
Libraries     : -lnetcdff -lnetcdf -lpnetcdf -lhdf5_hl -lhdf5 -lz  -lzmumps -lmumps_common -llpord -lparmetis -lmetis -lscalapack -lopenblas  -lmetis -flto -fuse-linker-plugin  -L/zdata/groups/common/nicpa/2016-oct/XeonE5-2665/flook/0.7.0/gnu-6.2.0/lib -Wl,-rpath=/zdata/groups/common/nicpa/2016-oct/XeonE5-2665/flook/0.7.0/gnu-6.2.0/lib -lflookall -ldl
PARALLEL version
TRANSIESTA support
NetCDF support
NetCDF-4 support
NetCDF-4 MPI-IO support
METIS ordering support

* Running on 8 nodes in parallel
>> Start of run:   2-JUL-2017  22:28:46

initatom: Reading input for the pseudopotentials and atomic orbitals ----------
Species number:   1 Atomic number:   79 Label: Au

Ground state valence configuration:   6s01  5d10
Reading pseudopotential information in formatted form from Au.psf

Pseudopotential generated from a relativistic atomic calculation
There are spin-orbit pseudopotentials available
Spin-orbit interaction is not included in this calculation

Valence configuration for pseudopotential generation:
6s( 1.00) rc: 2.29
6p( 0.00) rc: 3.14
5d(10.00) rc: 1.20
5f( 0.00) rc: 3.14
For Au, standard SIESTA heuristics set lmxkb to 3
 (one more than the basis l, including polarization orbitals).
Use PS.lmax or PS.KBprojectors blocks to override.

<basis_specs>
===============================================================================
Au                   Z=  79    Mass=  196.97        Charge= 0.17977+309
Lmxo=2 Lmxkb= 3    BasisType=split      Semic=F
L=0  Nsemic=0  Cnfigmx=6
          n=1  nzeta=1  polorb=1
            splnorm:   0.15000    
               vcte:    0.0000    
               rinn:    0.0000    
               qcoe:    0.0000    
               qyuk:    0.0000    
               qwid:   0.10000E-01
                rcs:    0.0000    
            lambdas:    1.0000    
L=1  Nsemic=0  Cnfigmx=6
L=2  Nsemic=0  Cnfigmx=5
          n=1  nzeta=1  polorb=0
            splnorm:   0.15000    
               vcte:    0.0000    
               rinn:    0.0000    
               qcoe:    0.0000    
               qyuk:    0.0000    
               qwid:   0.10000E-01
                rcs:    0.0000    
            lambdas:    1.0000    
-------------------------------------------------------------------------------
L=0  Nkbl=1  erefs: 0.17977+309
L=1  Nkbl=1  erefs: 0.17977+309
L=2  Nkbl=1  erefs: 0.17977+309
L=3  Nkbl=1  erefs: 0.17977+309
===============================================================================
</basis_specs>

atom: Called for Au                    (Z =  79)

read_vps: Pseudopotential generation method:
read_vps: ATM3      Troullier-Martins                       
Total valence charge:   11.00000

read_vps: Pseudopotential includes a core correction:
read_vps: Pseudo-core for xc-correction

xc_check: Exchange-correlation functional:
xc_check: GGA Perdew, Burke & Ernzerhof 1996
V l=0 = -2*Zval/r beyond r=  2.9833
V l=1 = -2*Zval/r beyond r=  3.1363
V l=2 = -2*Zval/r beyond r=  2.9833
V l=3 = -2*Zval/r beyond r=  3.1363
All V_l potentials equal beyond r=  3.0973
This should be close to max(r_c) in ps generation
All pots = -2*Zval/r beyond r=  3.1363

VLOCAL1: 99.0% of the norm of Vloc inside      4.525 Ry
VLOCAL1: 99.9% of the norm of Vloc inside     10.312 Ry
atom: Maximum radius for 4*pi*r*r*local-pseudopot. charge    3.73611
atom: Maximum radius for r*vlocal+2*Zval:    3.29710
GHOST: No ghost state for L =  0
GHOST: No ghost state for L =  1
GHOST: No ghost state for L =  2
GHOST: No ghost state for L =  3

KBgen: Kleinman-Bylander projectors: 
   l= 0   rc=  3.423088   el= -0.421435   Ekb=  5.114239   kbcos=  0.182513
   l= 1   rc=  3.553892   el= -0.058080   Ekb=  1.612319   kbcos=  0.221966
   l= 2   rc=  3.256140   el= -0.508574   Ekb= -6.472599   kbcos= -0.707183
   l= 3   rc=  3.643860   el=  0.003083   Ekb= -1.026026   kbcos= -0.026089

KBgen: Total number of  Kleinman-Bylander projectors:   16
atom: -------------------------------------------------------------------------

atom: SANKEY-TYPE ORBITALS:

SPLIT: Orbitals with angular momentum L= 0

SPLIT: Basis orbitals for state 6s

SPLIT: PAO cut-off radius determined from an
SPLIT: energy shift=  0.005000 Ry

   izeta = 1
                 lambda =    1.000000
                     rc =    7.246712
                 energy =   -0.416422
                kinetic =    0.363232
    potential(screened) =   -0.779654
       potential(ionic) =   -8.332754

SPLIT: Orbitals with angular momentum L= 2

SPLIT: Basis orbitals for state 5d

SPLIT: PAO cut-off radius determined from an
SPLIT: energy shift=  0.005000 Ry

   izeta = 1
                 lambda =    1.000000
                     rc =    5.106662
                 energy =   -0.503595
                kinetic =    4.974612
    potential(screened) =   -5.478207
       potential(ionic) =  -15.919605

POLgen: Perturbative polarization orbital with L=  1

POLgen: Polarization orbital for state 6s

   izeta = 1
                     rc =    7.246712
                 energy =   -0.086468
                kinetic =    0.638528
    potential(screened) =   -0.724996
       potential(ionic) =   -7.799440
atom: Total number of Sankey-type orbitals:  9

atm_pop: Valence configuration (for local Pseudopot. screening):
 6s( 1.00)                                                            
 6p( 0.00)                                                            
 5d(10.00)                                                            
Vna: chval, zval:   11.00000  11.00000

Vna:  Cut-off radius for the neutral-atom potential:   7.246712
comcore: Pseudo-core radius Rcore=  4.027091

atom: _________________________________________________________________________

prinput: Basis input ----------------------------------------------------------

PAO.BasisType split     

%block ChemicalSpeciesLabel
    1   79 Au                      # Species index, atomic number, species label
%endblock ChemicalSpeciesLabel

%block PAO.Basis                 # Define Basis set
Au                    2                    # Species label, number of l-shells
 n=6   0   1 P   1                   # n, l, Nzeta, Polarization, NzetaPol
   7.247   
   1.000   
 n=5   2   1                         # n, l, Nzeta 
   5.107   
   1.000   
%endblock PAO.Basis

prinput: ----------------------------------------------------------------------

Dumping basis to NetCDF file Au.ion.nc
coor:   Atomic-coordinates input format  =     Cartesian coordinates
coor:                                          (in Angstroms)

siesta: WARNING: XV file not found

siesta: Atomic coordinates (Bohr) and species
siesta:      0.00000   0.00000   0.00000  1        1
siesta:      5.44944   0.00000   0.00000  1        2
siesta:     10.89889   0.00000   0.00000  1        3
siesta:      0.00000   5.44944   0.00000  1        4
siesta:      5.44944   5.44944   0.00000  1        5
siesta:     10.89889   5.44944   0.00000  1        6
siesta:      0.00000  10.89889   0.00000  1        7
siesta:      5.44944  10.89889   0.00000  1        8
siesta:     10.89889  10.89889   0.00000  1        9
siesta:      2.72472   2.72472   3.85334  1       10
siesta:      8.17416   2.72472   3.85334  1       11
siesta:     13.62361   2.72472   3.85334  1       12
siesta:      2.72472   8.17416   3.85334  1       13
siesta:      8.17416   8.17416   3.85334  1       14
siesta:     13.62361   8.17416   3.85334  1       15
siesta:      2.72472  13.62361   3.85334  1       16
siesta:      8.17416  13.62361   3.85334  1       17
siesta:     13.62361  13.62361   3.85334  1       18
siesta:      0.00000   0.00000   7.70668  1       19
siesta:      5.44944   0.00000   7.70668  1       20
siesta:     10.89889   0.00000   7.70668  1       21
siesta:      0.00000   5.44944   7.70668  1       22
siesta:      5.44944   5.44944   7.70668  1       23
siesta:     10.89889   5.44944   7.70668  1       24
siesta:      0.00000  10.89889   7.70668  1       25
siesta:      5.44944  10.89889   7.70668  1       26
siesta:     10.89889  10.89889   7.70668  1       27
siesta:      2.72472   2.72472  11.56003  1       28
siesta:      8.17416   2.72472  11.56003  1       29
siesta:     13.62361   2.72472  11.56003  1       30
siesta:      2.72472   8.17416  11.56003  1       31
siesta:      8.17416   8.17416  11.56003  1       32
siesta:     13.62361   8.17416  11.56003  1       33
siesta:      2.72472  13.62361  11.56003  1       34
siesta:      8.17416  13.62361  11.56003  1       35
siesta:     13.62361  13.62361  11.56003  1       36
siesta:      0.00000   0.00000  15.41337  1       37
siesta:      5.44944   0.00000  15.41337  1       38
siesta:     10.89889   0.00000  15.41337  1       39
siesta:      0.00000   5.44944  15.41337  1       40
siesta:      5.44944   5.44944  15.41337  1       41
siesta:     10.89889   5.44944  15.41337  1       42
siesta:      0.00000  10.89889  15.41337  1       43
siesta:      5.44944  10.89889  15.41337  1       44
siesta:     10.89889  10.89889  15.41337  1       45
siesta:      2.72472   2.72472  19.26671  1       46
siesta:      8.17416   2.72472  19.26671  1       47
siesta:     13.62361   2.72472  19.26671  1       48
siesta:      2.72472   8.17416  19.26671  1       49
siesta:      8.17416   8.17416  19.26671  1       50
siesta:     13.62361   8.17416  19.26671  1       51
siesta:      2.72472  13.62361  19.26671  1       52
siesta:      8.17416  13.62361  19.26671  1       53
siesta:     13.62361  13.62361  19.26671  1       54
siesta:      0.00000   0.00000  23.12005  1       55
siesta:      2.72472   2.72472  26.97339  1       56
siesta:      0.00000   0.00000  30.82674  1       57
siesta:      2.72472   2.72472  34.68008  1       58
siesta:      0.00000   0.00000  38.53342  1       59
siesta:      5.44944   0.00000  38.53342  1       60
siesta:     10.89889   0.00000  38.53342  1       61
siesta:      0.00000   5.44944  38.53342  1       62
siesta:      5.44944   5.44944  38.53342  1       63
siesta:     10.89889   5.44944  38.53342  1       64
siesta:      0.00000  10.89889  38.53342  1       65
siesta:      5.44944  10.89889  38.53342  1       66
siesta:     10.89889  10.89889  38.53342  1       67
siesta:      2.72472   2.72472  42.38676  1       68
siesta:      8.17416   2.72472  42.38676  1       69
siesta:     13.62361   2.72472  42.38676  1       70
siesta:      2.72472   8.17416  42.38676  1       71
siesta:      8.17416   8.17416  42.38676  1       72
siesta:     13.62361   8.17416  42.38676  1       73
siesta:      2.72472  13.62361  42.38676  1       74
siesta:      8.17416  13.62361  42.38676  1       75
siesta:     13.62361  13.62361  42.38676  1       76
siesta:      0.00000   0.00000  46.24010  1       77
siesta:      5.44944   0.00000  46.24010  1       78
siesta:     10.89889   0.00000  46.24010  1       79
siesta:      0.00000   5.44944  46.24010  1       80
siesta:      5.44944   5.44944  46.24010  1       81
siesta:     10.89889   5.44944  46.24010  1       82
siesta:      0.00000  10.89889  46.24010  1       83
siesta:      5.44944  10.89889  46.24010  1       84
siesta:     10.89889  10.89889  46.24010  1       85
siesta:      2.72472   2.72472  50.09345  1       86
siesta:      8.17416   2.72472  50.09345  1       87
siesta:     13.62361   2.72472  50.09345  1       88
siesta:      2.72472   8.17416  50.09345  1       89
siesta:      8.17416   8.17416  50.09345  1       90
siesta:     13.62361   8.17416  50.09345  1       91
siesta:      2.72472  13.62361  50.09345  1       92
siesta:      8.17416  13.62361  50.09345  1       93
siesta:     13.62361  13.62361  50.09345  1       94
siesta:      0.00000   0.00000  53.94679  1       95
siesta:      5.44944   0.00000  53.94679  1       96
siesta:     10.89889   0.00000  53.94679  1       97
siesta:      0.00000   5.44944  53.94679  1       98
siesta:      5.44944   5.44944  53.94679  1       99
siesta:     10.89889   5.44944  53.94679  1      100
siesta:      0.00000  10.89889  53.94679  1      101
siesta:      5.44944  10.89889  53.94679  1      102
siesta:     10.89889  10.89889  53.94679  1      103
siesta:      2.72472   2.72472  57.80013  1      104
siesta:      8.17416   2.72472  57.80013  1      105
siesta:     13.62361   2.72472  57.80013  1      106
siesta:      2.72472   8.17416  57.80013  1      107
siesta:      8.17416   8.17416  57.80013  1      108
siesta:     13.62361   8.17416  57.80013  1      109
siesta:      2.72472  13.62361  57.80013  1      110
siesta:      8.17416  13.62361  57.80013  1      111
siesta:     13.62361  13.62361  57.80013  1      112

siesta: System type = bulk      

initatomlists: Number of atoms, orbitals, and projectors:    112  1008  1792

coxmol: Writing XMOL coordinates into file au_100.xyz                                                          

siesta: ******************** Simulation parameters ****************************
siesta:
siesta: The following are some of the parameters of the simulation.
siesta: A complete list of the parameters used, including default values,
siesta: can be found in file out.fdf
siesta:
redata: Spin configuration                          = none
redata: Number of spin components                   = 1
redata: Time-Reversal Symmetry                      = T
redata: Spin-spiral                                 = F
redata: Long output                                 =   F
redata: Number of Atomic Species                    =        1
redata: Charge density info will appear in .RHO file
redata: Write Mulliken Pop.                         = Atomic and Orbital charges
redata: Mesh Cutoff                                 =   100.0000 Ry
redata: Net charge of the system                    =     0.0000 |e|
redata: Min. number of SCF Iter                     =        0
redata: Max. number of SCF Iter                     =      300
redata: SCF mix quantity                            = Hamiltonian
redata: Mix DM or H after convergence               =   F
redata: Recompute H after scf cycle                 =   F
redata: Mix DM in first SCF step                    =   T
redata: Write Pulay info on disk                    =   F
redata: New DM Mixing Weight                        =     0.0500
redata: New DM Occupancy tolerance                  = 0.000000000001
redata: No kicks to SCF
redata: DM Mixing Weight for Kicks                  =     0.5000
redata: Require Harris convergence for SCF          =   F
redata: Harris energy tolerance for SCF             =     0.000100 eV
redata: Require DM convergence for SCF              =   T
redata: DM tolerance for SCF                        =     0.0001
redata: Require EDM convergence for SCF             =   F
redata: EDM tolerance for SCF                       =     0.001000 eV
redata: Require H convergence for SCF               =   T
redata: Hamiltonian tolerance for SCF               =     0.001000 eV
redata: Require (free) Energy convergence for SCF   =   F
redata: (free) Energy tolerance for SCF             =     0.000100 eV
redata: Using Saved Data (generic)                  =   F
redata: Use continuation files for DM               =   T
redata: Neglect nonoverlap interactions             =   F
redata: Method of Calculation                       = Transiesta
redata: Fix the spin of the system                  =   F
redata: Dynamics option                             = Single-point calculation
mix.SCF: Pulay mixing                            = Pulay
mix.SCF:    Variant                              = stable
mix.SCF:    History steps                        = 5
mix.SCF:    Linear mixing weight                 =     0.050000
mix.SCF:    Mixing weight                        =     0.050000
mix.SCF:    SVD condition                        = 0.1000E-07
redata: Save all siesta data in one NC              =   F
redata: ***********************************************************************

%block SCF.Mixers
  Pulay
%endblock SCF.Mixers

%block SCF.Mixer.Pulay
  # Mixing method
  method pulay
  variant stable

  # Mixing options
  weight 0.0500
  weight.linear 0.0500
  history 5
%endblock SCF.Mixer.Pulay

DM_history_depth set to one: no extrapolation allowed by default for geometry relaxation
Size of DM history Fstack: 1
Total number of electrons:  1232.000000
Total ionic charge:  1232.000000

* ProcessorY, Blocksize:    2  24


* Orbital distribution balance (max,min):   144   120

k-point displ. along   1 input, could be:     0.00    0.50
k-point displ. along   2 input, could be:     0.00    0.50
k-point displ. along   3 input, could be:     0.00    0.50
 Kpoints in:            8 . Kpoints trimmed:            8

siesta: k-grid: Number of k-points =     8
siesta: k-grid: Cutoff (effective) =     8.651 Ang
siesta: k-grid: Supercell and displacements
siesta: k-grid:    2   0   0      0.000
siesta: k-grid:    0   2   0      0.000
siesta: k-grid:    0   0   2      0.000

superc: Internal auxiliary supercell:     3 x     3 x     3  =      27
superc: Number of atoms, orbitals, and projectors:   3024  27216  48384

k-point displ. along   1 input, could be:     0.00    0.50
k-point displ. along   2 input, could be:     0.00    0.50
 Kpoints in:            4 . Kpoints trimmed:            4

transiesta: k-grid: Number of Green function k-points =     4
transiesta: k-grid: Supercell and displacements
transiesta: k-grid:    2   0   0      0.000
transiesta: k-grid:    0   2   0      0.000
transiesta: k-grid:    0   0   1      0.000
Electrode: Left has very few k-points in the semi-infinite direction, at least 20 is recommended.
Electrode: Right has very few k-points in the semi-infinite direction, at least 20 is recommended.

ts: **************************************************************
ts: Voltage                                         =    0.2500 Volts
ts: Save H and S matrices                           =    T
ts: Electronic temperature                          =  299.986869 K
ts: Transport along unit-cell vector                =    A3
ts: Transport along Cartesian vector                =    Z
ts: Fixing Hartree potential at electrode-plane     =    Right
ts: Fix Hartree potential fraction                  =    1.0000
ts: Solution method                                 =    BTD
ts: BTD pivoting method                             =    atom+Left
ts: BTD creation algorithm                          =    speed
ts: BTD spectral function algorithm                 =    propagation
ts: SCF.TS DM tolerance                             = 0.100E-03
ts: SCF.TS Hamiltonian tolerance                    =    0.001000 eV
ts: Initialize DM by                                =    diagon
ts: Initial DM for electrodes                       =    this
ts: Hartree potential as linear ramp
ts: Hartree potential ramp across entire cell
ts: Thermal non-equilibrium in distributions        =    F
ts: Non-equilibrium contour weight method           =    orb-orb
ts: Non-equilibrium contour weight k-method         =    Correlated k-points
ts: Will not correct charge fluctuations
ts: TS.SCF mixing options same as SCF
ts:           >> Electrodes << 
ts: >> Left
ts:   Electrode cell pivoting: E1, E2, E3           = A1, A2, A3
ts:   GF file                                       = au_100.TSGFLeft
ts:   Reuse existing GF-file                        =    F
ts:   Electrode TSHS file                           = ./elec_au_100.TSHS
ts:   # atoms used in electrode                     =    4
ts:   Electrode Bloch expansion [E1 x E2 x E3]      = 3 x 3 x 1
ts:   Position in geometry                          = 1 -- 36
ts:   Semi-infinite direction for electrode         = negative wrt. E3
ts:   Chemical shift                                =    0.125000 eV
ts:   Electronic temperature                        =  299.986869 K
ts:   Bulk values in electrode                      =    T
ts:   Pre-expansion to reduce computation           = H, S, GS
ts:   Cross-terms are not updated
ts:   Hamiltonian E-C Ef fractional shift           =    0.0000
ts:   Electrode self-energy imaginary Eta           =  0.1000E-03  eV
ts:   Electrode self-energy accuracy                =  0.1000E-13  eV
ts:   Electrode inter-layer distance (semi-inf)     =    2.0391  Ang
ts: >> Right
ts:   Electrode cell pivoting: E1, E2, E3           = A1, A2, A3
ts:   GF file                                       = au_100.TSGFRight
ts:   Reuse existing GF-file                        =    F
ts:   Electrode TSHS file                           = ./elec_au_100.TSHS
ts:   # atoms used in electrode                     =    4
ts:   Electrode Bloch expansion [E1 x E2 x E3]      = 3 x 3 x 1
ts:   Position in geometry                          = 77 -- 112
ts:   Semi-infinite direction for electrode         = positive wrt. E3
ts:   Chemical shift                                =   -0.125000 eV
ts:   Electronic temperature                        =  299.986869 K
ts:   Bulk values in electrode                      =    T
ts:   Pre-expansion to reduce computation           = H, S, GS
ts:   Cross-terms are not updated
ts:   Hamiltonian E-C Ef fractional shift           =    0.0000
ts:   Electrode self-energy imaginary Eta           =  0.1000E-03  eV
ts:   Electrode self-energy accuracy                =  0.1000E-13  eV
ts:   Electrode inter-layer distance (semi-inf)     =    2.0391  Ang
ts:  ----------------- Contour ----------------- 
ts:            >> Residual contour << 
ts: Pole chemical potential                         =    0.1250 eV
ts:    Chemical potential temperature               =  299.9869 K
ts:    Number of poles                              =   16
ts:    Top energy point                             =    2.5988 eV
ts: Pole chemical potential                         =   -0.1250 eV
ts:    Chemical potential temperature               =  299.9869 K
ts:    Number of poles                              =   16
ts:    Top energy point                             =    2.5988 eV
ts:          >> Equilibrium contour << 
ts: Contour name                                    =    TS.Contour.c-Left
ts:   circle contour E_min                          =  -39.8750 eV
ts:   circle contour E_max                          =   -0.1335 eV
ts:   circle contour points                         =   30
ts:   circle contour method                         =    Gauss-Legendre
ts: Contour name                                    =    TS.Contour.t-Left
ts:   tail contour E_min                            =   -0.1335 eV
ts:   tail contour E_max                            =     Infinity
ts:   tail contour points                           =   10
ts:   tail contour method                           =    Gauss-Fermi (0kT)
ts: Contour name                                    =    TS.Contour.c-Right
ts:   circle contour E_min                          =  -40.1250 eV
ts:   circle contour E_max                          =   -0.3835 eV
ts:   circle contour points                         =   30
ts:   circle contour method                         =    Gauss-Legendre
ts: Contour name                                    =    TS.Contour.t-Right
ts:   tail contour E_min                            =   -0.3835 eV
ts:   tail contour E_max                            =     Infinity
ts:   tail contour points                           =   10
ts:   tail contour method                           =    Gauss-Fermi (0kT)
ts:         >> non-Equilibrium contour << 
ts: Device Green function imaginary Eta             = 0.1000E-03 eV
ts: Fermi-function cut-off                          =  5.000     kT
ts: Contour name                                    =    TS.Contour.nEq.neq
ts:   line contour E_min                            =   -0.2543 eV
ts:   line contour E_max                            =    0.2543 eV
ts:   line contour points                           =   51
ts:   line contour method                           =    Mid-rule
ts: **************************************************************

************************ Begin: TS CHECKS AND WARNINGS ************************
Without loosing performance you can increase the non-equilibrium integration precision.
You can add 5 more energy points in the non-equilibrium contours, for FREE!
Electrode Left will not update cross-terms or local region.
Electrode Right will not update cross-terms or local region.
************************ End: TS CHECKS AND WARNINGS **************************

                  ****************************************
                   TRANSIESTA REPORTED IMPORTANT WARNINGS
                  ****************************************

>>> Transiesta block information for FDF-file START <<<

%block TS.ChemPots
  Left
  Right
%endblock TS.ChemPots

%block TS.ChemPot.Left
  mu  V/2
  contour.eq
   begin
    c-Left
    t-Left
   end
%endblock TS.ChemPot.Left
%block TS.ChemPot.Right
  mu  - V/2
  contour.eq
   begin
    c-Right
    t-Right
   end
%endblock TS.ChemPot.Right
%block TS.Contour.c-Left
  part circle
     from -40.00000 eV + V/2 to -10. kT + V/2
      points 30
        method g-legendre
%endblock TS.Contour.c-Left
%block TS.Contour.t-Left
  part tail
     from prev to + inf
      points 10
        method g-fermi
%endblock TS.Contour.t-Left
%block TS.Contour.c-Right
  part circle
     from -40.00000 eV - V/2 to -10. kT - V/2
      points 30
        method g-legendre
%endblock TS.Contour.c-Right
%block TS.Contour.t-Right
  part tail
     from prev to + inf
      points 10
        method g-fermi
%endblock TS.Contour.t-Right
%block TS.Contours.nEq
    neq
%endblock TS.Contours.nEq

%block TS.Contour.nEq.neq
  part line
     from - |V|/2 - 5 kT to |V|/2 + 5 kT
      delta 0.01 eV
        method mid-rule
%endblock TS.Contour.nEq.neq

>>> Transiesta block information for FDF-file END <<<


transiesta: Regions of atoms:
   ## (36): Elec.Left
     [ 1 -- 36 ]
   ## (36): Elec.Right
     [ 77 -- 112 ]
   -- (40): Device
     [ 37 -- 76 ]

  <sparsity:./elec_au_100.TSHS
    nrows_g=36 nrows=36 sparsity=39.2253 nnzs=50836, refcount: 3>
  <sparsity:(TM [--,--, 0] of: ./elec_au_100.TSHS)
    nrows_g=36 nrows=36 sparsity=23.5926 nnzs=30576, refcount: 3>
  <sparsity:(TM [--,--,-1] of: ./elec_au_100.TSHS)
    nrows_g=36 nrows=36 sparsity=7.8164 nnzs=10130, refcount: 3>
 Left principal cell is perfect!

Calculating all surface Green functions for: Left
 Fermi level shift in electrode (chemical potential) :        0.12500  eV
 Atoms available    / used atoms   :      4 /      4
 Orbitals available / used orbitals:     36 /     36
 Total self-energy calculations: 5868
 Bloch expansion k-points in A_1 direction [b_1] (w=1/9):
     0/3, 1/3, 2/3
 Bloch expansion k-points in A_2 direction [b_2] (w=1/9):
     0/3, 1/3, 2/3
 Saving surface Green functions in: au_100.TSGFLeft
 Estimated file size:   1057.192 MB
 Lopez Sancho, Lopez Sancho & Rubio recursive surface self-energy calculation...
 Lopez Sancho, Lopez Sancho & Rubio: Mean/std iterations:     7.4903 /     6.1244
 Lopez Sancho, Lopez Sancho & Rubio: Min/Max iterations :          3 /         19
Done creating 'au_100.TSGFLeft'.

  <sparsity:./elec_au_100.TSHS
    nrows_g=36 nrows=36 sparsity=39.2253 nnzs=50836, refcount: 3>
  <sparsity:(TM [--,--, 0] of: ./elec_au_100.TSHS)
    nrows_g=36 nrows=36 sparsity=23.5926 nnzs=30576, refcount: 3>
  <sparsity:(TM [--,--, 1] of: ./elec_au_100.TSHS)
    nrows_g=36 nrows=36 sparsity=7.8164 nnzs=10130, refcount: 3>
 Right principal cell is perfect!

Calculating all surface Green functions for: Right
 Fermi level shift in electrode (chemical potential) :       -0.12500  eV
 Atoms available    / used atoms   :      4 /      4
 Orbitals available / used orbitals:     36 /     36
 Total self-energy calculations: 5868
 Bloch expansion k-points in A_1 direction [b_1] (w=1/9):
     0/3, 1/3, 2/3
 Bloch expansion k-points in A_2 direction [b_2] (w=1/9):
     0/3, 1/3, 2/3
 Saving surface Green functions in: au_100.TSGFRight
 Estimated file size:   1057.192 MB
 Lopez Sancho, Lopez Sancho & Rubio recursive surface self-energy calculation...
 Lopez Sancho, Lopez Sancho & Rubio: Mean/std iterations:     7.7328 /     6.2798
 Lopez Sancho, Lopez Sancho & Rubio: Min/Max iterations :          3 /         19
Done creating 'au_100.TSGFRight'.


                     ====================================
                        Single-point calculation
                     ====================================

superc: Internal auxiliary supercell:     3 x     3 x     3  =      27
superc: Number of atoms, orbitals, and projectors:   3024  27216  48384

outcell: Unit cell vectors (Ang):
        8.651160    0.000000    0.000000
        0.000000    8.651160    0.000000
        0.000000    0.000000   32.625600

outcell: Cell vector modules (Ang)   :    8.651160    8.651160   32.625600
outcell: Cell angles (23,13,12) (deg):     90.0000     90.0000     90.0000
outcell: Cell volume (Ang**3)        :   2441.7837
<dSpData1D:S at geom step 0
  <sparsity:sparsity for geom step 0
    nrows_g=1008 nrows=144 sparsity=.1780 nnzs=180826, refcount: 7>
  <dData1D:(new from dSpData1D) n=180826, refcount: 1>
refcount: 1>
new_DM -- step:     1
Initializing Density Matrix...

Attempting to read DM, EDM from TSDE file... Failed...
Attempting to read DM from file... Failed...
DM filled with atomic data:
<dSpData2D:DM initialized from atoms
  <sparsity:sparsity for geom step 0
    nrows_g=1008 nrows=144 sparsity=.1780 nnzs=180826, refcount: 8>
  <dData2D:DM n=180826 m=1, refcount: 1>
refcount: 1>

transiesta: Initialization run using siesta


No. of atoms with KB's overlaping orbs in proc 0. Max # of overlaps:     341     267
New grid distribution:   1
           1       1:   27    1:   14    1:   25
           2       1:   27    1:   14   26:   50
           3       1:   27    1:   14   51:   75
           4       1:   27    1:   14   76:  100
           5       1:   27   15:   27    1:   25
           6       1:   27   15:   27   26:   50
           7       1:   27   15:   27   51:   75
           8       1:   27   15:   27   76:  100

InitMesh: MESH =    54 x    54 x   200 =      583200
InitMesh: (bp) =    27 x    27 x   100 =       72900
InitMesh: Mesh cutoff (required, used) =   100.000   103.859 Ry
ExtMesh (bp) on 0 =    75 x    62 x    73 =      339450
New grid distribution:   2
           1       1:   27    1:   14    1:   18
           2       1:   27    1:   13   19:   63
           3       1:   27   15:   27    1:   18
           4       1:   27    1:   14   83:  100
           5       1:   27    1:   13   64:   82
           6       1:   27   14:   27   19:   63
           7       1:   27   14:   27   64:   82
           8       1:   27   15:   27   83:  100
New grid distribution:   3
           1       1:   27    1:   14    1:   25
           2       1:   27    1:   13   52:   76
           3       1:   27   14:   27   52:   76
           4       1:   27    1:   14   77:  100
           5       1:   27    1:   13   26:   51
           6       1:   27   14:   27   26:   51
           7       1:   27   15:   27    1:   25
           8       1:   27   15:   27   77:  100
Setting up quadratic distribution...
ExtMesh (bp) on 0 =    75 x    62 x    66 =      306900
PhiOnMesh: Number of (b)points on node 0 =                 6804
PhiOnMesh: nlist on node 0 =               603963

ts: Using electrode: Right for Hartree correction
ts: Grid fraction plane  0.96875
ts: Grid point plane (Ang):       0.00000       0.00000      31.60605


ts_voltage: Bias  0.250 V
ts_voltage: Bias @bottom  0.125 V
ts_voltage: Direction vector = { 0.000, 0.000, 1.000}
ts_voltage: Ramp placed between the cell coordinates (Ang):
  {    0.000     0.000     0.000 } to {     0.000     0.000    32.626 }
ts-Vha: -0.23488E-05 eV

stepf: Fermi-Dirac step function
ts-Vha: -0.32399E+02 eV

siesta: Program's energy decomposition (eV):
siesta: Ebs     =     18303.029483
siesta: Eions   =    106428.788183
siesta: Ena     =       385.354664
siesta: Ekin    =     71439.585241
siesta: Enl     =    -46038.605114
siesta: Eso     =         0.000000
siesta: Eldau   =         0.000000
siesta: DEna    =       166.581003
siesta: DUscf   =       281.732917
siesta: DUext   =         0.000000
siesta: Exc     =    -80125.865728
siesta: eta*DQ  =         0.000000
siesta: Emadel  =         0.000000
siesta: Emeta   =         0.000000
siesta: Emolmec =         0.000000
siesta: Ekinion =         0.000000
siesta: Eharris =   -159815.175606
siesta: Etot    =   -160320.005200
siesta: FreeEng =   -160320.098686

        iscf     Eharris(eV)        E_KS(eV)     FreeEng(eV)     dDmax    Ef(eV) dHmax(eV)
   scf:    1  -159815.175606  -160320.005200  -160320.098686  0.763214 -1.956101 74.777202
timer: Routine,Calls,Time,% = IterSCF        1      21.215  56.59
ts-Vha:  0.92376E+02 eV
   scf:    2  -156826.309847  -159514.669100  -159514.789655  0.898980 -0.914245173.077191
ts-Vha:  0.11132E+02 eV
   scf:    3  -160702.857603  -160488.446704  -160488.587225  0.319844 -1.853064 21.811882
ts-Vha:  0.79737E+00 eV
   scf:    4  -160507.295583  -160508.737423  -160508.903212  0.219789 -2.178631  8.867669
ts-Vha:  0.23590E+01 eV
   scf:    5  -160504.966300  -160511.235627  -160511.361340  0.142047 -2.086386  8.358353
ts-Vha:  0.23454E+01 eV
   scf:    6  -160513.117347  -160512.506638  -160512.632191  0.013282 -2.108877  6.731447
ts-Vha:  0.19678E+01 eV
   scf:    7  -160518.190277  -160515.868393  -160516.005705  0.088803 -2.216562  5.846181
ts-Vha:  0.19836E+01 eV
   scf:    8  -160520.383155  -160518.169951  -160518.304501  0.027382 -2.306285  5.592391
ts-Vha: -0.17565E+01 eV
   scf:    9  -160528.528248  -160526.194092  -160526.328372  0.102256 -3.200525  5.186329
ts-Vha:  0.68315E+00 eV
   scf:   10  -160523.548850  -160525.846328  -160525.981751  0.044594 -2.809051  1.925139
ts-Vha: -0.10559E+00 eV
   scf:   11  -160528.517107  -160527.424336  -160527.562876  0.034521 -3.138106  0.229209
ts-Vha: -0.69204E-01 eV
   scf:   12  -160527.343151  -160527.396987  -160527.535130  0.008384 -3.096908  0.453340
ts-Vha: -0.13288E+00 eV
   scf:   13  -160527.491392  -160527.450813  -160527.589148  0.004084 -3.128668  0.197897
ts-Vha: -0.25334E-01 eV
   scf:   14  -160527.566229  -160527.517284  -160527.655842  0.005518 -3.157539  0.190357
ts-Vha: -0.72560E-01 eV
   scf:   15  -160527.529052  -160527.524703  -160527.663296  0.001973 -3.186491  0.082106
ts-Vha: -0.89698E-01 eV
   scf:   16  -160527.526160  -160527.525537  -160527.664061  0.000572 -3.193892  0.110017
ts-Vha: -0.73778E-01 eV
   scf:   17  -160527.539002  -160527.533129  -160527.671335  0.003182 -3.195477  0.036563
ts-Vha: -0.97308E-01 eV
   scf:   18  -160527.535657  -160527.534526  -160527.672613  0.001332 -3.197337  0.044921
ts-Vha: -0.82312E-01 eV
   scf:   19  -160527.536016  -160527.535407  -160527.673414  0.001336 -3.192167  0.031433
ts-Vha: -0.82815E-01 eV
   scf:   20  -160527.535534  -160527.535477  -160527.673484  0.000195 -3.192729  0.027103
ts-Vha: -0.82519E-01 eV
   scf:   21  -160527.535634  -160527.535560  -160527.673563  0.000512 -3.192674  0.023807
ts-Vha: -0.85047E-01 eV
   scf:   22  -160527.535771  -160527.535678  -160527.673681  0.000916 -3.194633  0.010905
ts-Vha: -0.87964E-01 eV
   scf:   23  -160527.535658  -160527.535672  -160527.673685  0.000168 -3.196059  0.006328
ts-Vha: -0.86593E-01 eV
   scf:   24  -160527.535694  -160527.535683  -160527.673696  0.000091 -3.196055  0.005216
ts-Vha: -0.87138E-01 eV
   scf:   25  -160527.535676  -160527.535681  -160527.673696  0.000165 -3.196687  0.004356
ts-Vha: -0.87605E-01 eV
   scf:   26  -160527.535705  -160527.535694  -160527.673707  0.000158 -3.196782  0.005964
ts-Vha: -0.86907E-01 eV
   scf:   27  -160527.535748  -160527.535724  -160527.673730  0.000210 -3.196448  0.003408
ts-Vha: -0.87152E-01 eV
   scf:   28  -160527.535734  -160527.535729  -160527.673733  0.000087 -3.196475  0.002717
ts-Vha: -0.87418E-01 eV
   scf:   29  -160527.535742  -160527.535736  -160527.673737  0.000171 -3.196569  0.001399
ts-Vha: -0.87671E-01 eV
   scf:   30  -160527.535740  -160527.535738  -160527.673738  0.000130 -3.196662  0.000605
ts-Vha: -0.87527E-01 eV
   scf:   31  -160527.535737  -160527.535738  -160527.673738  0.000007 -3.196683  0.000721

SCF Convergence by DM+H criterion
max |DM_out - DM_in|         :     0.0000074102
max |H_out - H_in|      (eV) :     0.0007210993
SCF cycle converged after 31 iterations

                     ***************************
                     *  WELCOME TO TRANSIESTA  *
                     ***************************

ts-Vha: -0.87527E-01 eV

Created the TranSIESTA local update sparsity pattern:
  <sparsity:(M of: T T T sparsity for geom step 0)
    nrows_g=1008 nrows=144 sparsity=.0252 nnzs=25633, refcount: 1>

Created the TranSIESTA H,S sparsity pattern:
  <sparsity:(M of: G ((UC of: T T T sparsity for geom step 0)))
    nrows_g=1008 nrows=1008 sparsity=.2161 nnzs=219576, refcount: 1>

Created the TranSIESTA global update sparsity pattern:
  <sparsity:G ((UC of: (M of: T T T sparsity for geom step 0)))
    nrows_g=1008 nrows=1008 sparsity=.0674 nnzs=68460, refcount: 1>

transiesta: Determining an optimal tri-matrix using: atom+Left
transiesta: Established a near-optimal partition for the tri-diagonal matrix.
BTD partitions (4): 
  [ 252, 252, 135, 369 ]
transiesta: Matrix elements in tri / full: 576072 / 1016064
transiesta: Electrode Left splitting Gamma 0 times.
transiesta: Electrode Right splitting Gamma 0 times.

transiesta: mem of electrodes (static):                     9.61MB
transiesta: mem of global update arrays (static):          10.88MB
transiesta: mem of master node sparse arrays:               1.17MB
transiesta: mem of tri-diagonal matrices:                  17.58MB
transiesta: Total memory usage:                            39.25MB

transiesta: Charge distribution, target =   1232.00000
Total charge                  [Q]  :  1232.00000
Device                        [D]  :   436.14189
Left                          [E1] :   392.14849
Left                 / device [C1] :     3.86787
Right                         [E2] :   392.14845
Right                / device [C2] :     3.86790
Other                         [O]  :     3.82540

ts-err-D: ij(  456,   456), M =  1.8288   , ew = -.81049E-3, em = 0.81155E-3. avg_m = 0.14125E-06
ts-err-E: ij(  456,  7530), M = 0.13556E-1, ew = 0.15314E-3, em = -.15354E-3. avg_m = -.34023E-07
ts-q:         D        E1        C1        E2        C2        dQ
ts-q:   436.142   392.148     3.868   392.148     3.868  2.745E-4
ts-Vha: -0.84944E-01 eV

siesta: Program's energy decomposition (eV):
siesta: Ebs     =     -9206.005989
siesta: Eions   =    106428.788183
siesta: Ena     =       385.354664
siesta: Ekin    =     73194.177871
siesta: Enl     =    -47373.457994
siesta: Eso     =         0.000000
siesta: Eldau   =         0.000000
siesta: DEna    =       105.215412
siesta: DUscf   =        42.236947
siesta: DUext   =         0.000000
siesta: Exc     =    -80451.284831
siesta: eta*DQ  =         0.000000
siesta: Emadel  =         0.000000
siesta: Emeta   =         0.000000
siesta: Emolmec =         0.000000
siesta: Ekinion =         0.000000
siesta: Eharris =   -160524.321619
siesta: Etot    =   -160526.546114
siesta: FreeEng =   -160526.546114

        iscf     Eharris(eV)        E_KS(eV)     FreeEng(eV)     dDmax    Ef(eV) dHmax(eV)
ts-scf:    1  -160524.321619  -160526.546114  -160526.546114  0.026629 -3.196683  3.212646
timer: Routine,Calls,Time,% = TS             1      44.842   6.64
ts-err-D: ij(  456,   456), M =  1.8222   , ew = -.59763E-2, em = 0.63301E-2. avg_m = 0.15465E-05
ts-err-E: ij(  456,  7530), M = 0.18465E-1, ew = 0.60140E-3, em = -.73293E-3. avg_m = -.18216E-06
ts-q:         D        E1        C1        E2        C2        dQ
ts-q:   436.137   392.148     3.868   392.148     3.868 -4.534E-3
ts-Vha:  0.11822E-01 eV
ts-scf:    2  -160512.626328  -160524.014231  -160524.014231  0.037697 -3.196683  5.986767
ts-err-D: ij(  447,   447), M =  1.8275   , ew = -.25538E-2, em = 0.25574E-2. avg_m = 0.53933E-06
ts-err-E: ij(  447,   447), M = -6.7933   , ew = 0.43519E-3, em = -.43581E-3. avg_m = -.98045E-07
ts-q:         D        E1        C1        E2        C2        dQ
ts-q:   436.140   392.148     3.868   392.148     3.868 -1.742E-3
ts-Vha: -0.68396E-01 eV
ts-scf:    3  -160527.737764  -160527.756544  -160527.756544  0.026754 -3.196683  0.134625
ts-err-D: ij(  447,   447), M =  1.8273   , ew = -.22150E-2, em = 0.22183E-2. avg_m = 0.46726E-06
ts-err-E: ij(  456,  7530), M = 0.14954E-1, ew = 0.37944E-3, em = -.38390E-3. avg_m = -.86655E-07
ts-q:         D        E1        C1        E2        C2        dQ
ts-q:   436.217   392.148     3.868   392.148     3.868  7.480E-2
ts-Vha: -0.21107E+00 eV
ts-scf:    4  -160528.300521  -160528.040052  -160528.040052  0.004743 -3.196683  0.255436
ts-err-D: ij(  447,   447), M =  1.8273   , ew = -.24004E-2, em = 0.24030E-2. avg_m = 0.50693E-06
ts-err-E: ij(  456,  7530), M = 0.15001E-1, ew = 0.40958E-3, em = -.41279E-3. avg_m = -.93234E-07
ts-q:         D        E1        C1        E2        C2        dQ
ts-q:   436.190   392.148     3.868   392.148     3.868  4.794E-2
ts-Vha: -0.16001E+00 eV
ts-scf:    5  -160527.853818  -160527.944882  -160527.944882  0.000567 -3.196683  0.185244
ts-err-D: ij(  447,   447), M =  1.8272   , ew = -.24800E-2, em = 0.24825E-2. avg_m = 0.52336E-06
ts-err-E: ij(  447,   447), M = -6.7825   , ew = 0.42492E-3, em = -.42534E-3. avg_m = -.95825E-07
ts-q:         D        E1        C1        E2        C2        dQ
ts-q:   436.169   392.148     3.868   392.148     3.868  2.711E-2
ts-Vha: -0.12316E+00 eV
ts-scf:    6  -160527.808930  -160527.875858  -160527.875858  0.003312 -3.196683  0.081072
ts-err-D: ij(  447,   447), M =  1.8272   , ew = -.25354E-2, em = 0.25380E-2. avg_m = 0.53399E-06
ts-err-E: ij(  447,   447), M = -6.7809   , ew = 0.43339E-3, em = -.43384E-3. avg_m = -.97401E-07
ts-q:         D        E1        C1        E2        C2        dQ
ts-q:   436.148   392.148     3.868   392.148     3.868  6.190E-3
ts-Vha: -0.91712E-01 eV
ts-scf:    7  -160527.736262  -160527.805245  -160527.805245  0.001984 -3.196683  0.035429
ts-err-D: ij(  447,   447), M =  1.8272   , ew = -.25362E-2, em = 0.25388E-2. avg_m = 0.53414E-06
ts-err-E: ij(  447,   447), M = -6.7810   , ew = 0.43350E-3, em = -.43396E-3. avg_m = -.97422E-07
ts-q:         D        E1        C1        E2        C2        dQ
ts-q:   436.148   392.148     3.868   392.148     3.868  6.090E-3
ts-Vha: -0.91689E-01 eV
ts-scf:    8  -160527.804187  -160527.804703  -160527.804703  0.000096 -3.196683  0.034229
ts-err-D: ij(  447,   447), M =  1.8271   , ew = -.25502E-2, em = 0.25530E-2. avg_m = 0.53690E-06
ts-err-E: ij(  447,   447), M = -6.7801   , ew = 0.43553E-3, em = -.43600E-3. avg_m = -.97799E-07
ts-q:         D        E1        C1        E2        C2        dQ
ts-q:   436.146   392.148     3.868   392.148     3.868  3.665E-3
ts-Vha: -0.86821E-01 eV
ts-scf:    9  -160527.791320  -160527.797824  -160527.797824  0.000487 -3.196683  0.015939
ts-err-D: ij(  447,   447), M =  1.8272   , ew = -.25587E-2, em = 0.25616E-2. avg_m = 0.53832E-06
ts-err-E: ij(  447,   447), M = -6.7805   , ew = 0.43671E-3, em = -.43720E-3. avg_m = -.97972E-07
ts-q:         D        E1        C1        E2        C2        dQ
ts-q:   436.147   392.148     3.868   392.148     3.868  5.120E-3
ts-Vha: -0.88962E-01 eV
ts-scf:   10  -160527.824320  -160527.811117  -160527.811117  0.001338 -3.196683  0.008541
ts-err-D: ij(  447,   447), M =  1.8272   , ew = -.25628E-2, em = 0.25657E-2. avg_m = 0.53915E-06
ts-err-E: ij(  447,   447), M = -6.7807   , ew = 0.43722E-3, em = -.43772E-3. avg_m = -.98070E-07
ts-q:         D        E1        C1        E2        C2        dQ
ts-q:   436.147   392.148     3.868   392.148     3.868  4.854E-3
ts-Vha: -0.88521E-01 eV
ts-scf:   11  -160527.813996  -160527.812538  -160527.812538  0.000161 -3.196683  0.007127
ts-err-D: ij(  447,   447), M =  1.8273   , ew = -.25700E-2, em = 0.25733E-2. avg_m = 0.54060E-06
ts-err-E: ij(  447,   447), M = -6.7820   , ew = 0.43783E-3, em = -.43840E-3. avg_m = -.98177E-07
ts-q:         D        E1        C1        E2        C2        dQ
ts-q:   436.146   392.148     3.868   392.148     3.868  4.585E-3
ts-Vha: -0.88134E-01 eV
ts-scf:   12  -160527.827286  -160527.819901  -160527.819901  0.000491 -3.196683  0.004420
ts-err-D: ij(  447,   447), M =  1.8273   , ew = -.25700E-2, em = 0.25734E-2. avg_m = 0.54064E-06
ts-err-E: ij(  447,   447), M = -6.7825   , ew = 0.43773E-3, em = -.43832E-3. avg_m = -.98160E-07
ts-q:         D        E1        C1        E2        C2        dQ
ts-q:   436.147   392.148     3.868   392.148     3.868  4.624E-3
ts-Vha: -0.88142E-01 eV
ts-scf:   13  -160527.823281  -160527.821598  -160527.821598  0.000079 -3.196683  0.002709
ts-err-D: ij(  447,   447), M =  1.8273   , ew = -.25699E-2, em = 0.25734E-2. avg_m = 0.54057E-06
ts-err-E: ij(  447,   447), M = -6.7833   , ew = 0.43758E-3, em = -.43818E-3. avg_m = -.98118E-07
ts-q:         D        E1        C1        E2        C2        dQ
ts-q:   436.147   392.148     3.868   392.148     3.868  4.674E-3
ts-Vha: -0.88214E-01 eV
ts-scf:   14  -160527.826781  -160527.824192  -160527.824192  0.000115 -3.196683  0.001677
ts-err-D: ij(  447,   447), M =  1.8273   , ew = -.25697E-2, em = 0.25733E-2. avg_m = 0.54050E-06
ts-err-E: ij(  447,   447), M = -6.7836   , ew = 0.43749E-3, em = -.43810E-3. avg_m = -.98094E-07
ts-q:         D        E1        C1        E2        C2        dQ
ts-q:   436.146   392.148     3.868   392.148     3.868  4.513E-3
ts-Vha: -0.87997E-01 eV
ts-scf:   15  -160527.824853  -160527.824517  -160527.824517  0.000052 -3.196683  0.001329
ts-err-D: ij(  447,   447), M =  1.8273   , ew = -.25698E-2, em = 0.25734E-2. avg_m = 0.54047E-06
ts-err-E: ij(  447,   447), M = -6.7837   , ew = 0.43748E-3, em = -.43809E-3. avg_m = -.98082E-07
ts-q:         D        E1        C1        E2        C2        dQ
ts-q:   436.146   392.148     3.868   392.148     3.868  4.380E-3
ts-Vha: -0.87887E-01 eV
ts-scf:   16  -160527.824314  -160527.824407  -160527.824407  0.000075 -3.196683  0.000853

SCF Convergence by DM+H criterion
max |DM_out - DM_in|         :     0.0000752883
max |H_out - H_in|      (eV) :     0.0008532116
SCF cycle converged after 16 iterations

Using DM_out to compute the final energy and forces
No. of atoms with KB's overlaping orbs in proc 0. Max # of overlaps:     341     267
ts-Vha: -0.87887E-01 eV

siesta: E_KS(eV) =          -160527.8244

siesta: E_KS - E_eggbox =   -160527.8244

siesta: Atomic forces (eV/Ang):
----------------------------------------
   Tot   -0.006172   -0.006172    0.215483
----------------------------------------
   Max    1.296360
   Res    0.295705    sqrt( Sum f_i^2 / 3N )
----------------------------------------
   Max    1.296360    constrained

Stress-tensor-Voigt (kbar):     -138.11     -138.11     -138.42        1.12        0.61        0.61
(Free)E + p*V (eV/cell)  -160317.1821
Target enthalpy (eV/cell)  -160527.8244

mulliken: Atomic and Orbital Populations:

Species: Au                  
Atom  Qatom  Qorb
               6s      5dxy    5dyz    5dz2    5dxz    5dx2-y2 6Ppy    6Ppz    
               6Ppx    
   1 10.998   0.973   1.932   1.890   1.939   1.890   1.894   0.159   0.161
              0.159
   2 10.999   0.976   1.932   1.890   1.940   1.890   1.894   0.158   0.161
              0.158
   3 10.999   0.976   1.932   1.889   1.940   1.890   1.894   0.158   0.162
              0.158
   4 10.999   0.976   1.932   1.890   1.940   1.890   1.894   0.158   0.161
              0.158
   5 10.999   0.975   1.933   1.889   1.939   1.889   1.894   0.159   0.162
              0.159
   6 10.999   0.975   1.932   1.890   1.939   1.891   1.894   0.158   0.162
              0.159
   7 10.999   0.976   1.932   1.890   1.940   1.889   1.894   0.158   0.162
              0.158
   8 10.999   0.975   1.932   1.891   1.939   1.890   1.894   0.159   0.162
              0.158
   9 10.999   0.974   1.933   1.890   1.938   1.890   1.894   0.159   0.162
              0.159
  10 11.004   0.987   1.935   1.886   1.939   1.886   1.894   0.159   0.160
              0.159
  11 11.002   0.981   1.935   1.887   1.940   1.886   1.894   0.159   0.161
              0.159
  12 11.003   0.984   1.935   1.886   1.940   1.886   1.894   0.159   0.161
              0.159
  13 11.002   0.981   1.935   1.886   1.940   1.887   1.894   0.159   0.161
              0.159
  14 11.001   0.982   1.935   1.888   1.940   1.888   1.893   0.159   0.157
              0.159
  15 11.001   0.980   1.935   1.887   1.939   1.887   1.894   0.159   0.161
              0.159
  16 11.003   0.984   1.935   1.886   1.940   1.886   1.894   0.159   0.161
              0.159
  17 11.001   0.980   1.935   1.887   1.939   1.887   1.894   0.159   0.161
              0.159
  18 11.004   0.985   1.935   1.886   1.940   1.886   1.894   0.159   0.161
              0.159
  19 10.997   0.971   1.932   1.890   1.939   1.890   1.894   0.159   0.164
              0.159
  20 11.000   0.978   1.932   1.889   1.940   1.891   1.893   0.159   0.160
              0.158
  21 11.001   0.979   1.932   1.888   1.940   1.891   1.893   0.159   0.160
              0.159
  22 11.000   0.978   1.932   1.891   1.940   1.889   1.893   0.158   0.160
              0.159
  23 11.000   0.978   1.932   1.889   1.940   1.889   1.894   0.159   0.160
              0.159
  24 11.000   0.978   1.932   1.889   1.941   1.890   1.894   0.159   0.159
              0.159
  25 11.001   0.979   1.932   1.891   1.940   1.888   1.893   0.159   0.160
              0.159
  26 11.000   0.978   1.932   1.890   1.941   1.889   1.894   0.159   0.159
              0.159
  27 10.999   0.977   1.933   1.889   1.940   1.889   1.894   0.159   0.159
              0.159
  28 10.998   0.975   1.936   1.891   1.939   1.891   1.889   0.159   0.160
              0.159
  29 10.999   0.973   1.935   1.890   1.938   1.891   1.889   0.160   0.164
              0.160
  30 10.998   0.975   1.935   1.890   1.939   1.891   1.889   0.159   0.161
              0.159
  31 10.999   0.973   1.935   1.891   1.938   1.890   1.889   0.160   0.164
              0.160
  32 11.001   0.973   1.934   1.890   1.937   1.890   1.890   0.161   0.165
              0.161
  33 10.999   0.973   1.935   1.891   1.938   1.890   1.889   0.160   0.163
              0.160
  34 10.998   0.975   1.935   1.891   1.939   1.890   1.889   0.159   0.161
              0.159
  35 10.999   0.973   1.935   1.890   1.938   1.891   1.889   0.160   0.163
              0.160
  36 10.998   0.973   1.935   1.890   1.938   1.890   1.889   0.160   0.162
              0.160
  37 10.961   0.948   1.938   1.902   1.938   1.902   1.878   0.153   0.148
              0.153
  38 10.972   0.955   1.938   1.902   1.927   1.900   1.881   0.153   0.162
              0.153
  39 10.973   0.959   1.938   1.902   1.927   1.901   1.880   0.153   0.160
              0.153
  40 10.972   0.955   1.938   1.900   1.927   1.902   1.881   0.153   0.162
              0.153
  41 10.973   0.954   1.939   1.901   1.928   1.901   1.878   0.154   0.165
              0.154
  42 10.975   0.957   1.939   1.901   1.927   1.902   1.878   0.154   0.165
              0.154
  43 10.973   0.959   1.938   1.901   1.927   1.902   1.880   0.153   0.160
              0.153
  44 10.975   0.957   1.939   1.902   1.927   1.901   1.878   0.154   0.165
              0.154
  45 10.979   0.963   1.938   1.900   1.927   1.900   1.878   0.154   0.164
              0.154
  46 11.014   1.006   1.950   1.915   1.935   1.915   1.868   0.143   0.141
              0.143
  47 11.028   1.039   1.949   1.921   1.948   1.927   1.860   0.136   0.111
              0.137
  48 11.014   1.013   1.949   1.912   1.939   1.917   1.867   0.144   0.132
              0.141
  49 11.028   1.039   1.949   1.927   1.948   1.921   1.860   0.137   0.111
              0.136
  50 11.033   1.046   1.948   1.922   1.949   1.922   1.861   0.137   0.110
              0.137
  51 11.026   1.039   1.949   1.927   1.948   1.922   1.860   0.135   0.110
              0.136
  52 11.014   1.013   1.949   1.917   1.939   1.912   1.867   0.141   0.132
              0.144
  53 11.026   1.039   1.949   1.922   1.948   1.927   1.860   0.136   0.110
              0.135
  54 11.031   1.030   1.948   1.911   1.937   1.911   1.869   0.144   0.137
              0.144
  55 11.043   1.091   1.928   1.900   1.962   1.900   1.976   0.085   0.116
              0.085
  56 11.006   1.071   1.977   1.939   1.965   1.939   1.986   0.025   0.077
              0.025
  57 11.016   1.091   1.977   1.936   1.965   1.936   1.986   0.025   0.076
              0.025
  58 11.041   1.090   1.927   1.899   1.962   1.899   1.976   0.083   0.122
              0.083
  59 11.012   1.001   1.950   1.914   1.936   1.914   1.867   0.144   0.142
              0.144
  60 11.012   1.008   1.949   1.912   1.939   1.917   1.867   0.146   0.132
              0.143
  61 11.025   1.034   1.949   1.921   1.948   1.928   1.860   0.137   0.110
              0.138
  62 11.012   1.008   1.949   1.917   1.939   1.912   1.867   0.143   0.132
              0.146
  63 11.031   1.027   1.948   1.911   1.937   1.911   1.868   0.146   0.136
              0.146
  64 11.023   1.034   1.949   1.921   1.948   1.927   1.860   0.137   0.108
              0.138
  65 11.025   1.034   1.949   1.928   1.948   1.921   1.860   0.138   0.110
              0.137
  66 11.023   1.034   1.949   1.927   1.948   1.921   1.860   0.138   0.108
              0.137
  67 11.030   1.041   1.949   1.922   1.948   1.922   1.861   0.139   0.108
              0.139
  68 10.959   0.948   1.938   1.901   1.942   1.901   1.877   0.152   0.148
              0.152
  69 10.971   0.959   1.938   1.901   1.927   1.901   1.881   0.152   0.160
              0.152
  70 10.972   0.958   1.938   1.901   1.927   1.899   1.881   0.153   0.161
              0.153
  71 10.971   0.959   1.938   1.901   1.927   1.901   1.881   0.152   0.160
              0.152
  72 10.978   0.964   1.938   1.900   1.927   1.900   1.878   0.154   0.164
              0.154
  73 10.975   0.959   1.939   1.901   1.926   1.900   1.878   0.153   0.165
              0.153
  74 10.972   0.958   1.938   1.899   1.927   1.901   1.881   0.153   0.161
              0.153
  75 10.975   0.959   1.939   1.900   1.926   1.901   1.878   0.153   0.165
              0.153
  76 10.974   0.957   1.939   1.901   1.927   1.901   1.878   0.154   0.164
              0.154
  77 10.998   0.975   1.936   1.891   1.939   1.891   1.889   0.159   0.160
              0.159
  78 10.998   0.975   1.935   1.890   1.939   1.891   1.889   0.159   0.161
              0.159
  79 10.999   0.972   1.935   1.890   1.938   1.891   1.889   0.160   0.164
              0.160
  80 10.998   0.975   1.935   1.891   1.939   1.890   1.889   0.159   0.161
              0.159
  81 10.998   0.973   1.935   1.890   1.938   1.890   1.889   0.160   0.162
              0.160
  82 10.999   0.973   1.935   1.890   1.938   1.891   1.889   0.160   0.163
              0.160
  83 10.999   0.972   1.935   1.891   1.938   1.890   1.889   0.160   0.164
              0.160
  84 10.999   0.973   1.935   1.891   1.938   1.890   1.889   0.160   0.163
              0.160
  85 11.001   0.973   1.934   1.890   1.937   1.890   1.890   0.161   0.165
              0.161
  86 10.997   0.971   1.932   1.890   1.939   1.890   1.894   0.159   0.164
              0.159
  87 11.001   0.979   1.932   1.888   1.940   1.890   1.893   0.159   0.160
              0.159
  88 11.000   0.978   1.932   1.889   1.940   1.891   1.893   0.159   0.160
              0.158
  89 11.001   0.979   1.932   1.890   1.940   1.888   1.893   0.159   0.160
              0.159
  90 10.999   0.977   1.933   1.889   1.940   1.889   1.894   0.159   0.159
              0.159
  91 11.000   0.978   1.932   1.890   1.941   1.889   1.894   0.159   0.159
              0.159
  92 11.000   0.978   1.932   1.891   1.940   1.889   1.893   0.158   0.160
              0.159
  93 11.000   0.978   1.932   1.889   1.941   1.890   1.894   0.159   0.159
              0.159
  94 11.000   0.978   1.932   1.889   1.940   1.889   1.894   0.159   0.160
              0.159
  95 11.004   0.987   1.935   1.886   1.939   1.886   1.894   0.159   0.160
              0.159
  96 11.003   0.984   1.935   1.886   1.940   1.886   1.894   0.159   0.161
              0.159
  97 11.002   0.981   1.935   1.887   1.940   1.886   1.894   0.159   0.161
              0.159
  98 11.003   0.984   1.935   1.886   1.940   1.886   1.894   0.159   0.161
              0.159
  99 11.004   0.985   1.935   1.886   1.940   1.886   1.894   0.159   0.161
              0.159
 100 11.001   0.980   1.935   1.887   1.939   1.887   1.894   0.159   0.161
              0.159
 101 11.002   0.981   1.935   1.886   1.940   1.887   1.894   0.159   0.161
              0.159
 102 11.001   0.980   1.935   1.887   1.939   1.887   1.894   0.159   0.161
              0.159
 103 11.001   0.982   1.935   1.888   1.940   1.888   1.893   0.159   0.157
              0.159
 104 10.998   0.973   1.932   1.890   1.939   1.890   1.894   0.159   0.161
              0.159
 105 10.999   0.976   1.932   1.889   1.940   1.890   1.894   0.159   0.162
              0.158
 106 10.999   0.976   1.933   1.890   1.940   1.890   1.894   0.158   0.161
              0.158
 107 10.999   0.976   1.932   1.890   1.940   1.889   1.894   0.158   0.162
              0.159
 108 10.999   0.974   1.933   1.890   1.938   1.890   1.894   0.159   0.162
              0.159
 109 10.999   0.975   1.932   1.891   1.939   1.890   1.894   0.159   0.162
              0.158
 110 10.999   0.976   1.933   1.890   1.940   1.890   1.894   0.158   0.161
              0.158
 111 10.999   0.975   1.932   1.890   1.939   1.891   1.894   0.158   0.162
              0.159
 112 10.999   0.975   1.933   1.889   1.939   1.889   1.894   0.159   0.162
              0.159

mulliken: Qtot =     1232.004

coxmol: Writing XMOL coordinates into file au_100.xyz                                                          

siesta: Program's energy decomposition (eV):
siesta: Ebs     =     -9224.214147
siesta: Eions   =    106428.788183
siesta: Ena     =       385.354664
siesta: Ekin    =     73195.342708
siesta: Enl     =    -47374.413596
siesta: Eso     =         0.000000
siesta: Eldau   =         0.000000
siesta: DEna    =       105.180016
siesta: DUscf   =        41.019456
siesta: DUext   =         0.000000
siesta: Exc     =    -80451.519471
siesta: eta*DQ  =         0.000000
siesta: Emadel  =         0.000000
siesta: Emeta   =         0.000000
siesta: Emolmec =         0.000000
siesta: Ekinion =         0.000000
siesta: Eharris =   -160527.824314
siesta: Etot    =   -160527.824407
siesta: FreeEng =   -160527.824407

siesta: Final energy (eV):
siesta:  Band Struct. =   -9224.214147
siesta:       Kinetic =   73195.342708
siesta:       Hartree =  242721.313234
siesta:       Eldau   =       0.000000
siesta:       Eso     =       0.000000
siesta:    Ext. field =       0.000000
siesta:   Exch.-corr. =  -80451.519471
siesta:  Ion-electron = -541551.787797
siesta:       Ion-ion =  145558.826919
siesta:       Ekinion =       0.000000
siesta:         Total = -160527.824407
siesta:         Fermi =      -3.196683

siesta: Atomic forces (eV/Ang):
siesta:      1   -0.005961   -0.005961   -0.002193
siesta:      2    0.005802   -0.000344   -0.010677
siesta:      3   -0.000384    0.001225   -0.010203
siesta:      4   -0.000344    0.005802   -0.010677
siesta:      5    0.000539    0.000539    0.013080
siesta:      6   -0.000894   -0.011426   -0.004586
siesta:      7    0.001225   -0.000384   -0.010203
siesta:      8   -0.011426   -0.000894   -0.004586
siesta:      9    0.010772    0.010772    0.009369
siesta:     10    0.001492    0.001492    0.034724
siesta:     11   -0.004378   -0.005998    0.050800
siesta:     12    0.003105   -0.002761    0.038542
siesta:     13   -0.005998   -0.004378    0.050800
siesta:     14   -0.004892   -0.004892    0.037960
siesta:     15    0.010800   -0.003257    0.058878
siesta:     16   -0.002761    0.003105    0.038542
siesta:     17   -0.003257    0.010800    0.058878
siesta:     18    0.005834    0.005834    0.049204
siesta:     19   -0.010653   -0.010653   -0.064608
siesta:     20    0.010934   -0.000214   -0.076399
siesta:     21    0.001468    0.004073   -0.087510
siesta:     22   -0.000214    0.010934   -0.076399
siesta:     23    0.003707    0.003707   -0.099141
siesta:     24   -0.003947   -0.007740   -0.086781
siesta:     25    0.004073    0.001468   -0.087510
siesta:     26   -0.007740   -0.003947   -0.086781
siesta:     27    0.003475    0.003475   -0.091220
siesta:     28    0.007705    0.007705    0.032499
siesta:     29   -0.002952   -0.001391   -0.010698
siesta:     30   -0.006166   -0.000541    0.020031
siesta:     31   -0.001391   -0.002952   -0.010698
siesta:     32   -0.008842   -0.008842    0.049621
siesta:     33    0.009935   -0.001572   -0.005775
siesta:     34   -0.000541   -0.006166    0.020031
siesta:     35   -0.001572    0.009935   -0.005775
siesta:     36   -0.000823   -0.000823    0.035365
siesta:     37   -0.006581   -0.006581   -0.321216
siesta:     38    0.016771   -0.004492   -0.030092
siesta:     39   -0.006007   -0.007115   -0.032534
siesta:     40   -0.004492    0.016771   -0.030092
siesta:     41   -0.060920   -0.060920    0.094181
siesta:     42    0.068964   -0.045537    0.077553
siesta:     43   -0.007115   -0.006007   -0.032534
siesta:     44   -0.045537    0.068964    0.077553
siesta:     45    0.058295    0.058295    0.055512
siesta:     46    0.294289    0.294289    1.258935
siesta:     47   -0.019546    0.022269    1.084669
siesta:     48   -0.259931    0.223704    1.187174
siesta:     49    0.022269   -0.019546    1.084669
siesta:     50    0.000307    0.000307    1.099238
siesta:     51   -0.019759   -0.009560    1.062003
siesta:     52    0.223704   -0.259931    1.187174
siesta:     53   -0.009560   -0.019759    1.062003
siesta:     54   -0.167958   -0.167958    1.296360
siesta:     55    0.351621    0.351621    0.362712
siesta:     56   -0.939295   -0.939295   -0.013832
siesta:     57    0.938386    0.938386    0.000502
siesta:     58   -0.396305   -0.396305   -0.369198
siesta:     59   -0.262906   -0.262906   -1.267963
siesta:     60    0.239879   -0.200716   -1.181831
siesta:     61    0.013011   -0.016446   -1.075694
siesta:     62   -0.200716    0.239879   -1.181831
siesta:     63    0.152453    0.152453   -1.288857
siesta:     64    0.006370    0.016535   -1.047430
siesta:     65   -0.016446    0.013011   -1.075694
siesta:     66    0.016535    0.006370   -1.047430
siesta:     67   -0.002571   -0.002571   -1.093666
siesta:     68   -0.000476   -0.000476    0.294153
siesta:     69    0.005689    0.013402    0.020461
siesta:     70    0.004243    0.012798    0.033876
siesta:     71    0.013402    0.005689    0.020461
siesta:     72   -0.066836   -0.066836   -0.067556
siesta:     73    0.057946   -0.072009   -0.084256
siesta:     74    0.012798    0.004243    0.033876
siesta:     75   -0.072009    0.057946   -0.084256
siesta:     76    0.065410    0.065410   -0.086031
siesta:     77   -0.007940   -0.007940   -0.032371
siesta:     78    0.005232    0.000106   -0.019419
siesta:     79    0.003050    0.001450    0.012484
siesta:     80    0.000106    0.005232   -0.019419
siesta:     81   -0.000016   -0.000016   -0.033619
siesta:     82    0.001711   -0.011282    0.007474
siesta:     83    0.001450    0.003050    0.012484
siesta:     84   -0.011282    0.001711    0.007474
siesta:     85    0.008743    0.008743   -0.049987
siesta:     86    0.011260    0.011260    0.067336
siesta:     87   -0.000837   -0.004230    0.091589
siesta:     88   -0.012149    0.000401    0.080223
siesta:     89   -0.004230   -0.000837    0.091589
siesta:     90   -0.003554   -0.003554    0.095519
siesta:     91    0.007998    0.004211    0.090922
siesta:     92    0.000401   -0.012149    0.080223
siesta:     93    0.004211    0.007998    0.090922
siesta:     94   -0.004151   -0.004151    0.103327
siesta:     95   -0.001780   -0.001780   -0.032377
siesta:     96   -0.002937    0.003033   -0.036603
siesta:     97    0.004480    0.006211   -0.048928
siesta:     98    0.003033   -0.002937   -0.036603
siesta:     99   -0.006154   -0.006154   -0.047403
siesta:    100    0.003304   -0.011344   -0.057430
siesta:    101    0.006211    0.004480   -0.048928
siesta:    102   -0.011344    0.003304   -0.057430
siesta:    103    0.005231    0.005231   -0.035760
siesta:    104    0.006059    0.006059    0.021564
siesta:    105    0.000725   -0.001469    0.029887
siesta:    106   -0.006225    0.000659    0.030320
siesta:    107   -0.001469    0.000725    0.029887
siesta:    108   -0.010800   -0.010800    0.008552
siesta:    109    0.011677    0.000688    0.023735
siesta:    110    0.000659   -0.006225    0.030320
siesta:    111    0.000688    0.011677    0.023735
siesta:    112   -0.000635   -0.000635    0.005214
siesta: ----------------------------------------
siesta:    Tot   -0.006172   -0.006172    0.215483

siesta: Stress tensor (static) (eV/Ang**3):
siesta:    -0.086203    0.000701    0.000382
siesta:     0.000701   -0.086203    0.000382
siesta:     0.000379    0.000379   -0.086391

siesta: Cell volume =       2441.783730 Ang**3

siesta: Pressure (static):
siesta:                Solid            Molecule  Units
siesta:           0.00093954          0.00109143  Ry/Bohr**3
siesta:           0.08626577          0.10021172  eV/Ang**3
siesta:         138.21449379        160.55861800  kBar
(Free)E+ p_basis*V_orbitals  =     -160450.216961
(Free)Eharris+ p_basis*V_orbitals  =     -160450.216868
ts-Vha: -0.87887E-01 eV

dhscf: Vacuum level (max, mean) =    1.561235    1.429181 eV
>> End of run:   2-JUL-2017  22:52:34
Job completed
