PARALLEL version
NetCDF support

* Running on    8 nodes in parallel
>> Start of run:  13-JUN-2018  22:37:48

                           ************************ 
                           *  WELCOME TO TBTrans  * 
                           ************************ 

reinit: Reading from standard input
************************** Dump of input data file ****************************
SolutionMethod        Transiesta
SystemName  Au 100 with gold chain
SystemLabel au_100
==================================================
==================================================
# SPECIES AND BASIS
# Number of species
NumberOfSpecies 1
%block ChemicalSpeciesLabel
  1  79 Au
%endblock ChemicalSpeciesLabel
PAO.BasisSize    SZP
PAO.EnergyShift  0.005 Ry
XC.functional   GGA
XC.authors      PBE
==================================================
==================================================
# K-points
%block kgrid_Monkhorst_Pack
 2    0    0    0.0
 0    2    0    0.0
 0    0    2    0.0
%endblock kgrid_Monkhorst_Pack
==================================================
==================================================
# Structure
NumberOfAtoms 112
LatticeConstant 1.0 Ang
%block LatticeVectors
     8.651160000      0.000000000      0.000000000
     0.000000000      8.651160000      0.000000000
     0.000000000      0.000000000     32.625600000
%endblock LatticeVectors
AtomicCoordinatesFormat  Ang
%block AtomicCoordinatesAndAtomicSpecies
     0.000000000      0.000000000      0.000000000 1 # 1. layer
     2.883720000      0.000000000      0.000000000 1
     5.767440000      0.000000000      0.000000000 1
     0.000000000      2.883720000      0.000000000 1
     2.883720000      2.883720000      0.000000000 1
     5.767440000      2.883720000      0.000000000 1
     0.000000000      5.767440000      0.000000000 1
     2.883720000      5.767440000      0.000000000 1
     5.767440000      5.767440000      0.000000000 1
     1.441860000      1.441860000      2.039100000 1 # 2. layer
     4.325580000      1.441860000      2.039100000 1
     7.209300000      1.441860000      2.039100000 1
     1.441860000      4.325580000      2.039100000 1
     4.325580000      4.325580000      2.039100000 1
     7.209300000      4.325580000      2.039100000 1
     1.441860000      7.209300000      2.039100000 1
     4.325580000      7.209300000      2.039100000 1
     7.209300000      7.209300000      2.039100000 1
     0.000000000      0.000000000      4.078200000 1 # 3. layer
     2.883720000      0.000000000      4.078200000 1
     5.767440000      0.000000000      4.078200000 1
     0.000000000      2.883720000      4.078200000 1
     2.883720000      2.883720000      4.078200000 1
     5.767440000      2.883720000      4.078200000 1
     0.000000000      5.767440000      4.078200000 1
     2.883720000      5.767440000      4.078200000 1
     5.767440000      5.767440000      4.078200000 1
     1.441860000      1.441860000      6.117300000 1 # 4. layer
     4.325580000      1.441860000      6.117300000 1
     7.209300000      1.441860000      6.117300000 1
     1.441860000      4.325580000      6.117300000 1
     4.325580000      4.325580000      6.117300000 1
     7.209300000      4.325580000      6.117300000 1
     1.441860000      7.209300000      6.117300000 1
     4.325580000      7.209300000      6.117300000 1
     7.209300000      7.209300000      6.117300000 1
     0.000000000      0.000000000      8.156400000 1 # 5. layer
     2.883720000      0.000000000      8.156400000 1
     5.767440000      0.000000000      8.156400000 1
     0.000000000      2.883720000      8.156400000 1
     2.883720000      2.883720000      8.156400000 1
     5.767440000      2.883720000      8.156400000 1
     0.000000000      5.767440000      8.156400000 1
     2.883720000      5.767440000      8.156400000 1
     5.767440000      5.767440000      8.156400000 1
     1.441860000      1.441860000     10.195500000 1 # 6. layer
     4.325580000      1.441860000     10.195500000 1
     7.209300000      1.441860000     10.195500000 1
     1.441860000      4.325580000     10.195500000 1
     4.325580000      4.325580000     10.195500000 1
     7.209300000      4.325580000     10.195500000 1
     1.441860000      7.209300000     10.195500000 1
     4.325580000      7.209300000     10.195500000 1
     7.209300000      7.209300000     10.195500000 1
     0.000000000      0.000000000     12.234600000 1 # 7. layer
     1.441860000      1.441860000     14.273700000 1 # 8. layer
     0.000000000      0.000000000     16.312800000 1 # 9. layer
     1.441860000      1.441860000     18.351900000 1 # 10. layer
     0.000000000      0.000000000     20.391000000 1 # 11. layer
     2.883720000      0.000000000     20.391000000 1
     5.767440000      0.000000000     20.391000000 1
     0.000000000      2.883720000     20.391000000 1
     2.883720000      2.883720000     20.391000000 1
     5.767440000      2.883720000     20.391000000 1
     0.000000000      5.767440000     20.391000000 1
     2.883720000      5.767440000     20.391000000 1
     5.767440000      5.767440000     20.391000000 1
     1.441860000      1.441860000     22.430100000 1 # 12. layer
     4.325580000      1.441860000     22.430100000 1
     7.209300000      1.441860000     22.430100000 1
     1.441860000      4.325580000     22.430100000 1
     4.325580000      4.325580000     22.430100000 1
     7.209300000      4.325580000     22.430100000 1
     1.441860000      7.209300000     22.430100000 1
     4.325580000      7.209300000     22.430100000 1
     7.209300000      7.209300000     22.430100000 1
     0.000000000      0.000000000     24.469200000 1 # 13. layer
     2.883720000      0.000000000     24.469200000 1
     5.767440000      0.000000000     24.469200000 1
     0.000000000      2.883720000     24.469200000 1
     2.883720000      2.883720000     24.469200000 1
     5.767440000      2.883720000     24.469200000 1
     0.000000000      5.767440000     24.469200000 1
     2.883720000      5.767440000     24.469200000 1
     5.767440000      5.767440000     24.469200000 1
     1.441860000      1.441860000     26.508300000 1 # 14. layer
     4.325580000      1.441860000     26.508300000 1
     7.209300000      1.441860000     26.508300000 1
     1.441860000      4.325580000     26.508300000 1
     4.325580000      4.325580000     26.508300000 1
     7.209300000      4.325580000     26.508300000 1
     1.441860000      7.209300000     26.508300000 1
     4.325580000      7.209300000     26.508300000 1
     7.209300000      7.209300000     26.508300000 1
     0.000000000      0.000000000     28.547400000 1 # 15. layer
     2.883720000      0.000000000     28.547400000 1
     5.767440000      0.000000000     28.547400000 1
     0.000000000      2.883720000     28.547400000 1
     2.883720000      2.883720000     28.547400000 1
     5.767440000      2.883720000     28.547400000 1
     0.000000000      5.767440000     28.547400000 1
     2.883720000      5.767440000     28.547400000 1
     5.767440000      5.767440000     28.547400000 1
     1.441860000      1.441860000     30.586500000 1 # 16. layer
     4.325580000      1.441860000     30.586500000 1
     7.209300000      1.441860000     30.586500000 1
     1.441860000      4.325580000     30.586500000 1
     4.325580000      4.325580000     30.586500000 1
     7.209300000      4.325580000     30.586500000 1
     1.441860000      7.209300000     30.586500000 1
     4.325580000      7.209300000     30.586500000 1
     7.209300000      7.209300000     30.586500000 1
%endblock AtomicCoordinatesAndAtomicSpecies
==================================================
==================================================
# SCF variables
DM.MixSCF1   T
MaxSCFIterations      300           # Maximum number of SCF iter
DM.MixingWeight       0.05          # New DM amount for next SCF cycle
DM.Tolerance          1.d-4         # Tolerance in maximum difference
DM.UseSaveDM          true          # to use continuation files
DM.NumberPulay        5
TS.MixH               yes
==================================================
==================================================
# MD variables
MD.FinalTimeStep 1
MD.TypeOfRun CG
MD.NumCGsteps     000
MD.UseSaveXV      .true.
==================================================
==================================================
# Output variables
WriteMullikenPop                1
WriteBands                      .false.
SaveRho                         .false.
SaveDeltaRho                    .false.
SaveHS                          .false.
SaveElectrostaticPotential      True
SaveTotalPotential              no
WriteCoorXmol                   .true.
WriteMDXmol                     .true.
WriteMDhistory                  .false.
WriteEigenvalues                yes
==================================================
==================================================
# Transmission
TS.TBT.NPoints      101
TS.TBT.Emin        -0.5 eV
TS.TBT.Emax         0.5 eV
TS.TBT.NEigen              9
# Bias voltage
TS.Voltage 0.25 eV
TS.biasContour.NumPoints       20
# Transiesta: electrode definition:
# LEFT ELECTRODE
TS.HSFileLeft ./elec_au_100.TSHS
TS.ReplicateA1Left    3
TS.ReplicateA2Left    3
TS.NumUsedAtomsLeft   4
TS.BufferAtomsLeft    0
# RIGHT ELECTRODE
TS.HSFileRight ./elec_au_100.TSHS
TS.ReplicateA1Right   3
TS.ReplicateA2Right   3
TS.NumUsedAtomsRight  4
TS.BufferAtomsRight   0
# SPECIES AND ATOMS
# DYNAMICS
TS.UseBulkInElectrodes  T
************************** End of input data file *****************************

reinit: -----------------------------------------------------------------------
reinit: System Name: Au 100 with gold chain
reinit: -----------------------------------------------------------------------
reinit: System Label: au_100                                                      
reinit: -----------------------------------------------------------------------
redata: Non-Collinear-spin run           =     F
redata: SpinPolarized (Up/Down) run      =     F
redata: Number of spin components        =     1

tbt_read_options: **************************************************************
TBTrans Voltage                               =    0.2500 V
TBTrans Emin                                  =   -0.5000 eV
TBTrans Emax                                  =    0.5000 eV
Bulk Values in Electrodes                     =    T
Buffer Atoms in Left electrode                =    0
Buffer Atoms in Right electrode               =    0
Points on the energy contour                  =  101
GFEta                                         =    0.000001 Ry
Electronic Temperature                        =    0.0019 Ry
Calculate band bottom in elecrodes            =    T
GF title                                      =    Generated GF file
Left GF File                                  =    au_100.TBTGFL
Right GF File                                 =    au_100.TBTGFR
Re-use the GF files if they exists            =    T
Scattering region TSHS file                   =    au_100.TSHS
Left electrode TSHS file                      =    ./elec_au_100.TSHS
# atoms used in left elec.                    =     4
Left elec. repetition A1/A2                   =   3 X   3
Right electrode TSHS file                     =    ./elec_au_100.TSHS
# atoms used in right elec.                   =     4
Right elec. repetition A1/A2                  =   3 X   3
Projected region                              = [   37;   76]
Calculate DOS on projected atoms              =     F
Calculate COOP                                =     F
Align the Hamiltonian with the electrode      =     F
Remove inner-cell distances in the Hamiltonian=     F
tbt_read_options: **************************************************************

 NOTICE: Transport energy points are not
         divisable by the number of nodes.
         Better scalability is achived by changing:
           - TS.TBT.NPoints
         Used # of energy points   :  101
         Optimal equilibrium # of energy points:  104 ± i*  8

transiesta: contour integration path:
 Type         Re(c)[eV]    Im(c)[eV]     Re(weight)     Im(weight)
 Transport:
 trans  :      -0.49505      0.00001    0.000727703    0.000000000
 trans  :      -0.48515      0.00001    0.000727703    0.000000000
 trans  :      -0.47525      0.00001    0.000727703    0.000000000
 trans  :      -0.46535      0.00001    0.000727703    0.000000000
 trans  :      -0.45545      0.00001    0.000727703    0.000000000
 trans  :      -0.44554      0.00001    0.000727703    0.000000000
 trans  :      -0.43564      0.00001    0.000727703    0.000000000
 trans  :      -0.42574      0.00001    0.000727703    0.000000000
 trans  :      -0.41584      0.00001    0.000727703    0.000000000
 trans  :      -0.40594      0.00001    0.000727703    0.000000000
 trans  :      -0.39604      0.00001    0.000727703    0.000000000
 trans  :      -0.38614      0.00001    0.000727703    0.000000000
 trans  :      -0.37624      0.00001    0.000727703    0.000000000
 trans  :      -0.36634      0.00001    0.000727703    0.000000000
 trans  :      -0.35644      0.00001    0.000727703    0.000000000
 trans  :      -0.34653      0.00001    0.000727703    0.000000000
 trans  :      -0.33663      0.00001    0.000727703    0.000000000
 trans  :      -0.32673      0.00001    0.000727703    0.000000000
 trans  :      -0.31683      0.00001    0.000727703    0.000000000
 trans  :      -0.30693      0.00001    0.000727703    0.000000000
 trans  :      -0.29703      0.00001    0.000727703    0.000000000
 trans  :      -0.28713      0.00001    0.000727703    0.000000000
 trans  :      -0.27723      0.00001    0.000727703    0.000000000
 trans  :      -0.26733      0.00001    0.000727703    0.000000000
 trans  :      -0.25743      0.00001    0.000727703    0.000000000
 trans  :      -0.24752      0.00001    0.000727703    0.000000000
 trans  :      -0.23762      0.00001    0.000727703    0.000000000
 trans  :      -0.22772      0.00001    0.000727703    0.000000000
 trans  :      -0.21782      0.00001    0.000727703    0.000000000
 trans  :      -0.20792      0.00001    0.000727703    0.000000000
 trans  :      -0.19802      0.00001    0.000727703    0.000000000
 trans  :      -0.18812      0.00001    0.000727703    0.000000000
 trans  :      -0.17822      0.00001    0.000727703    0.000000000
 trans  :      -0.16832      0.00001    0.000727703    0.000000000
 trans  :      -0.15842      0.00001    0.000727703    0.000000000
 trans  :      -0.14851      0.00001    0.000727703    0.000000000
 trans  :      -0.13861      0.00001    0.000727703    0.000000000
 trans  :      -0.12871      0.00001    0.000727703    0.000000000
 trans  :      -0.11881      0.00001    0.000727703    0.000000000
 trans  :      -0.10891      0.00001    0.000727703    0.000000000
 trans  :      -0.09901      0.00001    0.000727703    0.000000000
 trans  :      -0.08911      0.00001    0.000727703    0.000000000
 trans  :      -0.07921      0.00001    0.000727703    0.000000000
 trans  :      -0.06931      0.00001    0.000727703    0.000000000
 trans  :      -0.05941      0.00001    0.000727703    0.000000000
 trans  :      -0.04950      0.00001    0.000727703    0.000000000
 trans  :      -0.03960      0.00001    0.000727703    0.000000000
 trans  :      -0.02970      0.00001    0.000727703    0.000000000
 trans  :      -0.01980      0.00001    0.000727703    0.000000000
 trans  :      -0.00990      0.00001    0.000727703    0.000000000
 trans  :      -0.00000      0.00001    0.000727703    0.000000000
 trans  :       0.00990      0.00001    0.000727703    0.000000000
 trans  :       0.01980      0.00001    0.000727703    0.000000000
 trans  :       0.02970      0.00001    0.000727703    0.000000000
 trans  :       0.03960      0.00001    0.000727703    0.000000000
 trans  :       0.04950      0.00001    0.000727703    0.000000000
 trans  :       0.05941      0.00001    0.000727703    0.000000000
 trans  :       0.06931      0.00001    0.000727703    0.000000000
 trans  :       0.07921      0.00001    0.000727703    0.000000000
 trans  :       0.08911      0.00001    0.000727703    0.000000000
 trans  :       0.09901      0.00001    0.000727703    0.000000000
 trans  :       0.10891      0.00001    0.000727703    0.000000000
 trans  :       0.11881      0.00001    0.000727703    0.000000000
 trans  :       0.12871      0.00001    0.000727703    0.000000000
 trans  :       0.13861      0.00001    0.000727703    0.000000000
 trans  :       0.14851      0.00001    0.000727703    0.000000000
 trans  :       0.15842      0.00001    0.000727703    0.000000000
 trans  :       0.16832      0.00001    0.000727703    0.000000000
 trans  :       0.17822      0.00001    0.000727703    0.000000000
 trans  :       0.18812      0.00001    0.000727703    0.000000000
 trans  :       0.19802      0.00001    0.000727703    0.000000000
 trans  :       0.20792      0.00001    0.000727703    0.000000000
 trans  :       0.21782      0.00001    0.000727703    0.000000000
 trans  :       0.22772      0.00001    0.000727703    0.000000000
 trans  :       0.23762      0.00001    0.000727703    0.000000000
 trans  :       0.24752      0.00001    0.000727703    0.000000000
 trans  :       0.25743      0.00001    0.000727703    0.000000000
 trans  :       0.26733      0.00001    0.000727703    0.000000000
 trans  :       0.27723      0.00001    0.000727703    0.000000000
 trans  :       0.28713      0.00001    0.000727703    0.000000000
 trans  :       0.29703      0.00001    0.000727703    0.000000000
 trans  :       0.30693      0.00001    0.000727703    0.000000000
 trans  :       0.31683      0.00001    0.000727703    0.000000000
 trans  :       0.32673      0.00001    0.000727703    0.000000000
 trans  :       0.33663      0.00001    0.000727703    0.000000000
 trans  :       0.34653      0.00001    0.000727703    0.000000000
 trans  :       0.35644      0.00001    0.000727703    0.000000000
 trans  :       0.36634      0.00001    0.000727703    0.000000000
 trans  :       0.37624      0.00001    0.000727703    0.000000000
 trans  :       0.38614      0.00001    0.000727703    0.000000000
 trans  :       0.39604      0.00001    0.000727703    0.000000000
 trans  :       0.40594      0.00001    0.000727703    0.000000000
 trans  :       0.41584      0.00001    0.000727703    0.000000000
 trans  :       0.42574      0.00001    0.000727703    0.000000000
 trans  :       0.43564      0.00001    0.000727703    0.000000000
 trans  :       0.44554      0.00001    0.000727703    0.000000000
 trans  :       0.45545      0.00001    0.000727703    0.000000000
 trans  :       0.46535      0.00001    0.000727703    0.000000000
 trans  :       0.47525      0.00001    0.000727703    0.000000000
 trans  :       0.48515      0.00001    0.000727703    0.000000000
 trans  :       0.49505      0.00001    0.000727703    0.000000000

 
Atomic coordinates and regions (Ang):
##############################################
#     0.0000000     0.0000000     0.0000000  #
#     2.8837200     0.0000000     0.0000000  #
#     5.7674400     0.0000000     0.0000000  #
#     0.0000000     2.8837200     0.0000000  #
#     2.8837200     2.8837200     0.0000000  #
#     5.7674400     2.8837200     0.0000000  #
#     0.0000000     5.7674400     0.0000000  #
#     2.8837200     5.7674400     0.0000000  #
#     5.7674400     5.7674400     0.0000000  #
#     1.4418600     1.4418600     2.0391000  #
#     4.3255800     1.4418600     2.0391000  #
#     7.2093000     1.4418600     2.0391000  #
#     1.4418600     4.3255800     2.0391000  #
#     4.3255800     4.3255800     2.0391000  #
#     7.2093000     4.3255800     2.0391000  #
#     1.4418600     7.2093000     2.0391000  #
#     4.3255800     7.2093000     2.0391000  #
#     7.2093000     7.2093000     2.0391000  #     Left electrode
#     0.0000000     0.0000000     4.0782000  #
#     2.8837200     0.0000000     4.0782000  #
#     5.7674400     0.0000000     4.0782000  #
#     0.0000000     2.8837200     4.0782000  #
#     2.8837200     2.8837200     4.0782000  #
#     5.7674400     2.8837200     4.0782000  #
#     0.0000000     5.7674400     4.0782000  #
#     2.8837200     5.7674400     4.0782000  #
#     5.7674400     5.7674400     4.0782000  #
#     1.4418600     1.4418600     6.1173000  #
#     4.3255800     1.4418600     6.1173000  #
#     7.2093000     1.4418600     6.1173000  #
#     1.4418600     4.3255800     6.1173000  #
#     4.3255800     4.3255800     6.1173000  #
#     7.2093000     4.3255800     6.1173000  #
#     1.4418600     7.2093000     6.1173000  #
#     4.3255800     7.2093000     6.1173000  #
#     7.2093000     7.2093000     6.1173000  #
##############################################
      0.0000000     0.0000000     8.1564000   *
      2.8837200     0.0000000     8.1564000   *
      5.7674400     0.0000000     8.1564000   *
      0.0000000     2.8837200     8.1564000   *
      2.8837200     2.8837200     8.1564000   *
      5.7674400     2.8837200     8.1564000   *
      0.0000000     5.7674400     8.1564000   *
      2.8837200     5.7674400     8.1564000   *
      5.7674400     5.7674400     8.1564000   *
      1.4418600     1.4418600    10.1955000   *
      4.3255800     1.4418600    10.1955000   *
      7.2093000     1.4418600    10.1955000   *
      1.4418600     4.3255800    10.1955000   *
      4.3255800     4.3255800    10.1955000   *
      7.2093000     4.3255800    10.1955000   *
      1.4418600     7.2093000    10.1955000   *
      4.3255800     7.2093000    10.1955000   *
      7.2093000     7.2093000    10.1955000   *
      0.0000000     0.0000000    12.2346000   *
      1.4418600     1.4418600    14.2737000   *    Device
      0.0000000     0.0000000    16.3128000   *
      1.4418600     1.4418600    18.3519000   *
      0.0000000     0.0000000    20.3910000   *
      2.8837200     0.0000000    20.3910000   *
      5.7674400     0.0000000    20.3910000   *
      0.0000000     2.8837200    20.3910000   *
      2.8837200     2.8837200    20.3910000   *
      5.7674400     2.8837200    20.3910000   *
      0.0000000     5.7674400    20.3910000   *
      2.8837200     5.7674400    20.3910000   *
      5.7674400     5.7674400    20.3910000   *
      1.4418600     1.4418600    22.4301000   *
      4.3255800     1.4418600    22.4301000   *
      7.2093000     1.4418600    22.4301000   *
      1.4418600     4.3255800    22.4301000   *
      4.3255800     4.3255800    22.4301000   *
      7.2093000     4.3255800    22.4301000   *
      1.4418600     7.2093000    22.4301000   *
      4.3255800     7.2093000    22.4301000   *
      7.2093000     7.2093000    22.4301000   *
##############################################
#     0.0000000     0.0000000    24.4692000  #
#     2.8837200     0.0000000    24.4692000  #
#     5.7674400     0.0000000    24.4692000  #
#     0.0000000     2.8837200    24.4692000  #
#     2.8837200     2.8837200    24.4692000  #
#     5.7674400     2.8837200    24.4692000  #
#     0.0000000     5.7674400    24.4692000  #
#     2.8837200     5.7674400    24.4692000  #
#     5.7674400     5.7674400    24.4692000  #
#     1.4418600     1.4418600    26.5083000  #
#     4.3255800     1.4418600    26.5083000  #
#     7.2093000     1.4418600    26.5083000  #
#     1.4418600     4.3255800    26.5083000  #
#     4.3255800     4.3255800    26.5083000  #
#     7.2093000     4.3255800    26.5083000  #
#     1.4418600     7.2093000    26.5083000  #
#     4.3255800     7.2093000    26.5083000  #
#     7.2093000     7.2093000    26.5083000  #     Right electrode
#     0.0000000     0.0000000    28.5474000  #
#     2.8837200     0.0000000    28.5474000  #
#     5.7674400     0.0000000    28.5474000  #
#     0.0000000     2.8837200    28.5474000  #
#     2.8837200     2.8837200    28.5474000  #
#     5.7674400     2.8837200    28.5474000  #
#     0.0000000     5.7674400    28.5474000  #
#     2.8837200     5.7674400    28.5474000  #
#     5.7674400     5.7674400    28.5474000  #
#     1.4418600     1.4418600    30.5865000  #
#     4.3255800     1.4418600    30.5865000  #
#     7.2093000     1.4418600    30.5865000  #
#     1.4418600     4.3255800    30.5865000  #
#     4.3255800     4.3255800    30.5865000  #
#     7.2093000     4.3255800    30.5865000  #
#     1.4418600     7.2093000    30.5865000  #
#     4.3255800     7.2093000    30.5865000  #
#     7.2093000     7.2093000    30.5865000  #
##############################################
 
k-point displ. along   1 input, could be:     0.00    0.50
k-point displ. along   2 input, could be:     0.00    0.50

TBtrans: k-grid: Number of Transport k-points =     4
TBtrans: k-grid: Supercell and displacements
TBtrans: k-grid:    2   0   0      0.000
TBTrans: k-grid:    0   2   0      0.000


TBTrans: k-point coordinates (Bohr**-1) and weights:
TBtrans:    1    0.000000    0.000000    0.000000       0.250000
TBtrans:    2    0.192166    0.000000    0.000000       0.250000
TBtrans:    3    0.000000    0.192166    0.000000       0.250000
TBtrans:    4    0.192166    0.192166    0.000000       0.250000

TBTrans: k-point coordinates (b**-1) and weights:
TBtrans:    1    0.000000    0.000000    0.000000       0.250000
TBtrans:    2    0.500000    0.000000    0.000000       0.250000
TBtrans:    3    0.000000    0.500000    0.000000       0.250000
TBtrans:    4    0.500000    0.500000    0.000000       0.250000
 

Creating Green's function file for: left 
 Left unit cell (Ang):
  2.8837  0.0000  0.0000
  0.0000  2.8837  0.0000
  0.0000  0.0000  8.1564
 Structure of the Left electrode  | System electrode:
     X (Ang)   Y (Ang)   Z (Ang)  |   X (Ang)   Y (Ang)   Z (Ang)
     0.00000   0.00000   0.00000  |   0.00000   0.00000   0.00000
     2.88372   0.00000   0.00000  |   2.88372   0.00000   0.00000
     5.76744   0.00000   0.00000  |   5.76744   0.00000   0.00000
     0.00000   2.88372   0.00000  |   0.00000   2.88372   0.00000
     2.88372   2.88372   0.00000  |   2.88372   2.88372   0.00000
     5.76744   2.88372   0.00000  |   5.76744   2.88372   0.00000
     0.00000   5.76744   0.00000  |   0.00000   5.76744   0.00000
     2.88372   5.76744   0.00000  |   2.88372   5.76744   0.00000
     5.76744   5.76744   0.00000  |   5.76744   5.76744   0.00000
     1.44186   1.44186   2.03910  |   1.44186   1.44186   2.03910
     4.32558   1.44186   2.03910  |   4.32558   1.44186   2.03910
     7.20930   1.44186   2.03910  |   7.20930   1.44186   2.03910
     1.44186   4.32558   2.03910  |   1.44186   4.32558   2.03910
     4.32558   4.32558   2.03910  |   4.32558   4.32558   2.03910
     7.20930   4.32558   2.03910  |   7.20930   4.32558   2.03910
     1.44186   7.20930   2.03910  |   1.44186   7.20930   2.03910
     4.32558   7.20930   2.03910  |   4.32558   7.20930   2.03910
     7.20930   7.20930   2.03910  |   7.20930   7.20930   2.03910
     0.00000   0.00000   4.07820  |   0.00000   0.00000   4.07820
     2.88372   0.00000   4.07820  |   2.88372   0.00000   4.07820
     5.76744   0.00000   4.07820  |   5.76744   0.00000   4.07820
     0.00000   2.88372   4.07820  |   0.00000   2.88372   4.07820
     2.88372   2.88372   4.07820  |   2.88372   2.88372   4.07820
     5.76744   2.88372   4.07820  |   5.76744   2.88372   4.07820
     0.00000   5.76744   4.07820  |   0.00000   5.76744   4.07820
     2.88372   5.76744   4.07820  |   2.88372   5.76744   4.07820
     5.76744   5.76744   4.07820  |   5.76744   5.76744   4.07820
     1.44186   1.44186   6.11730  |   1.44186   1.44186   6.11730
     4.32558   1.44186   6.11730  |   4.32558   1.44186   6.11730
     7.20930   1.44186   6.11730  |   7.20930   1.44186   6.11730
     1.44186   4.32558   6.11730  |   1.44186   4.32558   6.11730
     4.32558   4.32558   6.11730  |   4.32558   4.32558   6.11730
     7.20930   4.32558   6.11730  |   7.20930   4.32558   6.11730
     1.44186   7.20930   6.11730  |   1.44186   7.20930   6.11730
     4.32558   7.20930   6.11730  |   4.32558   7.20930   6.11730
     7.20930   7.20930   6.11730  |   7.20930   7.20930   6.11730
 Electrodes with transport k-points  (Bohr**-1) and weights:
   1     0.00000E+00   0.00000E+00   0.25000E+00
   2     0.19217E+00   0.00000E+00   0.25000E+00
   3     0.00000E+00   0.19217E+00   0.25000E+00
   4     0.19217E+00   0.19217E+00   0.25000E+00
 Valence Band Bottom:    -9.6683 eV
 Atoms available    / used atoms   :      4 /      4
 Orbitals available / used orbitals:     36 /     36
 q-points for expanding electrode (Bohr**-1):
   1     0.00000E+00   0.00000E+00   0.11111E+00
   2     0.00000E+00   0.38433E+00   0.11111E+00
   3     0.00000E+00   0.76866E+00   0.11111E+00
   4     0.38433E+00   0.00000E+00   0.11111E+00
   5     0.38433E+00   0.38433E+00   0.11111E+00
   6     0.38433E+00   0.76866E+00   0.11111E+00
   7     0.76866E+00   0.00000E+00   0.11111E+00
   8     0.76866E+00   0.38433E+00   0.11111E+00
   9     0.76866E+00   0.76866E+00   0.11111E+00
 Fermi level shift in electrode :        0.12500  eV
Done creating 'au_100.TBTGFL'.

Creating Green's function file for: right
 Right unit cell (Ang):
  2.8837  0.0000  0.0000
  0.0000  2.8837  0.0000
  0.0000  0.0000  8.1564
 Structure of the Right electrode | System electrode:
     X (Ang)   Y (Ang)   Z (Ang)  |   X (Ang)   Y (Ang)   Z (Ang)
     0.00000   0.00000   0.00000  |   0.00000   0.00000   0.00000
     2.88372   0.00000   0.00000  |   2.88372   0.00000   0.00000
     5.76744   0.00000   0.00000  |   5.76744   0.00000   0.00000
     0.00000   2.88372   0.00000  |   0.00000   2.88372   0.00000
     2.88372   2.88372   0.00000  |   2.88372   2.88372   0.00000
     5.76744   2.88372   0.00000  |   5.76744   2.88372   0.00000
     0.00000   5.76744   0.00000  |   0.00000   5.76744   0.00000
     2.88372   5.76744   0.00000  |   2.88372   5.76744   0.00000
     5.76744   5.76744   0.00000  |   5.76744   5.76744   0.00000
     1.44186   1.44186   2.03910  |   1.44186   1.44186   2.03910
     4.32558   1.44186   2.03910  |   4.32558   1.44186   2.03910
     7.20930   1.44186   2.03910  |   7.20930   1.44186   2.03910
     1.44186   4.32558   2.03910  |   1.44186   4.32558   2.03910
     4.32558   4.32558   2.03910  |   4.32558   4.32558   2.03910
     7.20930   4.32558   2.03910  |   7.20930   4.32558   2.03910
     1.44186   7.20930   2.03910  |   1.44186   7.20930   2.03910
     4.32558   7.20930   2.03910  |   4.32558   7.20930   2.03910
     7.20930   7.20930   2.03910  |   7.20930   7.20930   2.03910
     0.00000   0.00000   4.07820  |   0.00000   0.00000   4.07820
     2.88372   0.00000   4.07820  |   2.88372   0.00000   4.07820
     5.76744   0.00000   4.07820  |   5.76744   0.00000   4.07820
     0.00000   2.88372   4.07820  |   0.00000   2.88372   4.07820
     2.88372   2.88372   4.07820  |   2.88372   2.88372   4.07820
     5.76744   2.88372   4.07820  |   5.76744   2.88372   4.07820
     0.00000   5.76744   4.07820  |   0.00000   5.76744   4.07820
     2.88372   5.76744   4.07820  |   2.88372   5.76744   4.07820
     5.76744   5.76744   4.07820  |   5.76744   5.76744   4.07820
     1.44186   1.44186   6.11730  |   1.44186   1.44186   6.11730
     4.32558   1.44186   6.11730  |   4.32558   1.44186   6.11730
     7.20930   1.44186   6.11730  |   7.20930   1.44186   6.11730
     1.44186   4.32558   6.11730  |   1.44186   4.32558   6.11730
     4.32558   4.32558   6.11730  |   4.32558   4.32558   6.11730
     7.20930   4.32558   6.11730  |   7.20930   4.32558   6.11730
     1.44186   7.20930   6.11730  |   1.44186   7.20930   6.11730
     4.32558   7.20930   6.11730  |   4.32558   7.20930   6.11730
     7.20930   7.20930   6.11730  |   7.20930   7.20930   6.11730
 Electrodes with transport k-points  (Bohr**-1) and weights:
   1     0.00000E+00   0.00000E+00   0.25000E+00
   2     0.19217E+00   0.00000E+00   0.25000E+00
   3     0.00000E+00   0.19217E+00   0.25000E+00
   4     0.19217E+00   0.19217E+00   0.25000E+00
 Valence Band Bottom:    -9.6683 eV
 Atoms available    / used atoms   :      4 /      4
 Orbitals available / used orbitals:     36 /     36
 q-points for expanding electrode (Bohr**-1):
   1     0.00000E+00   0.00000E+00   0.11111E+00
   2     0.00000E+00   0.38433E+00   0.11111E+00
   3     0.00000E+00   0.76866E+00   0.11111E+00
   4     0.38433E+00   0.00000E+00   0.11111E+00
   5     0.38433E+00   0.38433E+00   0.11111E+00
   6     0.38433E+00   0.76866E+00   0.11111E+00
   7     0.76866E+00   0.00000E+00   0.11111E+00
   8     0.76866E+00   0.38433E+00   0.11111E+00
   9     0.76866E+00   0.76866E+00   0.11111E+00
 Fermi level shift in electrode :       -0.12500  eV
Done creating 'au_100.TBTGFR'.

Left : GF atoms    / Expanded atoms    :      4 /     36
Left : GF orbitals / Expanded orbitals :     36 /    324
Right: GF atoms    / Expanded atoms    :      4 /     36
Right: GF orbitals / Expanded orbitals :     36 /    324

 ==============================================================
  Projection Region: atoms : [  37;  76]
  Projection Region: states: [  325;  684] Tot:  360
 Reading GF file, with title:
   au_100.TBTGFL
 Title: 'Generated GF file'

 Reading GF file, with title:
   au_100.TBTGFR
 Title: 'Generated GF file'

# k-point:     1
# k  =  0.000000,   0.000000,   0.000000, w=   0.250000
# kb =  0.000000,   0.000000,   0.000000, w=   0.250000
  -0.49505   0.86078129E+00   0.10324932E+02   0.10324932E+02
  -0.48515   0.86613511E+00   0.10320510E+02   0.10320510E+02
  -0.47525   0.87142055E+00   0.10316134E+02   0.10316134E+02
  -0.46535   0.87663460E+00   0.10311798E+02   0.10311798E+02
  -0.45545   0.88177428E+00   0.10307493E+02   0.10307493E+02
  -0.44554   0.88683666E+00   0.10303215E+02   0.10303215E+02
  -0.43564   0.89181884E+00   0.10298955E+02   0.10298955E+02
  -0.42574   0.89671797E+00   0.10294709E+02   0.10294709E+02
  -0.41584   0.90153125E+00   0.10290470E+02   0.10290470E+02
  -0.40594   0.90625594E+00   0.10286234E+02   0.10286234E+02
  -0.39604   0.91088938E+00   0.10281996E+02   0.10281996E+02
  -0.38614   0.91542895E+00   0.10277750E+02   0.10277750E+02
  -0.37624   0.91987214E+00   0.10273493E+02   0.10273493E+02
  -0.36634   0.92421649E+00   0.10269221E+02   0.10269221E+02
  -0.35644   0.92845963E+00   0.10264929E+02   0.10264929E+02
  -0.34653   0.93259928E+00   0.10260615E+02   0.10260615E+02
  -0.33663   0.93663326E+00   0.10256276E+02   0.10256276E+02
  -0.32673   0.94055946E+00   0.10251909E+02   0.10251909E+02
  -0.31683   0.94437590E+00   0.10247511E+02   0.10247511E+02
  -0.30693   0.94808068E+00   0.10243080E+02   0.10243080E+02
  -0.29703   0.95167201E+00   0.10238614E+02   0.10238614E+02
  -0.28713   0.95514820E+00   0.10234112E+02   0.10234112E+02
  -0.27723   0.95850767E+00   0.10229572E+02   0.10229572E+02
  -0.26733   0.96174897E+00   0.10224994E+02   0.10224994E+02
  -0.25743   0.96487073E+00   0.10220375E+02   0.10220375E+02
  -0.24752   0.96787172E+00   0.10215717E+02   0.10215717E+02
  -0.23762   0.97075079E+00   0.10211018E+02   0.10211018E+02
  -0.22772   0.97350694E+00   0.10206279E+02   0.10206279E+02
  -0.21782   0.97613926E+00   0.10201500E+02   0.10201500E+02
  -0.20792   0.97864695E+00   0.10196681E+02   0.10196681E+02
  -0.19802   0.98102935E+00   0.10191822E+02   0.10191822E+02
  -0.18812   0.98328587E+00   0.10186926E+02   0.10186926E+02
  -0.17822   0.98541606E+00   0.10181992E+02   0.10181992E+02
  -0.16832   0.98741956E+00   0.10177023E+02   0.10177023E+02
  -0.15842   0.98929613E+00   0.10172019E+02   0.10172019E+02
  -0.14851   0.99104563E+00   0.10166983E+02   0.10166983E+02
  -0.13861   0.99266801E+00   0.10161916E+02   0.10161916E+02
  -0.12871   0.99416332E+00   0.10156822E+02   0.10156822E+02
  -0.11881   0.99553171E+00   0.10151701E+02   0.10151701E+02
  -0.10891   0.99677342E+00   0.10146557E+02   0.10146557E+02
  -0.09901   0.99788878E+00   0.10141392E+02   0.10141392E+02
  -0.08911   0.99887820E+00   0.10136210E+02   0.10136210E+02
  -0.07921   0.99974215E+00   0.10131012E+02   0.10131012E+02
  -0.06931   0.10004812E+01   0.10125804E+02   0.10125804E+02
  -0.05941   0.10010960E+01   0.10120587E+02   0.10120587E+02
  -0.04950   0.10015873E+01   0.10115365E+02   0.10115365E+02
  -0.03960   0.10019558E+01   0.10110143E+02   0.10110143E+02
  -0.02970   0.10022023E+01   0.10104923E+02   0.10104923E+02
  -0.01980   0.10023276E+01   0.10099710E+02   0.10099710E+02
  -0.00990   0.10023329E+01   0.10094508E+02   0.10094508E+02
  -0.00000   0.10022189E+01   0.10089322E+02   0.10089322E+02
   0.00990   0.10019866E+01   0.10084154E+02   0.10084154E+02
   0.01980   0.10016372E+01   0.10079010E+02   0.10079010E+02
   0.02970   0.10011717E+01   0.10073895E+02   0.10073895E+02
   0.03960   0.10005911E+01   0.10068812E+02   0.10068812E+02
   0.04950   0.99989660E+00   0.10063768E+02   0.10063768E+02
   0.05941   0.99908925E+00   0.10058765E+02   0.10058765E+02
   0.06931   0.99817020E+00   0.10053810E+02   0.10053810E+02
   0.07921   0.99714057E+00   0.10048908E+02   0.10048908E+02
   0.08911   0.99600148E+00   0.10044063E+02   0.10044063E+02
   0.09901   0.99475406E+00   0.10039280E+02   0.10039280E+02
   0.10891   0.99339942E+00   0.10034565E+02   0.10034565E+02
   0.11881   0.99193864E+00   0.10029923E+02   0.10029923E+02
   0.12871   0.99037281E+00   0.10025360E+02   0.10025360E+02
   0.13861   0.98870299E+00   0.10020880E+02   0.10020880E+02
   0.14851   0.98693020E+00   0.10016490E+02   0.10016490E+02
   0.15842   0.98505544E+00   0.10012194E+02   0.10012194E+02
   0.16832   0.98307968E+00   0.10007998E+02   0.10007998E+02
   0.17822   0.98100386E+00   0.10003907E+02   0.10003907E+02
   0.18812   0.97882885E+00   0.99999282E+01   0.99999282E+01
   0.19802   0.97655552E+00   0.99960654E+01   0.99960654E+01
   0.20792   0.97418465E+00   0.99923248E+01   0.99923248E+01
   0.21782   0.97171702E+00   0.99887119E+01   0.99887119E+01
   0.22772   0.96915332E+00   0.99852321E+01   0.99852321E+01
   0.23762   0.96649422E+00   0.99818909E+01   0.99818909E+01
   0.24752   0.96374031E+00   0.99786938E+01   0.99786938E+01
   0.25743   0.96089213E+00   0.99756462E+01   0.99756462E+01
   0.26733   0.95795019E+00   0.99727534E+01   0.99727534E+01
   0.27723   0.95491491E+00   0.99700208E+01   0.99700208E+01
   0.28713   0.95178667E+00   0.99674534E+01   0.99674534E+01
   0.29703   0.94856578E+00   0.99650565E+01   0.99650565E+01
   0.30693   0.94525252E+00   0.99628349E+01   0.99628349E+01
   0.31683   0.94184706E+00   0.99607937E+01   0.99607937E+01
   0.32673   0.93834958E+00   0.99589375E+01   0.99589375E+01
   0.33663   0.93476014E+00   0.99572708E+01   0.99572708E+01
   0.34653   0.93107879E+00   0.99557981E+01   0.99557981E+01
   0.35644   0.92730551E+00   0.99545236E+01   0.99545236E+01
   0.36634   0.92344023E+00   0.99534512E+01   0.99534512E+01
   0.37624   0.91948282E+00   0.99525848E+01   0.99525848E+01
   0.38614   0.91543313E+00   0.99519276E+01   0.99519276E+01
   0.39604   0.91129096E+00   0.99514830E+01   0.99514830E+01
   0.40594   0.90705605E+00   0.99512538E+01   0.99512538E+01
   0.41584   0.90272814E+00   0.99512425E+01   0.99512425E+01
   0.42574   0.89830691E+00   0.99514513E+01   0.99514513E+01
   0.43564   0.89379205E+00   0.99518819E+01   0.99518819E+01
   0.44554   0.88918320E+00   0.99525357E+01   0.99525357E+01
   0.45545   0.88448001E+00   0.99534135E+01   0.99534135E+01
   0.46535   0.87968212E+00   0.99545156E+01   0.99545156E+01
   0.47525   0.87478919E+00   0.99558419E+01   0.99558419E+01
   0.48515   0.86980086E+00   0.99573917E+01   0.99573917E+01
   0.49505   0.86471681E+00   0.99591635E+01   0.99591635E+01
 
# k-point:     2
# k  =  0.192166,   0.000000,   0.000000, w=   0.250000
# kb =  0.500000,   0.000000,   0.000000, w=   0.250000
  -0.49505   0.74797923E+00   0.12078322E+02   0.12078322E+02
  -0.48515   0.75956020E+00   0.11722711E+02   0.11722711E+02
  -0.47525   0.76757899E+00   0.10782078E+02   0.10782078E+02
  -0.46535   0.77421299E+00   0.96635293E+01   0.96635293E+01
  -0.45545   0.78035201E+00   0.96965195E+01   0.96965195E+01
  -0.44554   0.78636701E+00   0.97474465E+01   0.97474465E+01
  -0.43564   0.79239042E+00   0.98192781E+01   0.98192781E+01
  -0.42574   0.79863868E+00   0.99348718E+01   0.99348718E+01
  -0.41584   0.80575469E+00   0.10204142E+02   0.10204142E+02
  -0.40594   0.81757279E+00   0.11816132E+02   0.11816132E+02
  -0.39604   0.76478846E+00   0.37963561E+02   0.37963561E+02
  -0.38614   0.80686111E+00   0.10921788E+02   0.10921788E+02
  -0.37624   0.81500653E+00   0.10372754E+02   0.10372754E+02
  -0.36634   0.82067772E+00   0.10303010E+02   0.10303010E+02
  -0.35644   0.82547588E+00   0.10324654E+02   0.10324654E+02
  -0.34653   0.82975583E+00   0.10378181E+02   0.10378181E+02
  -0.33663   0.83362658E+00   0.10447318E+02   0.10447318E+02
  -0.32673   0.83711818E+00   0.10525927E+02   0.10525927E+02
  -0.31683   0.84022506E+00   0.10610941E+02   0.10610941E+02
  -0.30693   0.84291822E+00   0.10700212E+02   0.10700212E+02
  -0.29703   0.84514444E+00   0.10791579E+02   0.10791579E+02
  -0.28713   0.84681034E+00   0.10882389E+02   0.10882389E+02
  -0.27723   0.84772453E+00   0.10969356E+02   0.10969356E+02
  -0.26733   0.84730790E+00   0.11051553E+02   0.11051553E+02
  -0.25743   0.84086187E+00   0.11186739E+02   0.11186739E+02
  -0.24752   0.86093450E+00   0.10775327E+02   0.10775327E+02
  -0.23762   0.85250698E+00   0.10704264E+02   0.10704264E+02
  -0.22772   0.84845842E+00   0.10093081E+02   0.10093081E+02
  -0.21782   0.84371513E+00   0.86698717E+01   0.86698717E+01
  -0.20792   0.83889851E+00   0.88321055E+01   0.88321055E+01
  -0.19802   0.83321715E+00   0.90606614E+01   0.90606614E+01
  -0.18812   0.82718624E+00   0.95056114E+01   0.95056114E+01
  -0.17822   0.82679317E+00   0.12606212E+02   0.12606212E+02
  -0.16832   0.78088740E+00   0.16001491E+02   0.16001491E+02
  -0.15842   0.77938118E+00   0.10465742E+02   0.10465742E+02
  -0.14851   0.76431307E+00   0.10388923E+02   0.10388923E+02
  -0.13861   0.74454682E+00   0.10646060E+02   0.10646060E+02
  -0.12871   0.72060714E+00   0.11017492E+02   0.11017492E+02
  -0.11881   0.69241375E+00   0.11464276E+02   0.11464276E+02
  -0.10891   0.65993504E+00   0.11972524E+02   0.11972524E+02
  -0.09901   0.62347381E+00   0.12529251E+02   0.12529251E+02
  -0.08911   0.58393546E+00   0.13114165E+02   0.13114165E+02
  -0.07921   0.54308311E+00   0.13695334E+02   0.13695334E+02
  -0.06931   0.50367007E+00   0.14228198E+02   0.14228198E+02
  -0.05941   0.46927064E+00   0.14659840E+02   0.14659840E+02
  -0.04950   0.44366870E+00   0.14939700E+02   0.14939700E+02
  -0.03960   0.42988723E+00   0.15034314E+02   0.15034314E+02
  -0.02970   0.42925968E+00   0.14939357E+02   0.14939357E+02
  -0.01980   0.44105352E+00   0.14681913E+02   0.14681913E+02
  -0.00990   0.46285432E+00   0.14311544E+02   0.14311544E+02
  -0.00000   0.49144024E+00   0.13885691E+02   0.13885691E+02
   0.00990   0.52366069E+00   0.13456987E+02   0.13456987E+02
   0.01980   0.55699033E+00   0.13066642E+02   0.13066642E+02
   0.02970   0.58971256E+00   0.12743631E+02   0.12743631E+02
   0.03960   0.62085556E+00   0.12507306E+02   0.12507306E+02
   0.04950   0.65002570E+00   0.12371107E+02   0.12371107E+02
   0.05941   0.67723358E+00   0.12346043E+02   0.12346043E+02
   0.06931   0.70275260E+00   0.12443363E+02   0.12443363E+02
   0.07921   0.72701621E+00   0.12676205E+02   0.12676205E+02
   0.08911   0.75053639E+00   0.13059810E+02   0.13059810E+02
   0.09901   0.77382030E+00   0.13609428E+02   0.13609428E+02
   0.10891   0.79724310E+00   0.14333981E+02   0.14333981E+02
   0.11881   0.82083091E+00   0.15222659E+02   0.15222659E+02
   0.12871   0.84392712E+00   0.16222500E+02   0.16222500E+02
   0.13861   0.86483261E+00   0.17212243E+02   0.17212243E+02
   0.14851   0.88077104E+00   0.17995379E+02   0.17995379E+02
   0.15842   0.88870749E+00   0.18349538E+02   0.18349538E+02
   0.16832   0.88699992E+00   0.18136190E+02   0.18136190E+02
   0.17822   0.87662251E+00   0.17390036E+02   0.17390036E+02
   0.18812   0.86064121E+00   0.16294374E+02   0.16294374E+02
   0.19802   0.84248666E+00   0.15069639E+02   0.15069639E+02
   0.20792   0.82464056E+00   0.13881955E+02   0.13881955E+02
   0.21782   0.80836464E+00   0.12819398E+02   0.12819398E+02
   0.22772   0.79403404E+00   0.11910666E+02   0.11910666E+02
   0.23762   0.78155202E+00   0.11151525E+02   0.11151525E+02
   0.24752   0.77063582E+00   0.10523896E+02   0.10523896E+02
   0.25743   0.76096722E+00   0.10006324E+02   0.10006324E+02
   0.26733   0.75225676E+00   0.95786658E+01   0.95786658E+01
   0.27723   0.74426338E+00   0.92237249E+01   0.92237249E+01
   0.28713   0.73679447E+00   0.89274711E+01   0.89274711E+01
   0.29703   0.72969856E+00   0.86787260E+01   0.86787260E+01
   0.30693   0.72285552E+00   0.84687157E+01   0.84687157E+01
   0.31683   0.71616351E+00   0.82907197E+01   0.82907197E+01
   0.32673   0.70949647E+00   0.81405059E+01   0.81405059E+01
   0.33663   0.70298736E+00   0.83759277E+01   0.83759277E+01
   0.34653   0.69676105E+00   0.84714714E+01   0.84714714E+01
   0.35644   0.69051490E+00   0.85188997E+01   0.85188997E+01
   0.36634   0.68423544E+00   0.85500085E+01   0.85500085E+01
   0.37624   0.67790968E+00   0.85740768E+01   0.85740768E+01
   0.38614   0.67152757E+00   0.85949261E+01   0.85949261E+01
   0.39604   0.66508181E+00   0.86143678E+01   0.86143678E+01
   0.40594   0.65856737E+00   0.86333189E+01   0.86333189E+01
   0.41584   0.65198102E+00   0.86522542E+01   0.86522542E+01
   0.42574   0.64532096E+00   0.86714160E+01   0.86714160E+01
   0.43564   0.63858654E+00   0.86909191E+01   0.86909191E+01
   0.44554   0.63177801E+00   0.87108083E+01   0.87108083E+01
   0.45545   0.62489632E+00   0.87310894E+01   0.87310894E+01
   0.46535   0.61794298E+00   0.87517480E+01   0.87517480E+01
   0.47525   0.61091994E+00   0.87727604E+01   0.87727604E+01
   0.48515   0.60382943E+00   0.87941002E+01   0.87941002E+01
   0.49505   0.59667391E+00   0.88157429E+01   0.88157429E+01
 
# k-point:     3
# k  =  0.000000,   0.192166,   0.000000, w=   0.250000
# kb =  0.000000,   0.500000,   0.000000, w=   0.250000
  -0.49505   0.74797923E+00   0.12078322E+02   0.12078322E+02
  -0.48515   0.75956020E+00   0.11722711E+02   0.11722711E+02
  -0.47525   0.76757899E+00   0.10782078E+02   0.10782078E+02
  -0.46535   0.77421299E+00   0.96635292E+01   0.96635292E+01
  -0.45545   0.78035201E+00   0.96965195E+01   0.96965195E+01
  -0.44554   0.78636701E+00   0.97474465E+01   0.97474465E+01
  -0.43564   0.79239042E+00   0.98192780E+01   0.98192780E+01
  -0.42574   0.79863868E+00   0.99348717E+01   0.99348717E+01
  -0.41584   0.80575469E+00   0.10204142E+02   0.10204142E+02
  -0.40594   0.81757279E+00   0.11816131E+02   0.11816131E+02
  -0.39604   0.76478843E+00   0.37963607E+02   0.37963607E+02
  -0.38614   0.80686111E+00   0.10921788E+02   0.10921788E+02
  -0.37624   0.81500653E+00   0.10372754E+02   0.10372754E+02
  -0.36634   0.82067772E+00   0.10303010E+02   0.10303010E+02
  -0.35644   0.82547588E+00   0.10324654E+02   0.10324654E+02
  -0.34653   0.82975584E+00   0.10378181E+02   0.10378181E+02
  -0.33663   0.83362658E+00   0.10447318E+02   0.10447318E+02
  -0.32673   0.83711818E+00   0.10525927E+02   0.10525927E+02
  -0.31683   0.84022506E+00   0.10610941E+02   0.10610941E+02
  -0.30693   0.84291822E+00   0.10700211E+02   0.10700211E+02
  -0.29703   0.84514444E+00   0.10791579E+02   0.10791579E+02
  -0.28713   0.84681034E+00   0.10882389E+02   0.10882389E+02
  -0.27723   0.84772453E+00   0.10969356E+02   0.10969356E+02
  -0.26733   0.84730790E+00   0.11051553E+02   0.11051553E+02
  -0.25743   0.84086187E+00   0.11186738E+02   0.11186738E+02
  -0.24752   0.86093451E+00   0.10775327E+02   0.10775327E+02
  -0.23762   0.85250698E+00   0.10704264E+02   0.10704264E+02
  -0.22772   0.84845843E+00   0.10093081E+02   0.10093081E+02
  -0.21782   0.84371514E+00   0.86698716E+01   0.86698716E+01
  -0.20792   0.83889851E+00   0.88321054E+01   0.88321054E+01
  -0.19802   0.83321716E+00   0.90606613E+01   0.90606613E+01
  -0.18812   0.82718626E+00   0.95056112E+01   0.95056112E+01
  -0.17822   0.82679317E+00   0.12606210E+02   0.12606210E+02
  -0.16832   0.78088740E+00   0.16001496E+02   0.16001496E+02
  -0.15842   0.77938119E+00   0.10465742E+02   0.10465742E+02
  -0.14851   0.76431309E+00   0.10388923E+02   0.10388923E+02
  -0.13861   0.74454684E+00   0.10646060E+02   0.10646060E+02
  -0.12871   0.72060716E+00   0.11017492E+02   0.11017492E+02
  -0.11881   0.69241377E+00   0.11464275E+02   0.11464275E+02
  -0.10891   0.65993507E+00   0.11972524E+02   0.11972524E+02
  -0.09901   0.62347384E+00   0.12529251E+02   0.12529251E+02
  -0.08911   0.58393549E+00   0.13114165E+02   0.13114165E+02
  -0.07921   0.54308314E+00   0.13695333E+02   0.13695333E+02
  -0.06931   0.50367010E+00   0.14228197E+02   0.14228197E+02
  -0.05941   0.46927066E+00   0.14659839E+02   0.14659839E+02
  -0.04950   0.44366872E+00   0.14939700E+02   0.14939700E+02
  -0.03960   0.42988724E+00   0.15034314E+02   0.15034314E+02
  -0.02970   0.42925968E+00   0.14939357E+02   0.14939357E+02
  -0.01980   0.44105351E+00   0.14681913E+02   0.14681913E+02
  -0.00990   0.46285431E+00   0.14311545E+02   0.14311545E+02
  -0.00000   0.49144023E+00   0.13885691E+02   0.13885691E+02
   0.00990   0.52366067E+00   0.13456988E+02   0.13456988E+02
   0.01980   0.55699031E+00   0.13066642E+02   0.13066642E+02
   0.02970   0.58971255E+00   0.12743631E+02   0.12743631E+02
   0.03960   0.62085554E+00   0.12507306E+02   0.12507306E+02
   0.04950   0.65002569E+00   0.12371107E+02   0.12371107E+02
   0.05941   0.67723357E+00   0.12346043E+02   0.12346043E+02
   0.06931   0.70275258E+00   0.12443363E+02   0.12443363E+02
   0.07921   0.72701620E+00   0.12676204E+02   0.12676204E+02
   0.08911   0.75053638E+00   0.13059809E+02   0.13059809E+02
   0.09901   0.77382029E+00   0.13609428E+02   0.13609428E+02
   0.10891   0.79724309E+00   0.14333980E+02   0.14333980E+02
   0.11881   0.82083091E+00   0.15222658E+02   0.15222658E+02
   0.12871   0.84392712E+00   0.16222499E+02   0.16222499E+02
   0.13861   0.86483261E+00   0.17212243E+02   0.17212243E+02
   0.14851   0.88077104E+00   0.17995379E+02   0.17995379E+02
   0.15842   0.88870749E+00   0.18349538E+02   0.18349538E+02
   0.16832   0.88699992E+00   0.18136190E+02   0.18136190E+02
   0.17822   0.87662252E+00   0.17390036E+02   0.17390036E+02
   0.18812   0.86064122E+00   0.16294375E+02   0.16294375E+02
   0.19802   0.84248666E+00   0.15069639E+02   0.15069639E+02
   0.20792   0.82464056E+00   0.13881955E+02   0.13881955E+02
   0.21782   0.80836464E+00   0.12819398E+02   0.12819398E+02
   0.22772   0.79403404E+00   0.11910667E+02   0.11910667E+02
   0.23762   0.78155202E+00   0.11151525E+02   0.11151525E+02
   0.24752   0.77063581E+00   0.10523897E+02   0.10523897E+02
   0.25743   0.76096722E+00   0.10006324E+02   0.10006324E+02
   0.26733   0.75225676E+00   0.95786661E+01   0.95786661E+01
   0.27723   0.74426337E+00   0.92237251E+01   0.92237251E+01
   0.28713   0.73679446E+00   0.89274713E+01   0.89274713E+01
   0.29703   0.72969856E+00   0.86787261E+01   0.86787261E+01
   0.30693   0.72285552E+00   0.84687158E+01   0.84687158E+01
   0.31683   0.71616351E+00   0.82907198E+01   0.82907198E+01
   0.32673   0.70949646E+00   0.81405060E+01   0.81405060E+01
   0.33663   0.70298735E+00   0.83759278E+01   0.83759278E+01
   0.34653   0.69676104E+00   0.84714715E+01   0.84714715E+01
   0.35644   0.69051489E+00   0.85188997E+01   0.85188997E+01
   0.36634   0.68423544E+00   0.85500086E+01   0.85500086E+01
   0.37624   0.67790968E+00   0.85740768E+01   0.85740768E+01
   0.38614   0.67152757E+00   0.85949261E+01   0.85949261E+01
   0.39604   0.66508181E+00   0.86143678E+01   0.86143678E+01
   0.40594   0.65856736E+00   0.86333189E+01   0.86333189E+01
   0.41584   0.65198101E+00   0.86522542E+01   0.86522542E+01
   0.42574   0.64532096E+00   0.86714160E+01   0.86714160E+01
   0.43564   0.63858654E+00   0.86909192E+01   0.86909192E+01
   0.44554   0.63177801E+00   0.87108083E+01   0.87108083E+01
   0.45545   0.62489632E+00   0.87310894E+01   0.87310894E+01
   0.46535   0.61794298E+00   0.87517480E+01   0.87517480E+01
   0.47525   0.61091993E+00   0.87727604E+01   0.87727604E+01
   0.48515   0.60382943E+00   0.87941002E+01   0.87941002E+01
   0.49505   0.59667391E+00   0.88157429E+01   0.88157429E+01
 
# k-point:     4
# k  =  0.192166,   0.192166,   0.000000, w=   0.250000
# kb =  0.500000,   0.500000,   0.000000, w=   0.250000
  -0.49505   0.76442971E+00   0.55172172E+01   0.55172172E+01
  -0.48515   0.77232878E+00   0.55222333E+01   0.55222333E+01
  -0.47525   0.78014382E+00   0.55275458E+01   0.55275458E+01
  -0.46535   0.78786367E+00   0.55331801E+01   0.55331801E+01
  -0.45545   0.79547703E+00   0.55391689E+01   0.55391689E+01
  -0.44554   0.80297243E+00   0.55455535E+01   0.55455535E+01
  -0.43564   0.81033817E+00   0.55523852E+01   0.55523852E+01
  -0.42574   0.81756232E+00   0.55597278E+01   0.55597278E+01
  -0.41584   0.82463256E+00   0.55676607E+01   0.55676607E+01
  -0.40594   0.83153610E+00   0.55762827E+01   0.55762827E+01
  -0.39604   0.83825942E+00   0.55857181E+01   0.55857181E+01
  -0.38614   0.84478800E+00   0.55961244E+01   0.55961244E+01
  -0.37624   0.85110583E+00   0.56077042E+01   0.56077042E+01
  -0.36634   0.85719469E+00   0.56207233E+01   0.56207233E+01
  -0.35644   0.86303298E+00   0.56355380E+01   0.56355380E+01
  -0.34653   0.86859385E+00   0.56526417E+01   0.56526417E+01
  -0.33663   0.87384187E+00   0.56727447E+01   0.56727447E+01
  -0.32673   0.87872684E+00   0.56969253E+01   0.56969253E+01
  -0.31683   0.88317108E+00   0.57269434E+01   0.57269434E+01
  -0.30693   0.88703916E+00   0.57659954E+01   0.57659954E+01
  -0.29703   0.89004837E+00   0.58209867E+01   0.58209867E+01
  -0.28713   0.89135897E+00   0.59131795E+01   0.59131795E+01
  -0.27723   0.87753491E+00   0.78557950E+01   0.78557950E+01
  -0.26733   0.87297415E+00   0.99666017E+01   0.99666017E+01
  -0.25743   0.87332851E+00   0.11059962E+02   0.11059962E+02
  -0.24752   0.87525304E+00   0.11815551E+02   0.11815551E+02
  -0.23762   0.87799302E+00   0.12384583E+02   0.12384583E+02
  -0.22772   0.88121719E+00   0.12832714E+02   0.12832714E+02
  -0.21782   0.88474128E+00   0.13195818E+02   0.13195818E+02
  -0.20792   0.88844797E+00   0.13496087E+02   0.13496087E+02
  -0.19802   0.89225541E+00   0.13748369E+02   0.13748369E+02
  -0.18812   0.89610233E+00   0.13963151E+02   0.13963151E+02
  -0.17822   0.89994014E+00   0.14148146E+02   0.14148146E+02
  -0.16832   0.90372820E+00   0.14309205E+02   0.14309205E+02
  -0.15842   0.90743078E+00   0.14450892E+02   0.14450892E+02
  -0.14851   0.91101490E+00   0.14576849E+02   0.14576849E+02
  -0.13861   0.91444845E+00   0.14690056E+02   0.14690056E+02
  -0.12871   0.91769848E+00   0.14793017E+02   0.14793017E+02
  -0.11881   0.92072912E+00   0.14887909E+02   0.14887909E+02
  -0.10891   0.92349897E+00   0.14976708E+02   0.14976708E+02
  -0.09901   0.92595697E+00   0.15061325E+02   0.15061325E+02
  -0.08911   0.92803581E+00   0.15143770E+02   0.15143770E+02
  -0.07921   0.92963970E+00   0.15226401E+02   0.15226401E+02
  -0.06931   0.93062005E+00   0.15312401E+02   0.15312401E+02
  -0.05941   0.93071915E+00   0.15406818E+02   0.15406818E+02
  -0.04950   0.92941235E+00   0.15519516E+02   0.15519516E+02
  -0.03960   0.92527775E+00   0.15677093E+02   0.15677093E+02
  -0.02970   0.90781702E+00   0.16087761E+02   0.16087761E+02
  -0.01980   0.89908434E+00   0.20749530E+02   0.20749530E+02
  -0.00990   0.90511198E+00   0.22221233E+02   0.22221233E+02
  -0.00000   0.91167537E+00   0.23121969E+02   0.23121969E+02
   0.00990   0.91833497E+00   0.23743417E+02   0.23743417E+02
   0.01980   0.92494774E+00   0.24198397E+02   0.24198397E+02
   0.02970   0.93144972E+00   0.24544262E+02   0.24544262E+02
   0.03960   0.93780541E+00   0.24814402E+02   0.24814402E+02
   0.04950   0.94399095E+00   0.25029922E+02   0.25029922E+02
   0.05941   0.94998741E+00   0.25204915E+02   0.25204915E+02
   0.06931   0.95577776E+00   0.25349166E+02   0.25349166E+02
   0.07921   0.96134543E+00   0.25469673E+02   0.25469673E+02
   0.08911   0.96667361E+00   0.25571550E+02   0.25571550E+02
   0.09901   0.97174485E+00   0.25658601E+02   0.25658601E+02
   0.10891   0.97654090E+00   0.25733692E+02   0.25733692E+02
   0.11881   0.98104267E+00   0.25799003E+02   0.25799003E+02
   0.12871   0.98523018E+00   0.25856202E+02   0.25856202E+02
   0.13861   0.98908263E+00   0.25906573E+02   0.25906573E+02
   0.14851   0.99257845E+00   0.25951102E+02   0.25951102E+02
   0.15842   0.99569539E+00   0.25990548E+02   0.25990548E+02
   0.16832   0.99841066E+00   0.26025488E+02   0.26025488E+02
   0.17822   0.10007010E+01   0.26056363E+02   0.26056363E+02
   0.18812   0.10025429E+01   0.26083476E+02   0.26083476E+02
   0.19802   0.10039127E+01   0.26107088E+02   0.26107088E+02
   0.20792   0.10047867E+01   0.26127348E+02   0.26127348E+02
   0.21782   0.10051416E+01   0.26144359E+02   0.26144359E+02
   0.22772   0.10049545E+01   0.26158180E+02   0.26158180E+02
   0.23762   0.10042032E+01   0.26168828E+02   0.26168828E+02
   0.24752   0.10028663E+01   0.26176295E+02   0.26176295E+02
   0.25743   0.10009237E+01   0.26180545E+02   0.26180545E+02
   0.26733   0.99835664E+00   0.26181529E+02   0.26181529E+02
   0.27723   0.99514814E+00   0.26179179E+02   0.26179179E+02
   0.28713   0.99128307E+00   0.26173420E+02   0.26173420E+02
   0.29703   0.98674856E+00   0.26164169E+02   0.26164169E+02
   0.30693   0.98153416E+00   0.26151341E+02   0.26151341E+02
   0.31683   0.97563213E+00   0.26134848E+02   0.26134848E+02
   0.32673   0.96903766E+00   0.26114601E+02   0.26114601E+02
   0.33663   0.96174905E+00   0.26090516E+02   0.26090516E+02
   0.34653   0.95376789E+00   0.26062513E+02   0.26062513E+02
   0.35644   0.94509921E+00   0.26030515E+02   0.26030515E+02
   0.36634   0.93575159E+00   0.25994455E+02   0.25994455E+02
   0.37624   0.92573721E+00   0.25954270E+02   0.25954270E+02
   0.38614   0.91507188E+00   0.25909910E+02   0.25909910E+02
   0.39604   0.90377505E+00   0.25861329E+02   0.25861329E+02
   0.40594   0.89186968E+00   0.25808495E+02   0.25808495E+02
   0.41584   0.87938218E+00   0.25751385E+02   0.25751385E+02
   0.42574   0.86634219E+00   0.25689982E+02   0.25689982E+02
   0.43564   0.85278250E+00   0.25624315E+02   0.25624315E+02
   0.44554   0.83873853E+00   0.25554338E+02   0.25554338E+02
   0.45545   0.82424840E+00   0.25480105E+02   0.25480105E+02
   0.46535   0.80935233E+00   0.25401642E+02   0.25401642E+02
   0.47525   0.79409244E+00   0.25318986E+02   0.25318986E+02
   0.48515   0.77851228E+00   0.25232188E+02   0.25232188E+02
   0.49505   0.76265655E+00   0.25141306E+02   0.25141306E+02
 
 ==============================================================
 Results:
 Voltage, Current(A) =   2.49999733E-01  7.67764690E-06
 ==============================================================
>> End of run:  13-JUN-2018  22:38:13
