<?xml version="1.0" encoding="UTF-8" ?>
<psml version="0.8" energy_unit="hartree" length_unit="bohr">
<provenance creator="ONCVPSP-2.1.2+psml" date="2015-02-18">
<input-file name="oncvpsp-input">
# ATOM AND REFERENCE CONFIGURATION
# atsym  z    nc    nv    iexc   psfile
  Te 52.00     8     3     3      upf
#
#   n    l    f        energy (Ha)
    1    0    2.00
    2    0    2.00
    2    1    6.00
    3    0    2.00
    3    1    6.00
    3    2   10.00
    4    0    2.00
    4    1    6.00
    4    2   10.00
    5    0    2.00
    5    1    4.00
#
# PSEUDOPOTENTIAL AND OPTIMIZATION
# lmax
    2
#
#   l,   rc,     ep,   ncon, nbas, qcut
    0    3.02   -0.56    4    8    4.00
    1    3.13   -0.22    4    8    4.00
    2    2.52   -1.51    4    8    7.00
#
# LOCAL POTENTIAL
# lloc, lpopt,  rc(5),   dvloc0
    4    5      2.52       0.00
#
# VANDERBILT-KLEINMAN-BYLANDER PROJECTORs
# l, nproj, debl
    0    2    1.0000
    1    2    0.9900
    2    2    1.6783
#
# MODEL CORE CHARGE
# icmod, fcfact
    0    0.00
#
# LOG DERIVATIVE ANALYSIS
# epsh1, epsh2, depsh
   -3.00    3.00    0.02
#
# OUTPUT GRID
# rlmax, drl
    6.00    0.01
#
# TEST CONFIGURATIONS
# ncnf
    3
# nvcnf
#   n    l    f
    3
    4    2   10.00
    5    0    2.00
    5    1    3.00
#
    3
    4    2   10.00
    5    0    1.00
    5    1    4.00
#
    3
    4    2   10.00
    5    0    1.00
    5    1    3.00
#
</input-file>
</provenance>
<header atomic-label="Te" atomic-number="52." z-pseudo="16."
 flavor="Hamann's oncvpsp" relativity="dirac" polarized="no"
 core-corrections="no">
<exchange-correlation>
<annotation oncvpsp-xc-code="3" oncvpsp-xc-type="LDA"
 oncvpsp-xc-authors="Ceperley-Alder PZ" />
<libxc-info number-of-functionals="2">
<functional name="XC_LDA_X" type="XC_EXCHANGE" id="1" />
<functional name="XC_LDA_C_PZ" type="XC_CORRELATION" id="9" />
</libxc-info>
</exchange-correlation>
<valence-configuration total-valence-charge="16.">
<shell n="4" l="d" occupation="10." />
<shell n="5" l="s" occupation="2." />
<shell n="5" l="p" occupation="4." />
</valence-configuration>
</header>
<grid npts="1288">
<annotation type="oncvpsp plus r=0" oncvpsp-npts="1287"
 oncvpsp-r1="0.961538461538E-05" oncvpsp-factor="1.01200000000" />
<grid-data>
  0.000000000000E+00  9.615384615385E-06  9.730769230769E-06  9.847538461538E-06
  9.965708923077E-06  1.008529743015E-05  1.020632099932E-05  1.032879685131E-05
  1.045274241352E-05  1.057817532249E-05  1.070511342636E-05  1.083357478747E-05
  1.096357768492E-05  1.109514061714E-05  1.122828230455E-05  1.136302169220E-05
  1.149937795251E-05  1.163737048794E-05  1.177701893379E-05  1.191834316100E-05
  1.206136327893E-05  1.220609963828E-05  1.235257283394E-05  1.250080370794E-05
  1.265081335244E-05  1.280262311267E-05  1.295625459002E-05  1.311172964510E-05
  1.326907040084E-05  1.342829924565E-05  1.358943883660E-05  1.375251210264E-05
  1.391754224787E-05  1.408455275484E-05  1.425356738790E-05  1.442461019656E-05
  1.459770551892E-05  1.477287798514E-05  1.495015252097E-05  1.512955435122E-05
  1.531110900343E-05  1.549484231147E-05  1.568078041921E-05  1.586894978424E-05
  1.605937718165E-05  1.625208970783E-05  1.644711478433E-05  1.664448016174E-05
  1.684421392368E-05  1.704634449076E-05  1.725090062465E-05  1.745791143215E-05
  1.766740636933E-05  1.787941524576E-05  1.809396822871E-05  1.831109584746E-05
  1.853082899763E-05  1.875319894560E-05  1.897823733295E-05  1.920597618094E-05
  1.943644789511E-05  1.966968526985E-05  1.990572149309E-05  2.014459015101E-05
  2.038632523282E-05  2.063096113562E-05  2.087853266924E-05  2.112907506127E-05
  2.138262396201E-05  2.163921544955E-05  2.189888603495E-05  2.216167266737E-05
  2.242761273938E-05  2.269674409225E-05  2.296910502136E-05  2.324473428161E-05
  2.352367109299E-05  2.380595514611E-05  2.409162660786E-05  2.438072612716E-05
  2.467329484068E-05  2.496937437877E-05  2.526900687131E-05  2.557223495377E-05
  2.587910177322E-05  2.618965099449E-05  2.650392680643E-05  2.682197392811E-05
  2.714383761524E-05  2.746956366663E-05  2.779919843062E-05  2.813278881179E-05
  2.847038227753E-05  2.881202686486E-05  2.915777118724E-05  2.950766444149E-05
  2.986175641479E-05  3.022009749176E-05  3.058273866167E-05  3.094973152561E-05
  3.132112830391E-05  3.169698184356E-05  3.207734562568E-05  3.246227377319E-05
  3.285182105847E-05  3.324604291117E-05  3.364499542610E-05  3.404873537122E-05
  3.445732019567E-05  3.487080803802E-05  3.528925773448E-05  3.571272882729E-05
  3.614128157322E-05  3.657497695210E-05  3.701387667552E-05  3.745804319563E-05
  3.790753971398E-05  3.836243019054E-05  3.882277935283E-05  3.928865270506E-05
  3.976011653752E-05  4.023723793598E-05  4.072008479121E-05  4.120872580870E-05
  4.170323051841E-05  4.220366928463E-05  4.271011331604E-05  4.322263467583E-05
  4.374130629194E-05  4.426620196745E-05  4.479739639106E-05  4.533496514775E-05
  4.587898472952E-05  4.642953254628E-05  4.698668693683E-05  4.755052718007E-05
  4.812113350624E-05  4.869858710831E-05  4.928297015361E-05  4.987436579545E-05
  5.047285818500E-05  5.107853248322E-05  5.169147487302E-05  5.231177257149E-05
  5.293951384235E-05  5.357478800846E-05  5.421768546456E-05  5.486829769014E-05
  5.552671726242E-05  5.619303786957E-05  5.686735432400E-05  5.754976257589E-05
  5.824035972680E-05  5.893924404352E-05  5.964651497204E-05  6.036227315171E-05
  6.108662042953E-05  6.181965987468E-05  6.256149579318E-05  6.331223374270E-05
  6.407198054761E-05  6.484084431418E-05  6.561893444595E-05  6.640636165930E-05
  6.720323799922E-05  6.800967685521E-05  6.882579297747E-05  6.965170249320E-05
  7.048752292312E-05  7.133337319819E-05  7.218937367657E-05  7.305564616069E-05
  7.393231391462E-05  7.481950168159E-05  7.571733570177E-05  7.662594373019E-05
  7.754545505496E-05  7.847600051562E-05  7.941771252180E-05  8.037072507207E-05
  8.133517377293E-05  8.231119585821E-05  8.329893020850E-05  8.429851737101E-05
  8.531009957946E-05  8.633382077441E-05  8.736982662370E-05  8.841826454319E-05
  8.947928371771E-05  9.055303512232E-05  9.163967154379E-05  9.273934760231E-05
  9.385221977354E-05  9.497844641082E-05  9.611818776775E-05  9.727160602097E-05
  9.843886529322E-05  9.962013167674E-05  1.008155732569E-04  1.020253601359E-04
  1.032496644576E-04  1.044886604311E-04  1.057425243562E-04  1.070114346485E-04
  1.082955718643E-04  1.095951187267E-04  1.109102601514E-04  1.122411832732E-04
  1.135880774725E-04  1.149511344021E-04  1.163305480150E-04  1.177265145912E-04
  1.191392327662E-04  1.205689035594E-04  1.220157304022E-04  1.234799191670E-04
  1.249616781970E-04  1.264612183353E-04  1.279787529554E-04  1.295144979908E-04
  1.310686719667E-04  1.326414960303E-04  1.342331939827E-04  1.358439923105E-04
  1.374741202182E-04  1.391238096608E-04  1.407932953768E-04  1.424828149213E-04
  1.441926087003E-04  1.459229200047E-04  1.476739950448E-04  1.494460829853E-04
  1.512394359812E-04  1.530543092129E-04  1.548909609235E-04  1.567496524546E-04
  1.586306482840E-04  1.605342160634E-04  1.624606266562E-04  1.644101541761E-04
  1.663830760262E-04  1.683796729385E-04  1.704002290138E-04  1.724450317619E-04
  1.745143721431E-04  1.766085446088E-04  1.787278471441E-04  1.808725813098E-04
  1.830430522855E-04  1.852395689130E-04  1.874624437399E-04  1.897119930648E-04
  1.919885369816E-04  1.942923994254E-04  1.966239082185E-04  1.989833951171E-04
  2.013711958585E-04  2.037876502088E-04  2.062331020113E-04  2.087078992354E-04
  2.112123940262E-04  2.137469427546E-04  2.163119060676E-04  2.189076489404E-04
  2.215345407277E-04  2.241929552164E-04  2.268832706790E-04  2.296058699272E-04
  2.323611403663E-04  2.351494740507E-04  2.379712677393E-04  2.408269229522E-04
  2.437168460276E-04  2.466414481800E-04  2.496011455581E-04  2.525963593048E-04
  2.556275156165E-04  2.586950458039E-04  2.617993863535E-04  2.649409789898E-04
  2.681202707376E-04  2.713377139865E-04  2.745937665543E-04  2.778888917530E-04
  2.812235584540E-04  2.845982411555E-04  2.880134200493E-04  2.914695810899E-04
  2.949672160630E-04  2.985068226557E-04  3.020889045276E-04  3.057139713819E-04
  3.093825390385E-04  3.130951295070E-04  3.168522710611E-04  3.206544983138E-04
  3.245023522936E-04  3.283963805211E-04  3.323371370874E-04  3.363251827324E-04
  3.403610849252E-04  3.444454179443E-04  3.485787629596E-04  3.527617081151E-04
  3.569948486125E-04  3.612787867959E-04  3.656141322374E-04  3.700015018243E-04
  3.744415198462E-04  3.789348180843E-04  3.834820359013E-04  3.880838203321E-04
  3.927408261761E-04  3.974537160902E-04  4.022231606833E-04  4.070498386115E-04
  4.119344366749E-04  4.168776499150E-04  4.218801817139E-04  4.269427438945E-04
  4.320660568212E-04  4.372508495031E-04  4.424978596971E-04  4.478078340135E-04
  4.531815280217E-04  4.586197063579E-04  4.641231428342E-04  4.696926205482E-04
  4.753289319948E-04  4.810328791787E-04  4.868052737289E-04  4.926469370136E-04
  4.985587002578E-04  5.045414046609E-04  5.105959015168E-04  5.167230523350E-04
  5.229237289630E-04  5.291988137106E-04  5.355491994751E-04  5.419757898688E-04
  5.484794993473E-04  5.550612533394E-04  5.617219883795E-04  5.684626522401E-04
  5.752842040669E-04  5.821876145157E-04  5.891738658899E-04  5.962439522806E-04
  6.033988797080E-04  6.106396662645E-04  6.179673422596E-04  6.253829503668E-04
  6.328875457712E-04  6.404821963204E-04  6.481679826763E-04  6.559459984684E-04
  6.638173504500E-04  6.717831586554E-04  6.798445565593E-04  6.880026912380E-04
  6.962587235328E-04  7.046138282152E-04  7.130691941538E-04  7.216260244836E-04
  7.302855367775E-04  7.390489632188E-04  7.479175507774E-04  7.568925613867E-04
  7.659752721234E-04  7.751669753889E-04  7.844689790935E-04  7.938826068426E-04
  8.034091981248E-04  8.130501085023E-04  8.228067098043E-04  8.326803903219E-04
  8.426725550058E-04  8.527846256659E-04  8.630180411739E-04  8.733742576679E-04
  8.838547487600E-04  8.944610057451E-04  9.051945378140E-04  9.160568722678E-04
  9.270495547350E-04  9.381741493918E-04  9.494322391845E-04  9.608254260547E-04
  9.723553311674E-04  9.840235951414E-04  9.958318782831E-04  1.007781860822E-03
  1.019875243152E-03  1.032113746070E-03  1.044499111023E-03  1.057033100355E-03
  1.069717497560E-03  1.082554107530E-03  1.095544756821E-03  1.108691293903E-03
  1.121995589429E-03  1.135459536502E-03  1.149085050941E-03  1.162874071552E-03
  1.176828560410E-03  1.190950503135E-03  1.205241909173E-03  1.219704812083E-03
  1.234341269828E-03  1.249153365066E-03  1.264143205447E-03  1.279312923912E-03
  1.294664678999E-03  1.310200655147E-03  1.325923063009E-03  1.341834139765E-03
  1.357936149442E-03  1.374231383235E-03  1.390722159834E-03  1.407410825752E-03
  1.424299755661E-03  1.441391352729E-03  1.458688048962E-03  1.476192305550E-03
  1.493906613216E-03  1.511833492575E-03  1.529975494486E-03  1.548335200419E-03
  1.566915222824E-03  1.585718205498E-03  1.604746823964E-03  1.624003785852E-03
  1.643491831282E-03  1.663213733258E-03  1.683172298057E-03  1.703370365633E-03
  1.723810810021E-03  1.744496539741E-03  1.765430498218E-03  1.786615664197E-03
  1.808055052167E-03  1.829751712793E-03  1.851708733347E-03  1.873929238147E-03
  1.896416389004E-03  1.919173385672E-03  1.942203466301E-03  1.965509907896E-03
  1.989096026791E-03  2.012965179112E-03  2.037120761262E-03  2.061566210397E-03
  2.086305004922E-03  2.111340664981E-03  2.136676752961E-03  2.162316873996E-03
  2.188264676484E-03  2.214523852602E-03  2.241098138833E-03  2.267991316499E-03
  2.295207212297E-03  2.322749698845E-03  2.350622695231E-03  2.378830167573E-03
  2.407376129584E-03  2.436264643139E-03  2.465499818857E-03  2.495085816683E-03
  2.525026846484E-03  2.555327168641E-03  2.585991094665E-03  2.617022987801E-03
  2.648427263655E-03  2.680208390818E-03  2.712370891508E-03  2.744919342206E-03
  2.777858374313E-03  2.811192674805E-03  2.844926986902E-03  2.879066110745E-03
  2.913614904074E-03  2.948578282923E-03  2.983961222318E-03  3.019768756986E-03
  3.056005982070E-03  3.092678053854E-03  3.129790190501E-03  3.167347672787E-03
  3.205355844860E-03  3.243820114999E-03  3.282745956378E-03  3.322138907855E-03
  3.362004574749E-03  3.402348629646E-03  3.443176813202E-03  3.484494934960E-03
  3.526308874180E-03  3.568624580670E-03  3.611448075638E-03  3.654785452546E-03
  3.698642877976E-03  3.743026592512E-03  3.787942911622E-03  3.833398226562E-03
  3.879399005280E-03  3.925951793344E-03  3.973063214864E-03  4.020739973442E-03
  4.068988853124E-03  4.117816719361E-03  4.167230519993E-03  4.217237286233E-03
  4.267844133668E-03  4.319058263272E-03  4.370886962431E-03  4.423337605981E-03
  4.476417657252E-03  4.530134669139E-03  4.584496285169E-03  4.639510240591E-03
  4.695184363478E-03  4.751526575840E-03  4.808544894750E-03  4.866247433487E-03
  4.924642402689E-03  4.983738111521E-03  5.043542968859E-03  5.104065484486E-03
  5.165314270300E-03  5.227298041543E-03  5.290025618042E-03  5.353505925458E-03
  5.417747996564E-03  5.482760972522E-03  5.548554104193E-03  5.615136753443E-03
  5.682518394484E-03  5.750708615218E-03  5.819717118601E-03  5.889553724024E-03
  5.960228368712E-03  6.031751109137E-03  6.104132122446E-03  6.177381707916E-03
  6.251510288411E-03  6.326528411872E-03  6.402446752814E-03  6.479276113848E-03
  6.557027427214E-03  6.635711756341E-03  6.715340297417E-03  6.795924380986E-03
  6.877475473558E-03  6.960005179240E-03  7.043525241391E-03  7.128047544288E-03
  7.213584114819E-03  7.300147124197E-03  7.387748889688E-03  7.476401876364E-03
  7.566118698880E-03  7.656912123267E-03  7.748795068746E-03  7.841780609571E-03
  7.935881976886E-03  8.031112560608E-03  8.127485911336E-03  8.225015742272E-03
  8.323715931179E-03  8.423600522353E-03  8.524683728621E-03  8.626979933365E-03
  8.730503692565E-03  8.835269736876E-03  8.941292973718E-03  9.048588489403E-03
  9.157171551276E-03  9.267057609891E-03  9.378262301210E-03  9.490801448824E-03
  9.604691066210E-03  9.719947359005E-03  9.836586727313E-03  9.954625768041E-03
  1.007408127726E-02  1.019497025258E-02  1.031730989562E-02  1.044111761436E-02
  1.056641102573E-02  1.069320795804E-02  1.082152645354E-02  1.095138477098E-02
  1.108280138823E-02  1.121579500489E-02  1.135038454495E-02  1.148658915949E-02
  1.162442822941E-02  1.176392136816E-02  1.190508842458E-02  1.204794948567E-02
  1.219252487950E-02  1.233883517805E-02  1.248690120019E-02  1.263674401459E-02
  1.278838494277E-02  1.294184556208E-02  1.309714770883E-02  1.325431348133E-02
  1.341336524311E-02  1.357432562602E-02  1.373721753354E-02  1.390206414394E-02
  1.406888891367E-02  1.423771558063E-02  1.440856816760E-02  1.458147098561E-02
  1.475644863744E-02  1.493352602109E-02  1.511272833334E-02  1.529408107334E-02
  1.547761004622E-02  1.566334136677E-02  1.585130146317E-02  1.604151708073E-02
  1.623401528570E-02  1.642882346913E-02  1.662596935076E-02  1.682548098297E-02
  1.702738675476E-02  1.723171539582E-02  1.743849598057E-02  1.764775793234E-02
  1.785953102753E-02  1.807384539986E-02  1.829073154466E-02  1.851022032319E-02
  1.873234296707E-02  1.895713108267E-02  1.918461665567E-02  1.941483205553E-02
  1.964781004020E-02  1.988358376068E-02  2.012218676581E-02  2.036365300700E-02
  2.060801684308E-02  2.085531304520E-02  2.110557680174E-02  2.135884372337E-02
  2.161514984805E-02  2.187453164622E-02  2.213702602598E-02  2.240267033829E-02
  2.267150238235E-02  2.294356041094E-02  2.321888313587E-02  2.349750973350E-02
  2.377947985030E-02  2.406483360850E-02  2.435361161181E-02  2.464585495115E-02
  2.494160521056E-02  2.524090447309E-02  2.554379532676E-02  2.585032087069E-02
  2.616052472113E-02  2.647445101779E-02  2.679214443000E-02  2.711365016316E-02
  2.743901396512E-02  2.776828213270E-02  2.810150151829E-02  2.843871953651E-02
  2.877998417095E-02  2.912534398100E-02  2.947484810877E-02  2.982854628608E-02
  3.018648884151E-02  3.054872670761E-02  3.091531142810E-02  3.128629516524E-02
  3.166173070722E-02  3.204167147571E-02  3.242617153342E-02  3.281528559182E-02
  3.320906901892E-02  3.360757784715E-02  3.401086878131E-02  3.441899920669E-02
  3.483202719717E-02  3.525001152353E-02  3.567301166182E-02  3.610108780176E-02
  3.653430085538E-02  3.697271246564E-02  3.741638501523E-02  3.786538163542E-02
  3.831976621504E-02  3.877960340962E-02  3.924495865054E-02  3.971589815434E-02
  4.019248893219E-02  4.067479879938E-02  4.116289638497E-02  4.165685114159E-02
  4.215673335529E-02  4.266261415556E-02  4.317456552542E-02  4.369266031173E-02
  4.421697223547E-02  4.474757590229E-02  4.528454681312E-02  4.582796137488E-02
  4.637789691138E-02  4.693443167431E-02  4.749764485441E-02  4.806761659266E-02
  4.864442799177E-02  4.922816112767E-02  4.981889906120E-02  5.041672584994E-02
  5.102172656014E-02  5.163398727886E-02  5.225359512621E-02  5.288063826772E-02
  5.351520592693E-02  5.415738839806E-02  5.480727705883E-02  5.546496438354E-02
  5.613054395614E-02  5.680411048361E-02  5.748575980942E-02  5.817558892713E-02
  5.887369599426E-02  5.958018034619E-02  6.029514251034E-02  6.101868422047E-02
  6.175090843111E-02  6.249191933228E-02  6.324182236427E-02  6.400072423264E-02
  6.476873292344E-02  6.554595771852E-02  6.633250921114E-02  6.712849932167E-02
  6.793404131353E-02  6.874924980929E-02  6.957424080701E-02  7.040913169669E-02
  7.125404127705E-02  7.210908977238E-02  7.297439884964E-02  7.385009163584E-02
  7.473629273547E-02  7.563312824830E-02  7.654072578727E-02  7.745921449672E-02
  7.838872507068E-02  7.932938977153E-02  8.028134244879E-02  8.124471855817E-02
  8.221965518087E-02  8.320629104304E-02  8.420476653556E-02  8.521522373399E-02
  8.623780641879E-02  8.727266009582E-02  8.831993201697E-02  8.937977120117E-02
  9.045232845559E-02  9.153775639705E-02  9.263620947382E-02  9.374784398751E-02
  9.487281811536E-02  9.601129193274E-02  9.716342743593E-02  9.832938856516E-02
  9.950934122795E-02  1.007034533227E-01  1.019118947626E-01  1.031348374997E-01
  1.043724555497E-01  1.056249250163E-01  1.068924241165E-01  1.081751332059E-01
  1.094732348044E-01  1.107869136220E-01  1.121163565855E-01  1.134617528645E-01
  1.148232938989E-01  1.162011734257E-01  1.175955875068E-01  1.190067345569E-01
  1.204348153715E-01  1.218800331560E-01  1.233425935539E-01  1.248227046765E-01
  1.263205771326E-01  1.278364240582E-01  1.293704611469E-01  1.309229066807E-01
  1.324939815609E-01  1.340839093396E-01  1.356929162517E-01  1.373212312467E-01
  1.389690860216E-01  1.406367150539E-01  1.423243556345E-01  1.440322479022E-01
  1.457606348770E-01  1.475097624955E-01  1.492798796455E-01  1.510712382012E-01
  1.528840930596E-01  1.547187021763E-01  1.565753266024E-01  1.584542305217E-01
  1.603556812879E-01  1.622799494634E-01  1.642273088569E-01  1.661980365632E-01
  1.681924130020E-01  1.702107219580E-01  1.722532506215E-01  1.743202896290E-01
  1.764121331045E-01  1.785290787018E-01  1.806714276462E-01  1.828394847779E-01
  1.850335585953E-01  1.872539612984E-01  1.895010088340E-01  1.917750209400E-01
  1.940763211913E-01  1.964052370456E-01  1.987620998901E-01  2.011472450888E-01
  2.035610120299E-01  2.060037441742E-01  2.084757891043E-01  2.109774985736E-01
  2.135092285565E-01  2.160713392991E-01  2.186641953707E-01  2.212881657152E-01
  2.239436237038E-01  2.266309471882E-01  2.293505185545E-01  2.321027247771E-01
  2.348879574745E-01  2.377066129641E-01  2.405590923197E-01  2.434458014276E-01
  2.463671510447E-01  2.493235568572E-01  2.523154395395E-01  2.553432248140E-01
  2.584073435117E-01  2.615082316339E-01  2.646463304135E-01  2.678220863785E-01
  2.710359514150E-01  2.742883828320E-01  2.775798434260E-01  2.809108015471E-01
  2.842817311656E-01  2.876931119396E-01  2.911454292829E-01  2.946391744343E-01
  2.981748445275E-01  3.017529426618E-01  3.053739779738E-01  3.090384657095E-01
  3.127469272980E-01  3.164998904256E-01  3.202978891107E-01  3.241414637800E-01
  3.280311613453E-01  3.319675352815E-01  3.359511457049E-01  3.399825594533E-01
  3.440623501668E-01  3.481910983688E-01  3.523693915492E-01  3.565978242478E-01
  3.608769981388E-01  3.652075221164E-01  3.695900123818E-01  3.740250925304E-01
  3.785133936408E-01  3.830555543645E-01  3.876522210168E-01  3.923040476690E-01
  3.970116962411E-01  4.017758365960E-01  4.065971466351E-01  4.114763123947E-01
  4.164140281435E-01  4.214109964812E-01  4.264679284390E-01  4.315855435802E-01
  4.367645701032E-01  4.420057449444E-01  4.473098138838E-01  4.526775316504E-01
  4.581096620302E-01  4.636069779745E-01  4.691702617102E-01  4.748003048508E-01
  4.804979085090E-01  4.862638834111E-01  4.920990500120E-01  4.980042386121E-01
  5.039802894755E-01  5.100280529492E-01  5.161483895846E-01  5.223421702596E-01
  5.286102763027E-01  5.349535996183E-01  5.413730428138E-01  5.478695193275E-01
  5.544439535595E-01  5.610972810022E-01  5.678304483742E-01  5.746444137547E-01
  5.815401467198E-01  5.885186284804E-01  5.955808520222E-01  6.027278222464E-01
  6.099605561134E-01  6.172800827867E-01  6.246874437802E-01  6.321836931055E-01
  6.397698974228E-01  6.474471361919E-01  6.552165018262E-01  6.630790998481E-01
  6.710360490463E-01  6.790884816348E-01  6.872375434144E-01  6.954843939354E-01
  7.038302066626E-01  7.122761691426E-01  7.208234831723E-01  7.294733649704E-01
  7.382270453500E-01  7.470857698942E-01  7.560507991330E-01  7.651234087225E-01
  7.743048896272E-01  7.835965483027E-01  7.929997068824E-01  8.025157033650E-01
  8.121458918053E-01  8.218916425070E-01  8.317543422171E-01  8.417353943237E-01
  8.518362190556E-01  8.620582536842E-01  8.724029527285E-01  8.828717881612E-01
  8.934662496191E-01  9.041878446146E-01  9.150380987499E-01  9.260185559349E-01
  9.371307786062E-01  9.483763479494E-01  9.597568641248E-01  9.712739464943E-01
  9.829292338523E-01  9.947243846585E-01  1.006661077274E+00  1.018741010202E+00
  1.030965902324E+00  1.043337493152E+00  1.055857543070E+00  1.068527833587E+00
  1.081350167590E+00  1.094326369601E+00  1.107458286036E+00  1.120747785468E+00
  1.134196758894E+00  1.147807120001E+00  1.161580805441E+00  1.175519775106E+00
  1.189626012407E+00  1.203901524556E+00  1.218348342851E+00  1.232968522965E+00
  1.247764145241E+00  1.262737314984E+00  1.277890162763E+00  1.293224844717E+00
  1.308743542853E+00  1.324448465367E+00  1.340341846952E+00  1.356425949115E+00
  1.372703060505E+00  1.389175497231E+00  1.405845603197E+00  1.422715750436E+00
  1.439788339441E+00  1.457065799514E+00  1.474550589108E+00  1.492245196178E+00
  1.510152138532E+00  1.528273964194E+00  1.546613251765E+00  1.565172610786E+00
  1.583954682115E+00  1.602962138301E+00  1.622197683960E+00  1.641664056168E+00
  1.661364024842E+00  1.681300393140E+00  1.701475997858E+00  1.721893709832E+00
  1.742556434350E+00  1.763467111562E+00  1.784628716901E+00  1.806044261504E+00
  1.827716792642E+00  1.849649394153E+00  1.871845186883E+00  1.894307329126E+00
  1.917039017075E+00  1.940043485280E+00  1.963324007103E+00  1.986883895189E+00
  2.010726501931E+00  2.034855219954E+00  2.059273482594E+00  2.083984764385E+00
  2.108992581557E+00  2.134300492536E+00  2.159912098446E+00  2.185831043628E+00
  2.212061016151E+00  2.238605748345E+00  2.265469017325E+00  2.292654645533E+00
  2.320166501280E+00  2.348008499295E+00  2.376184601287E+00  2.404698816502E+00
  2.433555202300E+00  2.462757864728E+00  2.492310959104E+00  2.522218690614E+00
  2.552485314901E+00  2.583115138680E+00  2.614112520344E+00  2.645481870588E+00
  2.677227653035E+00  2.709354384872E+00  2.741866637490E+00  2.774769037140E+00
  2.808066265586E+00  2.841763060773E+00  2.875864217502E+00  2.910374588112E+00
  2.945299083169E+00  2.980642672167E+00  3.016410384233E+00  3.052607308844E+00
  3.089238596550E+00  3.126309459709E+00  3.163825173225E+00  3.201791075304E+00
  3.240212568208E+00  3.279095119026E+00  3.318444260454E+00  3.358265591580E+00
  3.398564778679E+00  3.439347556023E+00  3.480619726695E+00  3.522387163416E+00
  3.564655809377E+00  3.607431679089E+00  3.650720859238E+00  3.694529509549E+00
  3.738863863664E+00  3.783730230028E+00  3.829134992788E+00  3.875084612701E+00
  3.921585628054E+00  3.968644655590E+00  4.016268391458E+00  4.064463612155E+00
  4.113237175501E+00  4.162596021607E+00  4.212547173866E+00  4.263097739953E+00
  4.314254912832E+00  4.366025971786E+00  4.418418283447E+00  4.471439302849E+00
  4.525096574483E+00  4.579397733377E+00  4.634350506177E+00  4.689962712251E+00
  4.746242264798E+00  4.803197171976E+00  4.860835538040E+00  4.919165564496E+00
  4.978195551270E+00  5.037933897885E+00  5.098389104660E+00  5.159569773916E+00
  5.221484611203E+00  5.284142426537E+00  5.347552135656E+00  5.411722761284E+00
  5.476663434419E+00  5.542383395632E+00  5.608891996380E+00  5.676198700336E+00
  5.744313084740E+00  5.813244841757E+00  5.883003779858E+00  5.953599825217E+00
  6.025043023119E+00  6.097343539397E+00  6.170511661869E+00  6.244557801812E+00
  6.319492495433E+00  6.395326405379E+00  6.472070322243E+00  6.549735166110E+00
  6.628331988103E+00  6.707871971961E+00  6.788366435624E+00  6.869826832852E+00
  6.952264754846E+00  7.035691931904E+00  7.120120235087E+00  7.205561677908E+00
  7.292028418043E+00  7.379532759059E+00  7.468087152168E+00  7.557704197994E+00
  7.648396648370E+00  7.740177408151E+00  7.833059537048E+00  7.927056251493E+00
  8.022180926511E+00  8.118447097629E+00  8.215868462801E+00  8.314458884354E+00
  8.414232390966E+00  8.515203179658E+00  8.617385617814E+00  8.720794245228E+00
  8.825443776170E+00  8.931349101484E+00  9.038525290702E+00  9.146987594191E+00
  9.256751445321E+00  9.367832462665E+00  9.480246452217E+00  9.594009409643E+00
  9.709137522559E+00  9.825647172830E+00  9.943554938904E+00  1.006287759817E+01
  1.018363212935E+01  1.030583571490E+01  1.042950574348E+01  1.055465981240E+01
  1.068131573015E+01  1.080949151891E+01  1.093920541714E+01  1.107047588214E+01
  1.120332159273E+01  1.133776145184E+01  1.147381458927E+01  1.161150036434E+01
  1.175083836871E+01  1.189184842913E+01  1.203455061028E+01  1.217896521761E+01
  1.232511280022E+01  1.247301415382E+01  1.262269032367E+01  1.277416260755E+01
  1.292745255884E+01  1.308258198955E+01  1.323957297342E+01  1.339844784910E+01
  1.355922922329E+01  1.372193997397E+01  1.388660325366E+01  1.405324249270E+01
  1.422188140261E+01  1.439254397945E+01  1.456525450720E+01  1.474003756129E+01
  1.491691801202E+01  1.509592102817E+01  1.527707208050E+01  1.546039694547E+01
  1.564592170882E+01  1.583367276932E+01  1.602367684255E+01  1.621596096466E+01
  1.641055249624E+01  1.660747912619E+01  1.680676887571E+01  1.700845010222E+01
  1.721255150344E+01  1.741910212148E+01  1.762813134694E+01  1.783966892311E+01
  1.805374495018E+01  1.827038988959E+01  1.848963456826E+01  1.871151018308E+01
  1.893604830528E+01  1.916328088494E+01  1.939324025556E+01  1.962595913863E+01
  1.986147064829E+01  2.009980829607E+01  2.034100599562E+01  2.058509806757E+01
  2.083211924438E+01  2.108210467531E+01  2.133508993142E+01  2.159111101059E+01
  2.185020434272E+01  2.211240679483E+01  2.237775567637E+01  2.264628874449E+01
  2.291804420942E+01  2.319306073993E+01  2.347137746881E+01  2.375303399844E+01
  2.403807040642E+01  2.432652725130E+01  2.461844557831E+01  2.491386692525E+01
  2.521283332836E+01  2.551538732830E+01  2.582157197624E+01  2.613143083995E+01
  2.644500801003E+01  2.676234810615E+01  2.708349628342E+01  2.740849823883E+01
  2.773740021769E+01  2.807024902030E+01  2.840709200855E+01  2.874797711265E+01
  2.909295283800E+01  2.944206827206E+01  2.979537309132E+01  3.015291756842E+01
  3.051475257924E+01  3.088092961019E+01  3.125150076551E+01  3.162651877470E+01
  3.200603700000E+01  3.239010944400E+01  3.277879075732E+01  3.317213624641E+01
  3.357020188137E+01  3.397304430394E+01  3.438072083559E+01  3.479328948562E+01
  3.521080895945E+01  3.563333866696E+01  3.606093873096E+01  3.649366999573E+01
  3.693159403568E+01  3.737477316411E+01  3.782327044208E+01  3.827714968739E+01
  3.873647548363E+01  3.920131318944E+01  3.967172894771E+01  4.014778969508E+01
  4.062956317142E+01  4.111711792948E+01  4.161052334464E+01  4.210984962477E+01
  4.261516782027E+01  4.312654983411E+01  4.364406843212E+01  4.416779725331E+01

</grid-data>
</grid>
<semilocal-potentials set="lj">
<slps n="5" l="s" j="0.0" rc="3.01641038423" flavor="Hamann's oncvpsp">
<radfunc>
<data>
 -1.096910910387E+01 -1.096911038928E+01 -1.096911040508E+01 -1.096911042070E+01
 -1.096911043613E+01 -1.096911045137E+01 -1.096911046644E+01 -1.096911048133E+01
 -1.096911049604E+01 -1.096911051057E+01 -1.096911052494E+01 -1.096911053913E+01
 -1.096911055316E+01 -1.096911056702E+01 -1.096911058071E+01 -1.096911059425E+01
 -1.096911060762E+01 -1.096911062084E+01 -1.096911063390E+01 -1.096911064680E+01
 -1.096911065955E+01 -1.096911067216E+01 -1.096911068461E+01 -1.096911069691E+01
 -1.096911070907E+01 -1.096911072109E+01 -1.096911073296E+01 -1.096911074470E+01
 -1.096911075629E+01 -1.096911076775E+01 -1.096911077907E+01 -1.096911079026E+01
 -1.096911080132E+01 -1.096911081224E+01 -1.096911082304E+01 -1.096911083371E+01
 -1.096911084425E+01 -1.096911085467E+01 -1.096911086496E+01 -1.096911087514E+01
 -1.096911088519E+01 -1.096911089513E+01 -1.096911090495E+01 -1.096911091465E+01
 -1.096911092424E+01 -1.096911093371E+01 -1.096911094308E+01 -1.096911095233E+01
 -1.096911096148E+01 -1.096911097051E+01 -1.096911097944E+01 -1.096911098827E+01
 -1.096911099699E+01 -1.096911100561E+01 -1.096911101412E+01 -1.096911102254E+01
 -1.096911103086E+01 -1.096911103908E+01 -1.096911104720E+01 -1.096911105523E+01
 -1.096911106317E+01 -1.096911107101E+01 -1.096911107876E+01 -1.096911108642E+01
 -1.096911109399E+01 -1.096911110147E+01 -1.096911110886E+01 -1.096911111616E+01
 -1.096911112338E+01 -1.096911113052E+01 -1.096911113757E+01 -1.096911114454E+01