<?xml version="1.0" encoding="UTF-8" ?>
<psml version="0.8" energy_unit="hartree" length_unit="bohr">
<provenance creator="ONCVPSP-2.1.2+psml" date="2015-02-14">
<input-file name="oncvpsp-input">
# ATOM AND REFERENCE CONFIGURATION
# atsym  z    nc    nv    iexc   psfile
  Hg 80.00    12     2     3      psp8
#
#   n    l    f        energy (Ha)
    1    0    2.00
    2    0    2.00
    2    1    6.00
    3    0    2.00
    3    1    6.00
    3    2   10.00
    4    0    2.00
    4    1    6.00
    4    2   10.00
    4    3   14.00
    5    0    2.00
    5    1    6.00
    5    2   10.00
    6    0    2.00
#
# PSEUDOPOTENTIAL AND OPTIMIZATION
# lmax
    3
#
#   l,   rc,     ep,   ncon, nbas, qcut
    0    3.24   -0.26    4    7    4.00
    1    3.01    0.10    4    7    4.00
    2    2.52   -0.37    4    8    6.00
    3    3.01    0.30    4    8    4.50
#
# LOCAL POTENTIAL
# lloc, lpopt,  rc(5),   dvloc0
    4    3      2.52       0.00
#
# VANDERBILT-KLEINMAN-BYLANDER PROJECTORs
# l, nproj, debl
    0    2    1.0000
    1    2    1.0000
    2    2    1.2000
    3    2    1.0000
#
# MODEL CORE CHARGE
# icmod, fcfact
    0    0.00
#
# LOG DERIVATIVE ANALYSIS
# epsh1, epsh2, depsh
   -2.00    3.00    0.02
#
# OUTPUT GRID
# rlmax, drl
    7.00    0.01
#
# TEST CONFIGURATIONS
# ncnf
    3
# nvcnf
#   n    l    f
    2
    5    2   10.00
    6    0    1.00
#
    3
    5    2   10.00
    6    0    1.00
    6    1    1.00
#
    2
    5    2   10.00
    6    1    1.00
#
</input-file>
</provenance>
<header atomic-label="Hg" atomic-number="80." z-pseudo="12."
 flavor="Hamann's oncvpsp" relativity="scalar" polarized="no"
 core-corrections="no">
<exchange-correlation>
<annotation oncvpsp-xc-code="3" oncvpsp-xc-type="LDA"
 oncvpsp-xc-authors="Ceperley-Alder PZ" />
<libxc-info number-of-functionals="2">
<functional name="XC_LDA_X" type="XC_EXCHANGE" id="1" />
<functional name="XC_LDA_C_PZ" type="XC_CORRELATION" id="9" />
</libxc-info>
</exchange-correlation>
<valence-configuration total-valence-charge="12.">
<shell n="5" l="d" occupation="10." />
<shell n="6" l="s" occupation="2." />
</valence-configuration>
</header>
<grid npts="1324">
<annotation type="oncvpsp plus r=0" oncvpsp-npts="1323"
 oncvpsp-r1="0.625000000000E-05" oncvpsp-factor="1.01200000000" />
<grid-data>
  0.000000000000E+00  6.250000000000E-06  6.325000000000E-06  6.400900000000E-06
  6.477710800000E-06  6.555443329600E-06  6.634108649555E-06  6.713717953350E-06
  6.794282568790E-06  6.875813959616E-06  6.958323727131E-06  7.041823611857E-06
  7.126325495199E-06  7.211841401141E-06  7.298383497955E-06  7.385964099930E-06
  7.474595669129E-06  7.564290817159E-06  7.655062306965E-06  7.746923054649E-06
  7.839886131304E-06  7.933964764880E-06  8.029172342059E-06  8.125522410163E-06
  8.223028679085E-06  8.321705023234E-06  8.421565483513E-06  8.522624269315E-06
  8.624895760547E-06  8.728394509674E-06  8.833135243790E-06  8.939132866715E-06
  9.046402461116E-06  9.154959290649E-06  9.264818802137E-06  9.375996627762E-06
  9.488508587296E-06  9.602370690343E-06  9.717599138627E-06  9.834210328291E-06
  9.952220852230E-06  1.007164750246E-05  1.019250727249E-05  1.031481735976E-05
  1.043859516807E-05  1.056385831009E-05  1.069062460981E-05  1.081891210513E-05
  1.094873905039E-05  1.108012391900E-05  1.121308540602E-05  1.134764243090E-05
  1.148381414007E-05  1.162161990975E-05  1.176107934866E-05  1.190221230085E-05
  1.204503884846E-05  1.218957931464E-05  1.233585426642E-05  1.248388451761E-05
  1.263369113182E-05  1.278529542541E-05  1.293871897051E-05  1.309398359816E-05
  1.325111140133E-05  1.341012473815E-05  1.357104623501E-05  1.373389878983E-05
  1.389870557531E-05  1.406549004221E-05  1.423427592272E-05  1.440508723379E-05
  1.457794828059E-05  1.475288365996E-05  1.492991826388E-05  1.510907728305E-05
  1.529038621044E-05  1.547387084497E-05  1.565955729511E-05  1.584747198265E-05
  1.603764164644E-05  1.623009334620E-05  1.642485446635E-05  1.662195271995E-05
  1.682141615259E-05  1.702327314642E-05  1.722755242418E-05  1.743428305327E-05
  1.764349444991E-05  1.785521638331E-05  1.806947897991E-05  1.828631272766E-05
  1.850574848040E-05  1.872781746216E-05  1.895255127171E-05  1.917998188697E-05
  1.941014166961E-05  1.964306336965E-05  1.987878013008E-05  2.011732549164E-05
  2.035873339754E-05  2.060303819831E-05  2.085027465669E-05  2.110047795257E-05
  2.135368368801E-05  2.160992789226E-05  2.186924702697E-05  2.213167799129E-05
  2.239725812719E-05  2.266602522471E-05  2.293801752741E-05  2.321327373774E-05
  2.349183302259E-05  2.377373501886E-05  2.405901983909E-05  2.434772807716E-05
  2.463990081408E-05  2.493557962385E-05  2.523480657934E-05  2.553762425829E-05
  2.584407574939E-05  2.615420465838E-05  2.646805511428E-05  2.678567177566E-05
  2.710709983696E-05  2.743238503501E-05  2.776157365543E-05  2.809471253929E-05
  2.843184908976E-05  2.877303127884E-05  2.911830765419E-05  2.946772734604E-05
  2.982134007419E-05  3.017919615508E-05  3.054134650894E-05  3.090784266705E-05
  3.127873677905E-05  3.165408162040E-05  3.203393059985E-05  3.241833776704E-05
  3.280735782025E-05  3.320104611409E-05  3.359945866746E-05  3.400265217147E-05
  3.441068399753E-05  3.482361220550E-05  3.524149555197E-05  3.566439349859E-05
  3.609236622057E-05  3.652547461522E-05  3.696378031060E-05  3.740734567433E-05
  3.785623382242E-05  3.831050862829E-05  3.877023473183E-05  3.923547754861E-05
  3.970630327919E-05  4.018277891854E-05  4.066497226557E-05  4.115295193275E-05
  4.164678735595E-05  4.214654880422E-05  4.265230738987E-05  4.316413507855E-05
  4.368210469949E-05  4.420628995588E-05  4.473676543535E-05  4.527360662058E-05
  4.581688990003E-05  4.636669257883E-05  4.692309288977E-05  4.748617000445E-05
  4.805600404450E-05  4.863267609304E-05  4.921626820615E-05  4.980686342463E-05
  5.040454578572E-05  5.100940033515E-05  5.162151313917E-05  5.224097129684E-05
  5.286786295240E-05  5.350227730783E-05  5.414430463553E-05  5.479403629115E-05
  5.545156472665E-05  5.611698350337E-05  5.679038730541E-05  5.747187195307E-05
  5.816153441651E-05  5.885947282951E-05  5.956578650346E-05  6.028057594150E-05
  6.100394285280E-05  6.173599016704E-05  6.247682204904E-05  6.322654391363E-05
  6.398526244059E-05  6.475308558988E-05  6.553012261696E-05  6.631648408836E-05
  6.711228189742E-05  6.791762928019E-05  6.873264083155E-05  6.955743252153E-05
  7.039212171179E-05  7.123682717233E-05  7.209166909840E-05  7.295676912758E-05
  7.383225035711E-05  7.471823736140E-05  7.561485620973E-05  7.652223448425E-05
  7.744050129806E-05  7.836978731364E-05  7.931022476140E-05  8.026194745854E-05
  8.122509082804E-05  8.219979191798E-05  8.318618942099E-05  8.418442369404E-05
  8.519463677837E-05  8.621697241971E-05  8.725157608875E-05  8.829859500181E-05
  8.935817814184E-05  9.043047627954E-05  9.151564199489E-05  9.261382969883E-05
  9.372519565522E-05  9.484989800308E-05  9.598809677912E-05  9.713995394047E-05
  9.830563338775E-05  9.948530098841E-05  1.006791246003E-04  1.018872740955E-04
  1.031099213846E-04  1.043472404412E-04  1.055994073265E-04  1.068666002144E-04
  1.081489994170E-04  1.094467874100E-04  1.107601488589E-04  1.120892706452E-04
  1.134343418930E-04  1.147955539957E-04  1.161731006437E-04  1.175671778514E-04
  1.189779839856E-04  1.204057197934E-04  1.218505884309E-04  1.233127954921E-04
  1.247925490380E-04  1.262900596265E-04  1.278055403420E-04  1.293392068261E-04
  1.308912773080E-04  1.324619726357E-04  1.340515163073E-04  1.356601345030E-04
  1.372880561171E-04  1.389355127905E-04  1.406027389440E-04  1.422899718113E-04
  1.439974514730E-04  1.457254208907E-04  1.474741259414E-04  1.492438154527E-04
  1.510347412381E-04  1.528471581330E-04  1.546813240306E-04  1.565374999189E-04
  1.584159499180E-04  1.603169413170E-04  1.622407446128E-04  1.641876335481E-04
  1.661578851507E-04  1.681517797725E-04  1.701696011298E-04  1.722116363433E-04
  1.742781759795E-04  1.763695140912E-04  1.784859482603E-04  1.806277796394E-04
  1.827953129951E-04  1.849888567510E-04  1.872087230321E-04  1.894552277084E-04
  1.917286904409E-04  1.940294347262E-04  1.963577879430E-04  1.987140813983E-04
  2.010986503750E-04  2.035118341795E-04  2.059539761897E-04  2.084254239040E-04
  2.109265289908E-04  2.134576473387E-04  2.160191391068E-04  2.186113687761E-04
  2.212347052014E-04  2.238895216638E-04  2.265761959238E-04  2.292951102748E-04
  2.320466515981E-04  2.348312114173E-04  2.376491859543E-04  2.405009761858E-04
  2.433869879000E-04  2.463076317548E-04  2.492633233359E-04  2.522544832159E-04
  2.552815370145E-04  2.583449154587E-04  2.614450544442E-04  2.645823950975E-04
  2.677573838387E-04  2.709704724447E-04  2.742221181141E-04  2.775127835314E-04
  2.808429369338E-04  2.842130521770E-04  2.876236088031E-04  2.910750921088E-04
  2.945679932141E-04  2.981028091327E-04  3.016800428422E-04  3.053002033563E-04
  3.089638057966E-04  3.126713714662E-04  3.164234279238E-04  3.202205090589E-04
  3.240631551676E-04  3.279519130296E-04  3.318873359859E-04  3.358699840178E-04
  3.399004238260E-04  3.439792289119E-04  3.481069796588E-04  3.522842634147E-04
  3.565116745757E-04  3.607898146706E-04  3.651192924467E-04  3.695007239560E-04
  3.739347326435E-04  3.784219494352E-04  3.829630128285E-04  3.875585689824E-04
  3.922092718102E-04  3.969157830719E-04  4.016787724688E-04  4.064989177384E-04
  4.113769047513E-04  4.163134276083E-04  4.213091887396E-04  4.263648990044E-04
  4.314812777925E-04  4.366590531260E-04  4.418989617635E-04  4.472017493047E-04
  4.525681702963E-04  4.579989883399E-04  4.634949762000E-04  4.690569159144E-04
  4.746855989053E-04  4.803818260922E-04  4.861464080053E-04  4.919801649014E-04
  4.978839268802E-04  5.038585340028E-04  5.099048364108E-04  5.160236944477E-04
  5.222159787811E-04  5.284825705265E-04  5.348243613728E-04  5.412422537093E-04
  5.477371607538E-04  5.543100066828E-04  5.609617267630E-04  5.676932674842E-04
  5.745055866940E-04  5.813996537343E-04  5.883764495791E-04  5.954369669741E-04
  6.025822105777E-04  6.098131971047E-04  6.171309554699E-04  6.245365269356E-04
  6.320309652588E-04  6.396153368419E-04  6.472907208840E-04  6.550582095346E-04
  6.629189080490E-04  6.708739349456E-04  6.789244221650E-04  6.870715152310E-04
  6.953163734137E-04  7.036601698947E-04  7.121040919334E-04  7.206493410366E-04
  7.292971331291E-04  7.380486987266E-04  7.469052831113E-04  7.558681465087E-04
  7.649385642668E-04  7.741178270380E-04  7.834072409624E-04  7.928081278540E-04
  8.023218253882E-04  8.119496872929E-04  8.216930835404E-04  8.315534005429E-04
  8.415320413494E-04  8.516304258456E-04  8.618499909557E-04  8.721921908472E-04
  8.826584971374E-04  8.932503991030E-04  9.039694038923E-04  9.148170367390E-04
  9.257948411798E-04  9.369043792740E-04  9.481472318253E-04  9.595249986072E-04
  9.710392985905E-04  9.826917701736E-04  9.944840714156E-04  1.006417880273E-03
  1.018494894836E-03  1.030716833574E-03  1.043085435577E-03  1.055602460804E-03
  1.068269690333E-03  1.081088926617E-03  1.094061993737E-03  1.107190737662E-03
  1.120477026514E-03  1.133922750832E-03  1.147529823842E-03  1.161300181728E-03
  1.175235783909E-03  1.189338613315E-03  1.203610676675E-03  1.218054004795E-03
  1.232670652853E-03  1.247462700687E-03  1.262432253095E-03  1.277581440133E-03
  1.292912417414E-03  1.308427366423E-03  1.324128494820E-03  1.340018036758E-03
  1.356098253199E-03  1.372371432237E-03  1.388839889424E-03  1.405505968097E-03
  1.422372039715E-03  1.439440504191E-03  1.456713790241E-03  1.474194355724E-03
  1.491884687993E-03  1.509787304249E-03  1.527904751900E-03  1.546239608923E-03
  1.564794484230E-03  1.583572018041E-03  1.602574882257E-03  1.621805780844E-03
  1.641267450214E-03  1.660962659617E-03  1.680894211532E-03  1.701064942071E-03
  1.721477721375E-03  1.742135454032E-03  1.763041079480E-03  1.784197572434E-03
  1.805607943303E-03  1.827275238623E-03  1.849202541486E-03  1.871392971984E-03
  1.893849687648E-03  1.916575883900E-03  1.939574794507E-03  1.962849692041E-03
  1.986403888345E-03  2.010240735005E-03  2.034363623825E-03  2.058775987311E-03
  2.083481299159E-03  2.108483074749E-03  2.133784871646E-03  2.159390290106E-03
  2.185302973587E-03  2.211526609270E-03  2.238064928581E-03  2.264921707724E-03
  2.292100768217E-03  2.319605977436E-03  2.347441249165E-03  2.375610544155E-03
  2.404117870685E-03  2.432967285133E-03  2.462162892554E-03  2.491708847265E-03
  2.521609353432E-03  2.551868665673E-03  2.582491089662E-03  2.613480982738E-03
  2.644842754530E-03  2.676580867585E-03  2.708699837996E-03  2.741204236052E-03
  2.774098686884E-03  2.807387871127E-03  2.841076525580E-03  2.875169443887E-03
  2.909671477214E-03  2.944587534941E-03  2.979922585360E-03  3.015681656384E-03
  3.051869836261E-03  3.088492274296E-03  3.125554181588E-03  3.163060831767E-03
  3.201017561748E-03  3.239429772489E-03  3.278302929759E-03  3.317642564916E-03
  3.357454275695E-03  3.397743727003E-03  3.438516651727E-03  3.479778851548E-03
  3.521536197766E-03  3.563794632140E-03  3.606560167725E-03  3.649838889738E-03
  3.693636956415E-03  3.737960599892E-03  3.782816127090E-03  3.828209920616E-03
  3.874148439663E-03  3.920638220939E-03  3.967685879590E-03  4.015298110145E-03
  4.063481687467E-03  4.112243467717E-03  4.161590389329E-03  4.211529474001E-03
  4.262067827689E-03  4.313212641621E-03  4.364971193321E-03  4.417350847641E-03
  4.470359057812E-03  4.524003366506E-03  4.578291406904E-03  4.633230903787E-03
  4.688829674633E-03  4.745095630728E-03  4.802036778297E-03  4.859661219636E-03
  4.917977154272E-03  4.976992880123E-03  5.036716794685E-03  5.097157396221E-03
  5.158323284976E-03  5.220223164395E-03  5.282865842368E-03  5.346260232477E-03
  5.410415355266E-03  5.475340339529E-03  5.541044423604E-03  5.607536956687E-03
  5.674827400167E-03  5.742925328969E-03  5.811840432917E-03  5.881582518112E-03
  5.952161508329E-03  6.023587446429E-03  6.095870495786E-03  6.169020941736E-03
  6.243049193037E-03  6.317965783353E-03  6.393781372753E-03  6.470506749226E-03
  6.548152830217E-03  6.626730664180E-03  6.706251432150E-03  6.786726449336E-03
  6.868167166728E-03  6.950585172728E-03  7.033992194801E-03  7.118400101139E-03
  7.203820902352E-03  7.290266753181E-03  7.377749954219E-03  7.466282953670E-03
  7.555878349114E-03  7.646548889303E-03  7.738307475975E-03  7.831167165686E-03
  7.925141171674E-03  8.020242865735E-03  8.116485780123E-03  8.213883609485E-03
  8.312450212799E-03  8.412199615352E-03  8.513146010736E-03  8.615303762865E-03
  8.718687408020E-03  8.823311656916E-03  8.929191396799E-03  9.036341693561E-03
  9.144777793883E-03  9.254515127410E-03  9.365569308939E-03  9.477956140646E-03
  9.591691614334E-03  9.706791913706E-03  9.823273416670E-03  9.941152697670E-03
  1.006044653004E-02  1.018117188840E-02  1.030334595106E-02  1.042698610248E-02
  1.055210993571E-02  1.067873525493E-02  1.080688007799E-02  1.093656263893E-02
  1.106780139060E-02  1.120061500728E-02  1.133502238737E-02  1.147104265602E-02
  1.160869516789E-02  1.174799950991E-02  1.188897550403E-02  1.203164321007E-02
  1.217602292859E-02  1.232213520374E-02  1.247000082618E-02  1.261964083610E-02
  1.277107652613E-02  1.292432944444E-02  1.307942139778E-02  1.323637445455E-02
  1.339521094801E-02  1.355595347938E-02  1.371862492113E-02  1.388324842019E-02
  1.404984740123E-02  1.421844557004E-02  1.438906691688E-02  1.456173571989E-02
  1.473647654853E-02  1.491331426711E-02  1.509227403831E-02  1.527338132677E-02
  1.545666190269E-02  1.564214184553E-02  1.582984754767E-02  1.601980571825E-02
  1.621204338686E-02  1.640658790751E-02  1.660346696240E-02  1.680270856595E-02
  1.700434106874E-02  1.720839316156E-02  1.741489387950E-02  1.762387260605E-02
  1.783535907733E-02  1.804938338626E-02  1.826597598689E-02  1.848516769873E-02
  1.870698971112E-02  1.893147358765E-02  1.915865127070E-02  1.938855508595E-02
  1.962121774698E-02  1.985667235995E-02  2.009495242827E-02  2.033609185741E-02
  2.058012495969E-02  2.082708645921E-02  2.107701149672E-02  2.132993563468E-02
  2.158589486230E-02  2.184492560065E-02  2.210706470785E-02  2.237234948435E-02
  2.264081767816E-02  2.291250749030E-02  2.318745758018E-02  2.346570707114E-02
  2.374729555600E-02  2.403226310267E-02  2.432065025990E-02  2.461249806302E-02
  2.490784803978E-02  2.520674221625E-02  2.550922312285E-02  2.581533380032E-02
  2.612511780593E-02  2.643861921960E-02  2.675588265023E-02  2.707695324204E-02
  2.740187668094E-02  2.773069920111E-02  2.806346759152E-02  2.840022920262E-02
  2.874103195305E-02  2.908592433649E-02  2.943495542853E-02  2.978817489367E-02
  3.014563299240E-02  3.050738058830E-02  3.087346915536E-02  3.124395078523E-02
  3.161887819465E-02  3.199830473299E-02  3.238228438978E-02  3.277087180246E-02
  3.316412226409E-02  3.356209173126E-02  3.396483683203E-02  3.437241487402E-02
  3.478488385251E-02  3.520230245874E-02  3.562473008824E-02  3.605222684930E-02
  3.648485357149E-02  3.692267181435E-02  3.736574387612E-02  3.781413280264E-02
  3.826790239627E-02  3.872711722502E-02  3.919184263172E-02  3.966214474330E-02
  4.013809048022E-02  4.061974756599E-02  4.110718453678E-02  4.160047075122E-02
  4.209967640023E-02  4.260487251704E-02  4.311613098724E-02  4.363352455909E-02
  4.415712685380E-02  4.468701237604E-02  4.522325652455E-02  4.576593560285E-02
  4.631512683008E-02  4.687090835204E-02  4.743335925227E-02  4.800255956330E-02
  4.857859027806E-02  4.916153336139E-02  4.975147176173E-02  5.034848942287E-02
  5.095267129594E-02  5.156410335150E-02  5.218287259171E-02  5.280906706281E-02
  5.344277586757E-02  5.408408917798E-02  5.473309824811E-02  5.538989542709E-02
  5.605457417222E-02  5.672722906228E-02  5.740795581103E-02  5.809685128076E-02
  5.879401349613E-02  5.949954165809E-02  6.021353615798E-02  6.093609859188E-02
  6.166733177498E-02  6.240733975628E-02  6.315622783336E-02  6.391410256736E-02
  6.468107179816E-02  6.545724465974E-02  6.624273159566E-02  6.703764437481E-02
  6.784209610731E-02  6.865620126059E-02  6.948007567572E-02  7.031383658383E-02
  7.115760262283E-02  7.201149385431E-02  7.287563178056E-02  7.375013936193E-02
  7.463514103427E-02  7.553076272668E-02  7.643713187940E-02  7.735437746195E-02
  7.828262999150E-02  7.922202155140E-02  8.017268581001E-02  8.113475803973E-02
  8.210837513621E-02  8.309367563784E-02  8.409079974550E-02  8.509988934244E-02
  8.612108801455E-02  8.715454107073E-02  8.820039556358E-02  8.925880031034E-02
  9.032990591406E-02  9.141386478503E-02  9.251083116245E-02  9.362096113640E-02
  9.474441267004E-02  9.588134562208E-02  9.703192176954E-02  9.819630483078E-02
  9.937466048875E-02  1.005671564146E-01  1.017739622916E-01  1.029952498391E-01
  1.042311928372E-01  1.054819671512E-01  1.067477507570E-01  1.080287237661E-01
  1.093250684513E-01  1.106369692727E-01  1.119646129040E-01  1.133081882588E-01
  1.146678865179E-01  1.160439011562E-01  1.174364279700E-01  1.188456651057E-01
  1.202718130869E-01  1.217150748440E-01  1.231756557421E-01  1.246537636110E-01
  1.261496087743E-01  1.276634040796E-01  1.291953649286E-01  1.307457093077E-01
  1.323146578194E-01  1.339024337133E-01  1.355092629178E-01  1.371353740728E-01
  1.387809985617E-01  1.404463705444E-01  1.421317269910E-01  1.438373077149E-01
  1.455633554074E-01  1.473101156723E-01  1.490778370604E-01  1.508667711051E-01
  1.526771723584E-01  1.545092984267E-01  1.563634100078E-01  1.582397709279E-01
  1.601386481790E-01  1.620603119572E-01  1.640050357007E-01  1.659730961291E-01
  1.679647732826E-01  1.699803505620E-01  1.720201147688E-01  1.740843561460E-01
  1.761733684197E-01  1.782874488408E-01  1.804268982269E-01  1.825920210056E-01
  1.847831252577E-01  1.870005227608E-01  1.892445290339E-01  1.915154633823E-01
  1.938136489429E-01  1.961394127302E-01  1.984930856830E-01  2.008750027112E-01
  2.032855027437E-01  2.057249287766E-01  2.081936279219E-01  2.106919514570E-01
  2.132202548745E-01  2.157788979330E-01  2.183682447082E-01  2.209886636447E-01
  2.236405276084E-01  2.263242139397E-01  2.290401045070E-01  2.317885857611E-01
  2.345700487902E-01  2.373848893757E-01  2.402335080482E-01  2.431163101448E-01
  2.460337058665E-01  2.489861103369E-01  2.519739436609E-01  2.549976309849E-01
  2.580576025567E-01  2.611542937874E-01  2.642881453128E-01  2.674596030566E-01
  2.706691182933E-01  2.739171477128E-01  2.772041534853E-01  2.805306033271E-01
  2.838969705671E-01  2.873037342139E-01  2.907513790244E-01  2.942403955727E-01
  2.977712803196E-01  3.013445356834E-01  3.049606701116E-01  3.086201981530E-01
  3.123236405308E-01  3.160715242172E-01  3.198643825078E-01  3.237027550979E-01
  3.275871881591E-01  3.315182344170E-01  3.354964532300E-01  3.395224106687E-01
  3.435966795968E-01  3.477198397519E-01  3.518924778289E-01  3.561151875629E-01
  3.603885698137E-01  3.647132326514E-01  3.690897914432E-01  3.735188689406E-01
  3.780010953678E-01  3.825371085123E-01  3.871275538144E-01  3.917730844602E-01
  3.964743614737E-01  4.012320538114E-01  4.060468384571E-01  4.109194005186E-01
  4.158504333248E-01  4.208406385247E-01  4.258907261870E-01  4.310014149013E-01
  4.361734318801E-01  4.414075130626E-01  4.467044032194E-01  4.520648560580E-01
  4.574896343307E-01  4.629795099427E-01  4.685352640620E-01  4.741576872307E-01
  4.798475794775E-01  4.856057504312E-01  4.914330194364E-01  4.973302156697E-01
  5.032981782577E-01  5.093377563968E-01  5.154498094735E-01  5.216352071872E-01
  5.278948296735E-01  5.342295676296E-01  5.406403224411E-01  5.471280063104E-01
  5.536935423861E-01  5.603378648948E-01  5.670619192735E-01  5.738666623048E-01
  5.807530622524E-01  5.877220989995E-01  5.947747641875E-01  6.019120613577E-01
  6.091350060940E-01  6.164446261671E-01  6.238419616811E-01  6.313280652213E-01
  6.389040020040E-01  6.465708500280E-01  6.543297002283E-01  6.621816566311E-01
  6.701278365107E-01  6.781693705488E-01  6.863074029954E-01  6.945430918313E-01
  7.028776089333E-01  7.113121402405E-01  7.198478859234E-01  7.284860605545E-01
  7.372278932811E-01  7.460746280005E-01  7.550275235365E-01  7.640878538189E-01
  7.732569080648E-01  7.825359909615E-01  7.919264228531E-01  8.014295399273E-01
  8.110466944064E-01  8.207792547393E-01  8.306286057962E-01  8.405961490657E-01
  8.506833028545E-01  8.608915024888E-01  8.712222005187E-01  8.816768669249E-01
  8.922569893280E-01  9.029640731999E-01  9.137996420783E-01  9.247652377832E-01
  9.358624206366E-01  9.470927696843E-01  9.584578829205E-01  9.699593775155E-01
  9.815988900457E-01  9.933780767263E-01  1.005298613647E+00  1.017362197011E+00
  1.029570543375E+00  1.041925389895E+00  1.054428494574E+00  1.067081636509E+00
  1.079886616147E+00  1.092845255541E+00  1.105959398607E+00  1.119230911391E+00
  1.132661682327E+00  1.146253622515E+00  1.160008665985E+00  1.173928769977E+00
  1.188015915217E+00  1.202272106200E+00  1.216699371474E+00  1.231299763932E+00
  1.246075361099E+00  1.261028265432E+00  1.276160604617E+00  1.291474531873E+00
  1.306972226255E+00  1.322655892970E+00  1.338527763686E+00  1.354590096850E+00
  1.370845178012E+00  1.387295320148E+00  1.403942863990E+00  1.420790178358E+00
  1.437839660498E+00  1.455093736424E+00  1.472554861261E+00  1.490225519597E+00
  1.508108225832E+00  1.526205524542E+00  1.544519990836E+00  1.563054230726E+00
  1.581810881495E+00  1.600792612073E+00  1.620002123418E+00  1.639442148899E+00
  1.659115454686E+00  1.679024840142E+00  1.699173138224E+00  1.719563215882E+00
  1.740197974473E+00  1.761080350166E+00  1.782213314368E+00  1.803599874141E+00
  1.825243072631E+00  1.847145989502E+00  1.869311741376E+00  1.891743482273E+00
  1.914444404060E+00  1.937417736909E+00  1.960666749752E+00  1.984194750749E+00
  2.008005087758E+00  2.032101148811E+00  2.056486362596E+00  2.081164198948E+00
  2.106138169335E+00  2.131411827367E+00  2.156988769295E+00  2.182872634527E+00
  2.209067106141E+00  2.235575911415E+00  2.262402822352E+00  2.289551656220E+00
  2.317026276095E+00  2.344830591408E+00  2.372968558505E+00  2.401444181207E+00
  2.430261511381E+00  2.459424649518E+00  2.488937745312E+00  2.518804998256E+00
  2.549030658235E+00  2.579619026134E+00  2.610574454447E+00  2.641901347901E+00
  2.673604164076E+00  2.705687414044E+00  2.738155663013E+00  2.771013530969E+00
  2.804265693341E+00  2.837916881661E+00  2.871971884241E+00  2.906435546852E+00
  2.941312773414E+00  2.976608526695E+00  3.012327829015E+00  3.048475762963E+00
  3.085057472119E+00  3.122078161784E+00  3.159543099726E+00  3.197457616923E+00
  3.235827108326E+00  3.274657033625E+00  3.313952918029E+00  3.353720353045E+00
  3.393964997282E+00  3.434692577249E+00  3.475908888176E+00  3.517619794834E+00
  3.559831232372E+00  3.602549207161E+00  3.645779797647E+00  3.689529155219E+00
  3.733803505081E+00  3.778609147142E+00  3.823952456908E+00  3.869839886391E+00
  3.916277965027E+00  3.963273300608E+00  4.010832580215E+00  4.058962571178E+00
  4.107670122032E+00  4.156962163496E+00  4.206845709458E+00  4.257327857972E+00
  4.308415792267E+00  4.360116781774E+00  4.412438183156E+00  4.465387441354E+00
  4.518972090650E+00  4.573199755738E+00  4.628078152807E+00  4.683615090640E+00
  4.739818471728E+00  4.796696293389E+00  4.854256648909E+00  4.912507728696E+00
  4.971457821441E+00  5.031115315298E+00  5.091488699081E+00  5.152586563470E+00
  5.214417602232E+00  5.276990613459E+00  5.340314500820E+00  5.404398274830E+00
  5.469251054128E+00  5.534882066778E+00  5.601300651579E+00  5.668516259398E+00
  5.736538454511E+00  5.805376915965E+00  5.875041438956E+00  5.945541936224E+00
  6.016888439459E+00  6.089091100732E+00  6.162160193941E+00  6.236106116268E+00
  6.310939389663E+00  6.386670662339E+00  6.463310710287E+00  6.540870438811E+00
  6.619360884077E+00  6.698793214686E+00  6.779178733262E+00  6.860528878061E+00
  6.942855224598E+00  7.026169487293E+00  7.110483521140E+00  7.195809323394E+00
  7.282159035275E+00  7.369544943698E+00  7.457979483022E+00  7.547475236819E+00
  7.638044939660E+00  7.729701478936E+00  7.822457896684E+00  7.916327391444E+00
  8.011323320141E+00  8.107459199983E+00  8.204748710383E+00  8.303205694907E+00
  8.402844163246E+00  8.503678293205E+00  8.605722432724E+00  8.708991101916E+00
  8.813498995139E+00  8.919260983081E+00  9.026292114878E+00  9.134607620256E+00
  9.244222911700E+00  9.355153586640E+00  9.467415429680E+00  9.581024414836E+00
  9.695996707814E+00  9.812348668308E+00  9.930096852327E+00  1.004925801456E+01
  1.016984911073E+01  1.029188730006E+01  1.041538994766E+01  1.054037462703E+01
  1.066685912256E+01  1.079486143203E+01  1.092439976921E+01  1.105549256644E+01
  1.118815847724E+01  1.132241637897E+01  1.145828537551E+01  1.159578480002E+01
  1.173493421762E+01  1.187575342823E+01  1.201826246937E+01  1.216248161900E+01
  1.230843139843E+01  1.245613257521E+01  1.260560616611E+01  1.275687344011E+01
  1.290995592139E+01  1.306487539244E+01  1.322165389715E+01  1.338031374392E+01
  1.354087750885E+01  1.370336803895E+01  1.386780845542E+01  1.403422215689E+01
  1.420263282277E+01  1.437306441664E+01  1.454554118964E+01  1.472008768392E+01
  1.489672873612E+01  1.507548948096E+01  1.525639535473E+01  1.543947209899E+01
  1.562474576417E+01  1.581224271334E+01  1.600198962590E+01  1.619401350141E+01
  1.638834166343E+01  1.658500176339E+01  1.678402178455E+01  1.698543004597E+01
  1.718925520652E+01  1.739552626900E+01  1.760427258423E+01  1.781552385524E+01
  1.802931014150E+01  1.824566186320E+01  1.846460980556E+01  1.868618512322E+01
  1.891041934470E+01  1.913734437684E+01  1.936699250936E+01  1.959939641947E+01
  1.983458917651E+01  2.007260424662E+01  2.031347549758E+01  2.055723720355E+01
  2.080392405000E+01  2.105357113860E+01  2.130621399226E+01  2.156188856017E+01
  2.182063122289E+01  2.208247879756E+01  2.234746854313E+01  2.261563816565E+01
  2.288702582364E+01  2.316167013352E+01  2.343961017513E+01  2.372088549723E+01
  2.400553612319E+01  2.429360255667E+01  2.458512578735E+01  2.488014729680E+01
  2.517870906436E+01  2.548085357313E+01  2.578662381601E+01  2.609606330180E+01
  2.640921606143E+01  2.672612665416E+01  2.704684017401E+01  2.737140225610E+01
  2.769985908317E+01  2.803225739217E+01  2.836864448088E+01  2.870906821465E+01
  2.905357703323E+01  2.940221995762E+01  2.975504659712E+01  3.011210715628E+01
  3.047345244216E+01  3.083913387146E+01  3.120920347792E+01  3.158371391965E+01
  3.196271848669E+01  3.234627110853E+01  3.273442636183E+01  3.312723947817E+01
  3.352476635191E+01  3.392706354814E+01  3.433418831071E+01  3.474619857044E+01
  3.516315295329E+01  3.558511078873E+01  3.601213211819E+01  3.644427770361E+01
  3.688160903605E+01  3.732418834449E+01  3.777207860462E+01  3.822534354788E+01
  3.868404767045E+01  3.914825624250E+01  3.961803531741E+01  4.009345174121E+01
  4.057457316211E+01  4.106146804005E+01  4.155420565653E+01  4.205285612441E+01
  4.255749039791E+01  4.306818028268E+01  4.358499844607E+01  4.410801842743E+01

</grid-data>
</grid>
<semilocal-potentials set="scalar_relativistic">
<slps n="6" l="s" rc="3.23582710833" flavor="Hamann's oncvpsp">
<radfunc>
<data>
  1.442437583116E+00  1.442436097059E+00  1.442436078792E+00  1.442436060740E+00
  1.442436042901E+00  1.442436025272E+00  1.442436007851E+00  1.442435990634E+00
  1.442435973620E+00  1.442435956807E+00  1.442435940190E+00  1.442435923769E+00
  1.442435907541E+00  1.442435891504E+00  1.442435875655E+00  1.442435859992E+00
  1.442435844512E+00  1.442435829214E+00  1.442435814096E+00  1.442435799154E+00
  1.442435784388E+00  1.442435769794E+00  1.442435755371E+00  1.442435741117E+00
  1.442435727029E+00  1.442435713106E+00  1.442435699346E+00  1.442435685746E+00
  1.442435672304E+00  1.442435659020E+00  1.442435645890E+00  1.442435632913E+00
  1.442435620087E+00  1.442435607410E+00  1.442435594880E+00  1.442435582496E+00