<?xml version="1.0" encoding="UTF-8" ?>
<psml version="0.8" energy_unit="hartree" length_unit="bohr">
<provenance creator="ONCVPSP-2.1.2+psml" date="2015-02-18">
<input-file name="oncvpsp-input">
# ATOM AND REFERENCE CONFIGURATION
# atsym  z    nc    nv    iexc   psfile
  Bi 83.00    12     3     3      psp8
#
#   n    l    f        energy (Ha)
    1    0    2.00
    2    0    2.00
    2    1    6.00
    3    0    2.00
    3    1    6.00
    3    2   10.00
    4    0    2.00
    4    1    6.00
    4    2   10.00
    4    3   14.00
    5    0    2.00
    5    1    6.00
    5    2   10.00
    6    0    2.00
    6    1    3.00
#
# PSEUDOPOTENTIAL AND OPTIMIZATION
# lmax
    3
#
#   l,   rc,     ep,   ncon, nbas, qcut
    0    3.01   -0.54    4    7    4.00
    1    3.01   -0.16    4    7    4.00
    2    2.52   -0.95    4    8    6.00
    3    3.01    0.25    4    8    5.00
#
# LOCAL POTENTIAL
# lloc, lpopt,  rc(5),   dvloc0
    4    3      2.52       0.00
#
# VANDERBILT-KLEINMAN-BYLANDER PROJECTORs
# l, nproj, debl
    0    2    1.0000
    1    2    0.9759
    2    2    1.1556
    3    2    1.0000
#
# MODEL CORE CHARGE
# icmod, fcfact
    0    0.00
#
# LOG DERIVATIVE ANALYSIS
# epsh1, epsh2, depsh
   -2.00    3.00    0.02
#
# OUTPUT GRID
# rlmax, drl
    7.00    0.01
#
# TEST CONFIGURATIONS
# ncnf
    3
# nvcnf
#   n    l    f
    3
    5    2   10.00
    6    0    1.00
    6    1    3.00
#
    3
    5    2   10.00
    6    0    2.00
    6    1    2.00
#
    3
    5    2   10.00
    6    0    1.00
    6    1    2.00
#
</input-file>
</provenance>
<header atomic-label="Bi" atomic-number="83." z-pseudo="15."
 flavor="Hamann's oncvpsp" relativity="dirac" polarized="no"
 core-corrections="no">
<exchange-correlation>
<annotation oncvpsp-xc-code="3" oncvpsp-xc-type="LDA"
 oncvpsp-xc-authors="Ceperley-Alder PZ" />
<libxc-info number-of-functionals="2">
<functional name="XC_LDA_X" type="XC_EXCHANGE" id="1" />
<functional name="XC_LDA_C_PZ" type="XC_CORRELATION" id="9" />
</libxc-info>
</exchange-correlation>
<valence-configuration total-valence-charge="15.">
<shell n="5" l="d" occupation="10." />
<shell n="6" l="s" occupation="2." />
<shell n="6" l="p" occupation="3." />
</valence-configuration>
</header>
<grid npts="1327">
<annotation type="oncvpsp plus r=0" oncvpsp-npts="1326"
 oncvpsp-r1="0.602409638554E-05" oncvpsp-factor="1.01200000000" />
<grid-data>
  0.000000000000E+00  6.024096385542E-06  6.096385542169E-06  6.169542168675E-06
  6.243576674699E-06  6.318499594795E-06  6.394321589933E-06  6.471053449012E-06
  6.548706090400E-06  6.627290563485E-06  6.706818050247E-06  6.787299866850E-06
  6.868747465252E-06  6.951172434835E-06  7.034586504053E-06  7.119001542102E-06
  7.204429560607E-06  7.290882715334E-06  7.378373307918E-06  7.466913787613E-06
  7.556516753064E-06  7.647194954101E-06  7.738961293550E-06  7.831828829073E-06
  7.925810775022E-06  8.020920504322E-06  8.117171550374E-06  8.214577608978E-06
  8.313152540286E-06  8.412910370770E-06  8.513865295219E-06  8.616031678762E-06
  8.719424058907E-06  8.824057147614E-06  8.929945833385E-06  9.037105183386E-06
  9.145550445586E-06  9.255297050933E-06  9.366360615544E-06  9.478756942931E-06
  9.592502026246E-06  9.707612050561E-06  9.824103395168E-06  9.941992635910E-06
  1.006129654754E-05  1.018203210611E-05  1.030421649138E-05  1.042786708928E-05
  1.055300149435E-05  1.067963751228E-05  1.080779316243E-05  1.093748668038E-05
  1.106873652055E-05  1.120156135879E-05  1.133598009510E-05  1.147201185624E-05
  1.160967599851E-05  1.174899211050E-05  1.188998001582E-05  1.203265977601E-05
  1.217705169332E-05  1.232317631364E-05  1.247105442941E-05  1.262070708256E-05
  1.277215556755E-05  1.292542143436E-05  1.308052649157E-05  1.323749280947E-05
  1.339634272319E-05  1.355709883587E-05  1.371978402190E-05  1.388442143016E-05
  1.405103448732E-05  1.421964690117E-05  1.439028266398E-05  1.456296605595E-05
  1.473772164862E-05  1.491457430840E-05  1.509354920011E-05  1.527467179051E-05
  1.545796785199E-05  1.564346346622E-05  1.583118502781E-05  1.602115924815E-05
  1.621341315912E-05  1.640797411703E-05  1.660486980644E-05  1.680412824411E-05
  1.700577778304E-05  1.720984711644E-05  1.741636528184E-05  1.762536166522E-05
  1.783686600520E-05  1.805090839726E-05  1.826751929803E-05  1.848672952961E-05
  1.870857028396E-05  1.893307312737E-05  1.916027000490E-05  1.939019324496E-05
  1.962287556390E-05  1.985835007066E-05  2.009665027151E-05  2.033781007477E-05
  2.058186379567E-05  2.082884616122E-05  2.107879231515E-05  2.133173782293E-05
  2.158771867681E-05  2.184677130093E-05  2.210893255654E-05  2.237423974722E-05
  2.264273062419E-05  2.291444339168E-05  2.318941671238E-05  2.346768971292E-05
  2.374930198948E-05  2.403429361335E-05  2.432270513671E-05  2.461457759835E-05
  2.490995252953E-05  2.520887195989E-05  2.551137842341E-05  2.581751496449E-05
  2.612732514406E-05  2.644085304579E-05  2.675814328234E-05  2.707924100173E-05
  2.740419189375E-05  2.773304219647E-05  2.806583870283E-05  2.840262876727E-05
  2.874346031247E-05  2.908838183622E-05  2.943744241826E-05  2.979069172728E-05
  3.014818002800E-05  3.050995818834E-05  3.087607768660E-05  3.124659061884E-05
  3.162154970626E-05  3.200100830274E-05  3.238502040237E-05  3.277364064720E-05
  3.316692433497E-05  3.356492742699E-05  3.396770655611E-05  3.437531903478E-05
  3.478782286320E-05  3.520527673756E-05  3.562774005841E-05  3.605527293911E-05
  3.648793621438E-05  3.692579144895E-05  3.736890094634E-05  3.781732775770E-05
  3.827113569079E-05  3.873038931908E-05  3.919515399091E-05  3.966549583880E-05
  4.014148178886E-05  4.062317957033E-05  4.111065772517E-05  4.160398561788E-05
  4.210323344529E-05  4.260847224663E-05  4.311977391359E-05  4.363721120056E-05
  4.416085773496E-05  4.469078802778E-05  4.522707748412E-05  4.576980241393E-05
  4.631904004289E-05  4.687486852341E-05  4.743736694569E-05  4.800661534904E-05
  4.858269473323E-05  4.916568707002E-05  4.975567531487E-05  5.035274341864E-05
  5.095697633967E-05  5.156846005574E-05  5.218728157641E-05  5.281352895533E-05
  5.344729130279E-05  5.408865879843E-05  5.473772270401E-05  5.539457537646E-05
  5.605931028097E-05  5.673202200434E-05  5.741280626840E-05  5.810175994362E-05
  5.879898106294E-05  5.950456883570E-05  6.021862366172E-05  6.094124714567E-05
  6.167254211141E-05  6.241261261675E-05  6.316156396815E-05  6.391950273577E-05
  6.468653676860E-05  6.546277520982E-05  6.624832851234E-05  6.704330845449E-05
  6.784782815594E-05  6.866200209381E-05  6.948594611894E-05  7.031977747237E-05
  7.116361480203E-05  7.201757817966E-05  7.288178911781E-05  7.375637058723E-05
  7.464144703428E-05  7.553714439869E-05  7.644359013147E-05  7.736091321305E-05
  7.828924417160E-05  7.922871510166E-05  8.017945968288E-05  8.114161319908E-05
  8.211531255747E-05  8.310069630816E-05  8.409790466386E-05  8.510707951982E-05
  8.612836447406E-05  8.716190484775E-05  8.820784770592E-05  8.926634187839E-05
  9.033753798093E-05  9.142158843670E-05  9.251864749794E-05  9.362887126792E-05
  9.475241772313E-05  9.588944673581E-05  9.704012009664E-05  9.820460153780E-05
  9.938305675626E-05  1.005756534373E-04  1.017825612786E-04  1.030039520139E-04
  1.042399994381E-04  1.054908794313E-04  1.067567699845E-04  1.080378512243E-04
  1.093343054390E-04  1.106463171043E-04  1.119740729095E-04  1.133177617845E-04
  1.146775749259E-04  1.160537058250E-04  1.174463502949E-04  1.188557064984E-04
  1.202819749764E-04  1.217253586761E-04  1.231860629802E-04  1.246642957360E-04
  1.261602672848E-04  1.276741904922E-04  1.292062807782E-04  1.307567561475E-04
  1.323258372213E-04  1.339137472679E-04  1.355207122351E-04  1.371469607820E-04
  1.387927243113E-04  1.404582370031E-04  1.421437358471E-04  1.438494606773E-04
  1.455756542054E-04  1.473225620559E-04  1.490904328005E-04  1.508795179941E-04
  1.526900722101E-04  1.545223530766E-04  1.563766213135E-04  1.582531407693E-04
  1.601521784585E-04  1.620740046000E-04  1.640188926552E-04  1.659871193671E-04
  1.679789647995E-04  1.699947123771E-04  1.720346489256E-04  1.740990647127E-04
  1.761882534893E-04  1.783025125311E-04  1.804421426815E-04  1.826074483937E-04
  1.847987377744E-04  1.870163226277E-04  1.892605184992E-04  1.915316447212E-04
  1.938300244579E-04  1.961559847514E-04  1.985098565684E-04  2.008919748472E-04
  2.033026785454E-04  2.057423106879E-04  2.082112184162E-04  2.107097530372E-04
  2.132382700736E-04  2.157971293145E-04  2.183866948663E-04  2.210073352047E-04
  2.236594232271E-04  2.263433363058E-04  2.290594563415E-04  2.318081698176E-04
  2.345898678554E-04  2.374049462697E-04  2.402538056249E-04  2.431368512924E-04
  2.460544935079E-04  2.490071474300E-04  2.519952331992E-04  2.550191759976E-04
  2.580794061096E-04  2.611763589829E-04  2.643104752907E-04  2.674822009942E-04
  2.706919874061E-04  2.739402912550E-04  2.772275747500E-04  2.805543056470E-04
  2.839209573148E-04  2.873280088026E-04  2.907759449082E-04  2.942652562471E-04
  2.977964393220E-04  3.013699965939E-04  3.049864365530E-04  3.086462737917E-04
  3.123500290772E-04  3.160982294261E-04  3.198914081792E-04  3.237301050774E-04
  3.276148663383E-04  3.315462447344E-04  3.355247996712E-04  3.395510972672E-04
  3.436257104344E-04  3.477492189596E-04  3.519222095872E-04  3.561452761022E-04
  3.604190194154E-04  3.647440476484E-04  3.691209762202E-04  3.735504279348E-04
  3.780330330701E-04  3.825694294669E-04  3.871602626205E-04  3.918061857719E-04
  3.965078600012E-04  4.012659543212E-04  4.060811457731E-04  4.109541195224E-04
  4.158855689566E-04  4.208761957841E-04  4.259267101335E-04  4.310378306551E-04
  4.362102846230E-04  4.414448080385E-04  4.467421457349E-04  4.521030514837E-04
  4.575282881015E-04  4.630186275588E-04  4.685748510895E-04  4.741977493025E-04
  4.798881222942E-04  4.856467797617E-04  4.914745411188E-04  4.973722356123E-04
  5.033407024396E-04  5.093807908689E-04  5.154933603593E-04  5.216792806836E-04
  5.279394320518E-04  5.342747052364E-04  5.406860016993E-04  5.471742337197E-04
  5.537403245243E-04  5.603852084186E-04  5.671098309196E-04  5.739151488907E-04
  5.808021306773E-04  5.877717562455E-04  5.948250173204E-04  6.019629175283E-04
  6.091864725386E-04  6.164967102091E-04  6.238946707316E-04  6.313814067804E-04
  6.389579836617E-04  6.466254794657E-04  6.543849852193E-04  6.622376050419E-04
  6.701844563024E-04  6.782266697780E-04  6.863653898153E-04  6.946017744931E-04
  7.029369957871E-04  7.113722397365E-04  7.199087066133E-04  7.285476110927E-04
  7.372901824258E-04  7.461376646149E-04  7.550913165903E-04  7.641524123894E-04
  7.733222413381E-04  7.826021082341E-04  7.919933335329E-04  8.014972535353E-04
  8.111152205777E-04  8.208486032247E-04  8.306987864634E-04  8.406671719009E-04
  8.507551779637E-04  8.609642400993E-04  8.712958109805E-04  8.817513607123E-04
  8.923323770408E-04  9.030403655653E-04  9.138768499521E-04  9.248433721515E-04
  9.359414926173E-04  9.471727905287E-04  9.585388640151E-04  9.700413303833E-04
  9.816818263479E-04  9.934620082640E-04  1.005383552363E-03  1.017448154992E-03
  1.029657532851E-03  1.042013423246E-03  1.054517584325E-03  1.067171795337E-03
  1.079977856881E-03  1.092937591163E-03  1.106052842257E-03  1.119325476364E-03
  1.132757382081E-03  1.146350470665E-03  1.160106676313E-03  1.174027956429E-03
  1.188116291906E-03  1.202373687409E-03  1.216802171658E-03  1.231403797718E-03
  1.246180643291E-03  1.261134811010E-03  1.276268428742E-03  1.291583649887E-03
  1.307082653686E-03  1.322767645530E-03  1.338640857276E-03  1.354704547564E-03
  1.370961002135E-03  1.387412534160E-03  1.404061484570E-03  1.420910222385E-03
  1.437961145054E-03  1.455216678794E-03  1.472679278940E-03  1.490351430287E-03
  1.508235647450E-03  1.526334475220E-03  1.544650488922E-03  1.563186294790E-03
  1.581944530327E-03  1.600927864691E-03  1.620138999067E-03  1.639580667056E-03
  1.659255635061E-03  1.679166702681E-03  1.699316703114E-03  1.719708503551E-03
  1.740345005594E-03  1.761229145661E-03  1.782363895409E-03  1.803752262154E-03
  1.825397289299E-03  1.847302056771E-03  1.869469681452E-03  1.891903317630E-03
  1.914606157441E-03  1.937581431331E-03  1.960832408506E-03  1.984362397409E-03
  2.008174746177E-03  2.032272843132E-03  2.056660117249E-03  2.081340038656E-03
  2.106316119120E-03  2.131591912549E-03  2.157171015500E-03  2.183057067686E-03
  2.209253752498E-03  2.235764797528E-03  2.262593975099E-03  2.289745102800E-03
  2.317222044033E-03  2.345028708562E-03  2.373169053065E-03  2.401647081701E-03
  2.430466846682E-03  2.459632448842E-03  2.489148038228E-03  2.519017814687E-03
  2.549246028463E-03  2.579836980805E-03  2.610795024574E-03  2.642124564869E-03
  2.673830059648E-03  2.705916020363E-03  2.738387012608E-03  2.771247656759E-03
  2.804502628640E-03  2.838156660184E-03  2.872214540106E-03  2.906681114587E-03
  2.941561287962E-03  2.976860023418E-03  3.012582343699E-03  3.048733331823E-03
  3.085318131805E-03  3.122341949387E-03  3.159810052779E-03  3.197727773413E-03
  3.236100506694E-03  3.274933712774E-03  3.314232917327E-03  3.354003712335E-03
  3.394251756883E-03  3.434982777966E-03  3.476202571301E-03  3.517917002157E-03
  3.560132006183E-03  3.602853590257E-03  3.646087833340E-03  3.689840887340E-03
  3.734118977988E-03  3.778928405724E-03  3.824275546593E-03  3.870166853152E-03
  3.916608855390E-03  3.963608161655E-03  4.011171459594E-03  4.059305517110E-03
  4.108017183315E-03  4.157313389515E-03  4.207201150189E-03  4.257687563991E-03
  4.308779814759E-03  4.360485172536E-03  4.412810994607E-03  4.465764726542E-03
  4.519353903260E-03  4.573586150099E-03  4.628469183901E-03  4.684010814107E-03
  4.740218943877E-03  4.797101571203E-03  4.854666790058E-03  4.912922791538E-03
  4.971877865037E-03  5.031540399417E-03  5.091918884210E-03  5.153021910821E-03
  5.214858173751E-03  5.277436471836E-03  5.340765709498E-03  5.404854898012E-03
  5.469713156788E-03  5.535349714669E-03  5.601773911245E-03  5.668995198180E-03
  5.737023140558E-03  5.805867418245E-03  5.875537827264E-03  5.946044281191E-03
  6.017396812565E-03  6.089605574316E-03  6.162680841208E-03  6.236633011303E-03
  6.311472607438E-03  6.387210278727E-03  6.463856802072E-03  6.541423083697E-03
  6.619920160701E-03  6.699359202630E-03  6.779751513061E-03  6.861108531218E-03
  6.943441833593E-03  7.026763135596E-03  7.111084293223E-03  7.196417304742E-03
  7.282774312399E-03  7.370167604147E-03  7.458609615397E-03  7.548112930782E-03
  7.638690285951E-03  7.730354569383E-03  7.823118824215E-03  7.916996250106E-03
  8.012000205107E-03  8.108144207568E-03  8.205441938059E-03  8.303907241316E-03
  8.403554128212E-03  8.504396777750E-03  8.606449539083E-03  8.709726933552E-03
  8.814243656755E-03  8.920014580636E-03  9.027054755604E-03  9.135379412671E-03
  9.245003965623E-03  9.355944013210E-03  9.468215341369E-03  9.581833925465E-03
  9.696815932571E-03  9.813177723762E-03  9.930935856447E-03  1.005010708672E-02
  1.017070837176E-02  1.029275687223E-02  1.041626995469E-02  1.054126519415E-02
  1.066776037648E-02  1.079577350100E-02  1.092532278301E-02  1.105642665640E-02
  1.118910377628E-02  1.132337302160E-02  1.145925349786E-02  1.159676453983E-02
  1.173592571431E-02  1.187675682288E-02  1.201927790475E-02  1.216350923961E-02
  1.230947135049E-02  1.245718500669E-02  1.260667122677E-02  1.275795128149E-02
  1.291104669687E-02  1.306597925723E-02  1.322277100832E-02  1.338144426042E-02
  1.354202159155E-02  1.370452585065E-02  1.386898016085E-02  1.403540792278E-02
  1.420383281786E-02  1.437427881167E-02  1.454677015741E-02  1.472133139930E-02
  1.489798737609E-02  1.507676322460E-02  1.525768438330E-02  1.544077659590E-02
  1.562606591505E-02  1.581357870603E-02  1.600334165050E-02  1.619538175031E-02
  1.638972633131E-02  1.658640304729E-02  1.678543988386E-02  1.698686516246E-02
  1.719070754441E-02  1.739699603494E-02  1.760575998736E-02  1.781702910721E-02
  1.803083345650E-02  1.824720345798E-02  1.846616989947E-02  1.868776393827E-02
  1.891201710553E-02  1.913896131079E-02  1.936862884652E-02  1.960105239268E-02
  1.983626502139E-02  2.007430020165E-02  2.031519180407E-02  2.055897410572E-02
  2.080568179499E-02  2.105534997653E-02  2.130801417624E-02  2.156371034636E-02
  2.182247487052E-02  2.208434456896E-02  2.234935670379E-02  2.261754898423E-02
  2.288895957205E-02  2.316362708691E-02  2.344159061195E-02  2.372288969930E-02
  2.400756437569E-02  2.429565514820E-02  2.458720300997E-02  2.488224944609E-02
  2.518083643945E-02  2.548300647672E-02  2.578880255444E-02  2.609826818509E-02
  2.641144740332E-02  2.672838477216E-02  2.704912538942E-02  2.737371489409E-02
  2.770219947282E-02  2.803462586650E-02  2.837104137690E-02  2.871149387342E-02
  2.905603179990E-02  2.940470418150E-02  2.975756063168E-02  3.011465135926E-02
  3.047602717557E-02  3.084173950167E-02  3.121184037569E-02  3.158638246020E-02
  3.196541904972E-02  3.234900407832E-02  3.273719212726E-02  3.313003843279E-02
  3.352759889398E-02  3.392993008071E-02  3.433708924168E-02  3.474913431258E-02
  3.516612392433E-02  3.558811741142E-02  3.601517482036E-02  3.644735691820E-02
  3.688472520122E-02  3.732734190364E-02  3.777527000648E-02  3.822857324656E-02
  3.868731612552E-02  3.915156391902E-02  3.962138268605E-02  4.009683927828E-02
  4.057800134962E-02  4.106493736582E-02  4.155771661421E-02  4.205640921358E-02
  4.256108612414E-02  4.307181915763E-02  4.358868098752E-02  4.411174515937E-02
  4.464108610128E-02  4.517677913450E-02  4.571890048411E-02  4.626752728992E-02
  4.682273761740E-02  4.738461046881E-02  4.795322579444E-02  4.852866450397E-02
  4.911100847802E-02  4.970034057975E-02  5.029674466671E-02  5.090030560271E-02
  5.151110926994E-02  5.212924258118E-02  5.275479349216E-02  5.338785101406E-02
  5.402850522623E-02  5.467684728895E-02  5.533296945641E-02  5.599696508989E-02
  5.666892867097E-02  5.734895581502E-02  5.803714328480E-02  5.873358900422E-02
  5.943839207227E-02  6.015165277714E-02  6.087347261046E-02  6.160395428179E-02
  6.234320173317E-02  6.309132015397E-02  6.384841599582E-02  6.461459698777E-02
  6.538997215162E-02  6.617465181744E-02  6.696874763925E-02  6.777237261092E-02
  6.858564108225E-02  6.940866877524E-02  7.024157280054E-02  7.108447167415E-02
  7.193748533424E-02  7.280073515825E-02  7.367434398015E-02  7.455843610791E-02
  7.545313734120E-02  7.635857498930E-02  7.727487788917E-02  7.820217642384E-02
  7.914060254092E-02  8.009028977142E-02  8.105137324867E-02  8.202398972766E-02
  8.300827760439E-02  8.400437693564E-02  8.501242945887E-02  8.603257861238E-02
  8.706496955572E-02  8.810974919039E-02  8.916706618068E-02  9.023707097485E-02
  9.131991582654E-02  9.241575481646E-02  9.352474387426E-02  9.464704080075E-02
  9.578280529036E-02  9.693219895384E-02  9.809538534129E-02  9.927252996539E-02
  1.004638003250E-01  1.016693659289E-01  1.028893983200E-01  1.041240710999E-01
  1.053735599531E-01  1.066380426725E-01  1.079176991846E-01  1.092127115748E-01
  1.105232641137E-01  1.118495432830E-01  1.131917378024E-01  1.145500386561E-01
  1.159246391199E-01  1.173157347894E-01  1.187235236068E-01  1.201482058901E-01
  1.215899843608E-01  1.230490641731E-01  1.245256529432E-01  1.260199607785E-01
  1.275322003079E-01  1.290625867116E-01  1.306113377521E-01  1.321786738051E-01
  1.337648178908E-01  1.353699957055E-01  1.369944356540E-01  1.386383688818E-01
  1.403020293084E-01  1.419856536601E-01  1.436894815040E-01  1.454137552821E-01
  1.471587203454E-01  1.489246249896E-01  1.507117204895E-01  1.525202611353E-01
  1.543505042690E-01  1.562027103202E-01  1.580771428440E-01  1.599740685582E-01
  1.618937573809E-01  1.638364824694E-01  1.658025202591E-01  1.677921505022E-01
  1.698056563082E-01  1.718433241839E-01  1.739054440741E-01  1.759923094030E-01
  1.781042171158E-01  1.802414677212E-01  1.824043653339E-01  1.845932177179E-01
  1.868083363305E-01  1.890500363665E-01  1.913186368028E-01  1.936144604445E-01
  1.959378339698E-01  1.982890879775E-01  2.006685570332E-01  2.030765797176E-01
  2.055134986742E-01  2.079796606583E-01  2.104754165862E-01  2.130011215852E-01
  2.155571350442E-01  2.181438206648E-01  2.207615465127E-01  2.234106850709E-01
  2.260916132918E-01  2.288047126513E-01  2.315503692031E-01  2.343289736335E-01
  2.371409213171E-01  2.399866123729E-01  2.428664517214E-01  2.457808491420E-01
  2.487302193317E-01  2.517149819637E-01  2.547355617473E-01  2.577923884883E-01
  2.608858971501E-01  2.640165279159E-01  2.671847262509E-01  2.703909429659E-01
  2.736356342815E-01  2.769192618929E-01  2.802422930356E-01  2.836052005520E-01
  2.870084629587E-01  2.904525645142E-01  2.939379952883E-01  2.974652512318E-01
  3.010348342466E-01  3.046472522575E-01  3.083030192846E-01  3.120026555160E-01
  3.157466873822E-01  3.195356476308E-01  3.233700754024E-01  3.272505163072E-01
  3.311775225029E-01  3.351516527729E-01  3.391734726062E-01  3.432435542775E-01
  3.473624769288E-01  3.515308266520E-01  3.557491965718E-01  3.600181869307E-01
  3.643384051738E-01  3.687104660359E-01  3.731349916283E-01  3.776126115279E-01
  3.821439628662E-01  3.867296904206E-01  3.913704467057E-01  3.960668920661E-01
  4.008196947709E-01  4.056295311082E-01  4.104970854815E-01  4.154230505072E-01
  4.204081271133E-01  4.254530246387E-01  4.305584609344E-01  4.357251624656E-01
  4.409538644152E-01  4.462453107881E-01  4.516002545176E-01  4.570194575718E-01
  4.625036910627E-01  4.680537353554E-01  4.736703801797E-01  4.793544247418E-01
  4.851066778387E-01  4.909279579728E-01  4.968190934685E-01  5.027809225901E-01
  5.088142936612E-01  5.149200651851E-01  5.210991059673E-01  5.273522952389E-01
  5.336805227818E-01  5.400846890552E-01  5.465657053239E-01  5.531244937877E-01
  5.597619877132E-01  5.664791315658E-01  5.732768811445E-01  5.801562037183E-01
  5.871180781629E-01  5.941634951008E-01  6.012934570421E-01  6.085089785266E-01
  6.158110862689E-01  6.232008193041E-01  6.306792291358E-01  6.382473798854E-01
  6.459063484440E-01  6.536572246253E-01  6.615011113208E-01  6.694391246567E-01
  6.774723941526E-01  6.856020628824E-01  6.938292876370E-01  7.021552390886E-01
  7.105811019577E-01  7.191080751812E-01  7.277373720834E-01  7.364702205484E-01
  7.453078631950E-01  7.542515575533E-01  7.633025762439E-01  7.724622071589E-01
  7.817317536448E-01  7.911125346885E-01  8.006058851048E-01  8.102131557260E-01
  8.199357135947E-01  8.297749421579E-01  8.397322414638E-01  8.498090283613E-01
  8.600067367017E-01  8.703268175421E-01  8.807707393526E-01  8.913399882248E-01
  9.020360680835E-01  9.128605009005E-01  9.238148269113E-01  9.349006048343E-01
  9.461194120923E-01  9.574728450374E-01  9.689625191778E-01  9.805900694080E-01
  9.923571502409E-01  1.004265436044E+00  1.016316621276E+00  1.028512420732E+00
  1.040854569780E+00  1.053344824618E+00  1.065984962513E+00  1.078776782063E+00
  1.091722103448E+00  1.104822768689E+00  1.118080641914E+00  1.131497609617E+00
  1.145075580932E+00  1.158816487903E+00  1.172722285758E+00  1.186794953187E+00
  1.201036492625E+00  1.215448930537E+00  1.230034317703E+00  1.244794729516E+00
  1.259732266270E+00  1.274849053465E+00  1.290147242107E+00  1.305629009012E+00
  1.321296557120E+00  1.337152115806E+00  1.353197941195E+00  1.369436316490E+00
  1.385869552288E+00  1.402499986915E+00  1.419329986758E+00  1.436361946599E+00
  1.453598289958E+00  1.471041469438E+00  1.488693967071E+00  1.506558294676E+00
  1.524636994212E+00  1.542932638143E+00  1.561447829800E+00  1.580185203758E+00
  1.599147426203E+00  1.618337195317E+00  1.637757241661E+00  1.657410328561E+00
  1.677299252504E+00  1.697426843534E+00  1.717795965656E+00  1.738409517244E+00
  1.759270431451E+00  1.780381676629E+00  1.801746256748E+00  1.823367211829E+00
  1.845247618371E+00  1.867390589792E+00  1.889799276869E+00  1.912476868191E+00
  1.935426590610E+00  1.958651709697E+00  1.982155530213E+00  2.005941396576E+00
  2.030012693335E+00  2.054372845655E+00  2.079025319803E+00  2.103973623640E+00
  2.129221307124E+00  2.154771962810E+00  2.180629226363E+00  2.206796777080E+00
  2.233278338405E+00  2.260077678465E+00  2.287198610607E+00  2.314644993934E+00
  2.342420733862E+00  2.370529782668E+00  2.398976140060E+00  2.427763853741E+00
  2.456897019986E+00  2.486379784225E+00  2.516216341636E+00  2.546410937736E+00
  2.576967868988E+00  2.607891483416E+00  2.639186181217E+00  2.670856415392E+00
  2.702906692377E+00  2.735341572685E+00  2.768165671557E+00  2.801383659616E+00
  2.835000263531E+00  2.869020266694E+00  2.903448509894E+00  2.938289892013E+00
  2.973549370717E+00  3.009231963166E+00  3.045342746724E+00  3.081886859684E+00
  3.118869502001E+00  3.156295936025E+00  3.194171487257E+00  3.232501545104E+00
  3.271291563645E+00  3.310547062409E+00  3.350273627158E+00  3.390476910684E+00
  3.431162633612E+00  3.472336585215E+00  3.514004624238E+00  3.556172679729E+00
  3.598846751885E+00  3.642032912908E+00  3.685737307863E+00  3.729966155557E+00
  3.774725749424E+00  3.820022458417E+00  3.865862727918E+00  3.912253080653E+00
  3.959200117621E+00  4.006710519032E+00  4.054791045261E+00  4.103448537804E+00
  4.152689920258E+00  4.202522199301E+00  4.252952465692E+00  4.303987895281E+00
  4.355635750024E+00  4.407903379024E+00  4.460798219573E+00  4.514327798207E+00
  4.568499731786E+00  4.623321728567E+00  4.678801589310E+00  4.734947208382E+00
  4.791766574882E+00  4.849267773781E+00  4.907458987066E+00  4.966348494911E+00
  5.025944676850E+00  5.086256012972E+00  5.147291085128E+00  5.209058578150E+00
  5.271567281087E+00  5.334826088460E+00  5.398844001522E+00  5.463630129540E+00
  5.529193691095E+00  5.595544015388E+00  5.662690543572E+00  5.730642830095E+00
  5.799410544056E+00  5.869003470585E+00  5.939431512232E+00  6.010704690379E+00
  6.082833146664E+00  6.155827144423E+00  6.229697070157E+00  6.304453434998E+00
  6.380106876218E+00  6.456668158733E+00  6.534148176638E+00  6.612557954757E+00
  6.691908650215E+00  6.772211554017E+00  6.853478092665E+00  6.935719829777E+00
  7.018948467735E+00  7.103175849347E+00  7.188413959540E+00  7.274674927054E+00
  7.361971026179E+00  7.450314678493E+00  7.539718454635E+00  7.630195076090E+00
  7.721757417004E+00  7.814418506008E+00  7.908191528080E+00  8.003089826417E+00
  8.099126904334E+00  8.196316427186E+00  8.294672224312E+00  8.394208291004E+00
  8.494938790496E+00  8.596878055982E+00  8.700040592653E+00  8.804441079765E+00
  8.910094372722E+00  9.017015505195E+00  9.125219691257E+00  9.234722327553E+00
  9.345538995483E+00  9.457685463429E+00  9.571177688990E+00  9.686031821258E+00
  9.802264203113E+00  9.919891373550E+00  1.003893007003E+01  1.015939723087E+01
  1.028130999764E+01  1.040468571762E+01  1.052954194623E+01  1.065589644958E+01
  1.078376720698E+01  1.091317241346E+01  1.104413048242E+01  1.117666004821E+01
  1.131077996879E+01  1.144650932842E+01  1.158386744036E+01  1.172287384964E+01
  1.186354833584E+01  1.200591091587E+01  1.214998184686E+01  1.229578162902E+01
  1.244333100857E+01  1.259265098067E+01  1.274376279244E+01  1.289668794595E+01
  1.305144820130E+01  1.320806557971E+01  1.336656236667E+01  1.352696111507E+01
  1.368928464845E+01  1.385355606423E+01  1.401979873700E+01  1.418803632185E+01
  1.435829275771E+01  1.453059227080E+01  1.470495937805E+01  1.488141889059E+01
  1.505999591728E+01  1.524071586828E+01  1.542360445870E+01  1.560868771221E+01
  1.579599196475E+01  1.598554386833E+01  1.617737039475E+01  1.637149883949E+01
  1.656795682556E+01  1.676677230747E+01  1.696797357516E+01  1.717158925806E+01
  1.737764832916E+01  1.758618010911E+01  1.779721427042E+01  1.801078084166E+01
  1.822691021176E+01  1.844563313430E+01  1.866698073191E+01  1.889098450070E+01
  1.911767631470E+01  1.934708843048E+01  1.957925349165E+01  1.981420453355E+01
  2.005197498795E+01  2.029259868780E+01  2.053610987206E+01  2.078254319052E+01
  2.103193370881E+01  2.128431691331E+01  2.153972871627E+01  2.179820546087E+01
  2.205978392640E+01  2.232450133352E+01  2.259239534952E+01  2.286350409371E+01
  2.313786614284E+01  2.341552053655E+01  2.369650678299E+01  2.398086486439E+01
  2.426863524276E+01  2.455985886567E+01  2.485457717206E+01  2.515283209812E+01
  2.545466608330E+01  2.576012207630E+01  2.606924354122E+01  2.638207446371E+01
  2.669865935728E+01  2.701904326956E+01  2.734327178880E+01  2.767139105026E+01
  2.800344774287E+01  2.833948911578E+01  2.867956298517E+01  2.902371774099E+01
  2.937200235389E+01  2.972446638213E+01  3.008115997872E+01  3.044213389846E+01
  3.080743950524E+01  3.117712877931E+01  3.155125432466E+01  3.192986937655E+01
  3.231302780907E+01  3.270078414278E+01  3.309319355250E+01  3.349031187513E+01
  3.389219561763E+01  3.429890196504E+01  3.471048878862E+01  3.512701465408E+01
  3.554853882993E+01  3.597512129589E+01  3.640682275144E+01  3.684370462446E+01
  3.728582907995E+01  3.773325902891E+01  3.818605813726E+01  3.864429083490E+01
  3.910802232492E+01  3.957731859282E+01  4.005224641594E+01  4.053287337293E+01
  4.101926785340E+01  4.151149906764E+01  4.200963705646E+01  4.251375270113E+01
  4.302391773355E+01  4.354020474635E+01  4.406268720331E+01

</grid-data>
</grid>
<semilocal-potentials set="scalar_relativistic">
<slps n="6" l="s" rc="3.00923196317" flavor="Hamann's oncvpsp">
<radfunc>
<data>
 -7.164387334048E+00 -7.164389256461E+00 -7.164389280093E+00 -7.164389303446E+00
 -7.164389326522E+00 -7.164389349323E+00 -7.164389371855E+00 -7.164389394120E+00
 -7.164389416121E+00 -7.164389437861E+00 -7.164389459345E+00 -7.164389480573E+00
 -7.164389501551E+00 -7.164389522279E+00 -7.164389542763E+00 -7.164389563004E+00
 -7.164389583005E+00 -7.164389602770E+00 -7.164389622301E+00 -7.164389641600E+00
 -7.164389660671E+00 -7.164389679517E+00 -7.164389698139E+00 -7.164389716541E+00
 -7.164389734726E+00 -7.164389752695E+00 -7.164389770452E+00 -7.164389787998E+00