<?xml version="1.0" encoding="UTF-8" ?>
<psml version="0.8" energy_unit="hartree" length_unit="bohr">
<provenance creator="ATM3.4.0" date="18-FEB-15">
<input-file name="INP">
#
#  Note that this configuration is ionic (+2)
#
   pg Ba with 5s as semicore, 5p in valence -- soft Vf
        tm2     3.00
 n=Ba c=car
       0.0       0.0      0.0       0.0       0.0        0.0
    9    4
    5    0      2.00                            # 5s2
    5    1      6.00                            # 5p6
    5    2      0.00
    4    3      0.00
      1.75      2.00      2.50      2.50     0.00       0.00

#23456789012345678901234567890123456789012345678901234567890      Ruler

</input-file>
</provenance>
<header atomic-label="Ba" atomic-number="56." z-pseudo="10."
 flavor="Troullier-Martins" relativity="dirac" polarized="no"
 core-corrections="no">
<exchange-correlation>
<annotation atom-xc-code="ca" siesta-xc-type="LDA" siesta-xc-authors="CA" />
<libxc-info number-of-functionals="2">
<functional name="XC_LDA_X" type="XC_EXCHANGE" id="1" />
<functional name="XC_LDA_C_PZ" type="XC_CORRELATION" id="9" />
</libxc-info>
</exchange-correlation>
<valence-configuration total-valence-charge="8.">
<shell n="5" l="s" occupation="2." />
<shell n="5" l="p" occupation="6." />
</valence-configuration>
</header>
<grid npts="1186">
<annotation type="log-atom" nrval="1186" scale="0.442634317262E-04"
 step="0.125000000000E-01" />
<grid-data>
  0.000000000000E+00  5.567654309900E-07  1.120534108973E-06  1.691394123953E-06
  2.269434673967E-06  2.854746079028E-06  3.447419795234E-06  4.047548429058E-06
  4.655225751822E-06  5.270546714342E-06  5.893607461771E-06  6.524505348618E-06
  7.163338953962E-06  7.810208096854E-06  8.465213851912E-06  9.128458565120E-06
  9.800045869812E-06  1.048008070287E-05  1.116866932112E-05  1.186591931794E-05
  1.257193964006E-05  1.328684060458E-05  1.401073391625E-05  1.474373268485E-05
  1.548595144294E-05  1.623750616372E-05  1.699851427913E-05  1.776909469824E-05
  1.854936782582E-05  1.933945558111E-05  2.013948141695E-05  2.094957033900E-05
  2.176984892530E-05  2.260044534604E-05  2.344148938361E-05  2.429311245285E-05
  2.515544762160E-05  2.602862963148E-05  2.691279491896E-05  2.780808163666E-05
  2.871462967496E-05  2.963258068382E-05  3.056207809497E-05  3.150326714426E-05
  3.245629489439E-05  3.342131025790E-05  3.439846402039E-05  3.538790886414E-05
  3.638979939190E-05  3.740429215111E-05  3.843154565834E-05  3.947172042402E-05
  4.052497897759E-05  4.159148589284E-05  4.267140781363E-05  4.376491347998E-05
  4.487217375435E-05  4.599336164844E-05  4.712865235011E-05  4.827822325086E-05
  4.944225397348E-05  5.062092640014E-05  5.181442470079E-05  5.302293536199E-05
  5.424664721597E-05  5.548575147021E-05  5.674044173726E-05  5.801091406504E-05
  5.929736696742E-05  6.060000145530E-05  6.191902106796E-05  6.325463190490E-05
  6.460704265802E-05  6.597646464427E-05  6.736311183861E-05  6.876720090749E-05
  7.018895124268E-05  7.162858499556E-05  7.308632711184E-05  7.456240536669E-05
  7.605705040034E-05  7.757049575412E-05  7.910297790693E-05  8.065473631224E-05
  8.222601343546E-05  8.381705479183E-05  8.542810898480E-05  8.705942774486E-05
  8.871126596889E-05  9.038388175998E-05  9.207753646774E-05  9.379249472917E-05
  9.552902450999E-05  9.728739714650E-05  9.906788738801E-05  1.008707734397E-04
  1.026963370063E-04  1.045448633357E-04  1.064166412640E-04  1.083119632603E-04
  1.102311254724E-04  1.121744277734E-04  1.141421738082E-04  1.161346710412E-04
  1.181522308041E-04  1.201951683447E-04  1.222638028761E-04  1.243584576267E-04
  1.264794598907E-04  1.286271410788E-04  1.308018367706E-04  1.330038867669E-04
  1.352336351423E-04  1.374914302996E-04  1.397776250238E-04  1.420925765376E-04
  1.444366465569E-04  1.468102013473E-04  1.492136117816E-04  1.516472533976E-04
  1.541115064567E-04  1.566067560035E-04  1.591333919258E-04  1.616918090157E-04
  1.642824070309E-04  1.669055907577E-04  1.695617700739E-04  1.722513600129E-04
  1.749747808286E-04  1.777324580611E-04  1.805248226030E-04  1.833523107670E-04
  1.862153643538E-04  1.891144307214E-04  1.920499628549E-04  1.950224194370E-04
  1.980322649203E-04  2.010799695990E-04  2.041660096834E-04  2.072908673735E-04
  2.104550309345E-04  2.136589947736E-04  2.169032595166E-04  2.201883320864E-04
  2.235147257823E-04  2.268829603602E-04  2.302935621135E-04  2.337470639556E-04
  2.372440055034E-04  2.407849331609E-04  2.443704002053E-04  2.480009668733E-04
  2.516772004481E-04  2.553996753488E-04  2.591689732197E-04  2.629856830212E-04
  2.668504011219E-04  2.707637313920E-04  2.747262852973E-04  2.787386819948E-04
  2.828015484298E-04  2.869155194333E-04  2.910812378218E-04  2.952993544971E-04
  2.995705285486E-04  3.038954273559E-04  3.082747266933E-04  3.127091108352E-04
  3.171992726632E-04  3.217459137741E-04  3.263497445899E-04  3.310114844685E-04
  3.357318618163E-04  3.405116142018E-04  3.453514884710E-04  3.502522408642E-04
  3.552146371339E-04  3.602394526646E-04  3.653274725940E-04  3.704794919355E-04
  3.756963157025E-04  3.809787590346E-04  3.863276473241E-04  3.917438163458E-04
  3.972281123870E-04  4.027813923802E-04  4.084045240368E-04  4.140983859823E-04
  4.198638678944E-04  4.257018706414E-04  4.316133064230E-04  4.375990989131E-04
  4.436601834040E-04  4.497975069525E-04  4.560120285278E-04  4.623047191615E-04
  4.686765620995E-04  4.751285529551E-04  4.816616998650E-04  4.882770236467E-04
  4.949755579581E-04  5.017583494586E-04  5.086264579734E-04  5.155809566583E-04
  5.226229321679E-04  5.297534848252E-04  5.369737287935E-04  5.442847922507E-04
  5.516878175654E-04  5.591839614751E-04  5.667743952679E-04  5.744603049642E-04
  5.822428915032E-04  5.901233709298E-04  5.981029745851E-04  6.061829492982E-04
  6.143645575817E-04  6.226490778285E-04  6.310378045118E-04  6.395320483871E-04
  6.481331366974E-04  6.568424133802E-04  6.656612392778E-04  6.745909923495E-04
  6.836330678875E-04  6.927888787345E-04  7.020598555045E-04  7.114474468066E-04
  7.209531194710E-04  7.305783587783E-04  7.403246686918E-04  7.501935720923E-04
  7.601866110159E-04  7.703053468954E-04  7.805513608038E-04  7.909262537017E-04
  8.014316466870E-04  8.120691812490E-04  8.228405195240E-04  8.337473445555E-04
  8.447913605571E-04  8.559742931788E-04  8.672978897766E-04  8.787639196854E-04
  8.903741744958E-04  9.021304683337E-04  9.140346381440E-04  9.260885439773E-04
  9.382940692811E-04  9.506531211934E-04  9.631676308413E-04  9.758395536423E-04
  9.886708696102E-04  1.001663583664E-03  1.014819725942E-03  1.028141352119E-03
  1.041630543724E-03  1.055289408473E-03  1.069120080589E-03  1.083124721145E-03
  1.097305518394E-03  1.111664688113E-03  1.126204473953E-03  1.140927147784E-03
  1.155835010055E-03  1.170930390149E-03  1.186215646750E-03  1.201693168210E-03
  1.217365372924E-03  1.233234709706E-03  1.249303658171E-03  1.265574729126E-03
  1.282050464958E-03  1.298733440035E-03  1.315626261106E-03  1.332731567708E-03
  1.350052032580E-03  1.367590362080E-03  1.385349296608E-03  1.403331611033E-03
  1.421540115129E-03  1.439977654011E-03  1.458647108583E-03  1.477551395984E-03
  1.496693470048E-03  1.516076321763E-03  1.535702979740E-03  1.555576510682E-03
  1.575700019870E-03  1.596076651644E-03  1.616709589893E-03  1.637602058556E-03
  1.658757322123E-03  1.680178686148E-03  1.701869497762E-03  1.723833146199E-03
  1.746073063324E-03  1.768592724168E-03  1.791395647475E-03  1.814485396248E-03
  1.837865578307E-03  1.861539846853E-03  1.885511901039E-03  1.909785486546E-03
  1.934364396173E-03  1.959252470423E-03  1.984453598109E-03  2.009971716958E-03
  2.035810814229E-03  2.061974927333E-03  2.088468144465E-03  2.115294605246E-03
  2.142458501363E-03  2.169964077231E-03  2.197815630652E-03  2.226017513489E-03
  2.254574132342E-03  2.283489949241E-03  2.312769482342E-03  2.342417306632E-03
  2.372438054642E-03  2.402836417176E-03  2.433617144041E-03  2.464785044787E-03
  2.496344989462E-03  2.528301909371E-03  2.560660797849E-03  2.593426711038E-03
  2.626604768678E-03  2.660200154908E-03  2.694218119076E-03  2.728663976558E-03
  2.763543109589E-03  2.798860968104E-03  2.834623070591E-03  2.870835004952E-03
  2.907502429374E-03  2.944631073217E-03  2.982226737907E-03  3.020295297844E-03
  3.058842701317E-03  3.097874971437E-03  3.137398207076E-03  3.177418583818E-03
  3.217942354930E-03  3.258975852333E-03  3.300525487594E-03  3.342597752930E-03
  3.385199222216E-03  3.428336552019E-03  3.472016482634E-03  3.516245839141E-03
  3.561031532464E-03  3.606380560461E-03  3.652300009009E-03  3.698797053115E-03
  3.745878958037E-03  3.793553080419E-03  3.841826869439E-03  3.890707867974E-03
  3.940203713781E-03  3.990322140687E-03  4.041070979796E-03  4.092458160718E-03
  4.144491712806E-03  4.197179766407E-03  4.250530554137E-03  4.304552412165E-03
  4.359253781517E-03  4.414643209392E-03  4.470729350501E-03  4.527520968419E-03
  4.585026936950E-03  4.643256241520E-03  4.702217980576E-03  4.761921367009E-03
  4.822375729595E-03  4.883590514452E-03  4.945575286513E-03  5.008339731026E-03
  5.071893655063E-03  5.136246989053E-03  5.201409788337E-03  5.267392234733E-03
  5.334204638135E-03  5.401857438114E-03  5.470361205560E-03  5.539726644325E-03
  5.609964592900E-03  5.681086026107E-03  5.753102056816E-03  5.826023937677E-03
  5.899863062882E-03  5.974630969946E-03  6.050339341506E-03  6.127000007148E-03
  6.204624945259E-03  6.283226284891E-03  6.362816307666E-03  6.443407449685E-03
  6.525012303478E-03  6.607643619970E-03  6.691314310473E-03  6.776037448701E-03
  6.861826272818E-03  6.948694187502E-03  7.036654766042E-03  7.125721752455E-03
  7.215909063642E-03  7.307230791551E-03  7.399701205390E-03  7.493334753848E-03
  7.588146067358E-03  7.684149960381E-03  7.781361433719E-03  7.879795676865E-03
  7.979468070367E-03  8.080394188241E-03  8.182589800398E-03  8.286070875110E-03
  8.390853581506E-03  8.496954292097E-03  8.604389585334E-03  8.713176248201E-03
  8.823331278835E-03  8.934871889183E-03  9.047815507694E-03  9.162179782037E-03
  9.277982581863E-03  9.395242001595E-03  9.513976363256E-03  9.634204219331E-03
  9.755944355667E-03  9.879215794409E-03  1.000403779697E-02  1.013042986704E-02
  1.025841175364E-02  1.038800345420E-02  1.051922521768E-02  1.065209754776E-02
  1.078664120600E-02  1.092287721513E-02  1.106082686229E-02  1.120051170241E-02
  1.134195356152E-02  1.148517454020E-02  1.163019701702E-02  1.177704365204E-02
  1.192573739034E-02  1.207630146562E-02  1.222875940383E-02  1.238313502682E-02
  1.253945245611E-02  1.269773611660E-02  1.285801074045E-02  1.302030137089E-02
  1.318463336616E-02  1.335103240347E-02  1.351952448301E-02  1.369013593200E-02
  1.386289340883E-02  1.403782390722E-02  1.421495476041E-02  1.439431364544E-02
  1.457592858752E-02  1.475982796435E-02  1.494604051058E-02  1.513459532230E-02
  1.532552186158E-02  1.551884996108E-02  1.571460982871E-02  1.591283205235E-02
  1.611354760463E-02  1.631678784775E-02  1.652258453843E-02  1.673096983280E-02
  1.694197629150E-02  1.715563688472E-02  1.737198499735E-02  1.759105443424E-02
  1.781287942542E-02  1.803749463150E-02  1.826493514907E-02  1.849523651616E-02
  1.872843471785E-02  1.896456619181E-02  1.920366783407E-02  1.944577700476E-02
  1.969093153391E-02  1.993916972743E-02  2.019053037304E-02  2.044505274635E-02
  2.070277661699E-02  2.096374225486E-02  2.122799043635E-02  2.149556245079E-02
  2.176650010685E-02  2.204084573908E-02  2.231864221456E-02  2.259993293954E-02
  2.288476186627E-02  2.317317349985E-02  2.346521290520E-02  2.376092571405E-02
  2.406035813213E-02  2.436355694638E-02  2.467056953222E-02  2.498144386099E-02
  2.529622850744E-02  2.561497265731E-02  2.593772611503E-02  2.626453931147E-02
  2.659546331187E-02  2.693054982377E-02  2.726985120512E-02  2.761342047245E-02
  2.796131130917E-02  2.831357807392E-02  2.867027580909E-02  2.903146024944E-02
  2.939718783078E-02  2.976751569877E-02  3.014250171790E-02  3.052220448050E-02
  3.090668331591E-02  3.129599829971E-02  3.169021026317E-02  3.208938080271E-02
  3.249357228953E-02  3.290284787939E-02  3.331727152242E-02  3.373690797316E-02
  3.416182280066E-02  3.459208239873E-02  3.502775399631E-02  3.546890566796E-02
  3.591560634453E-02  3.636792582392E-02  3.682593478196E-02  3.728970478349E-02
  3.775930829350E-02  3.823481868851E-02  3.871631026798E-02  3.920385826595E-02
  3.969753886278E-02  4.019742919708E-02  4.070360737773E-02  4.121615249609E-02
  4.173514463838E-02  4.226066489819E-02  4.279279538911E-02  4.333161925764E-02
  4.387722069608E-02  4.442968495577E-02  4.498909836038E-02  4.555554831940E-02
  4.612912334177E-02  4.670991304977E-02  4.729800819296E-02  4.789350066242E-02
  4.849648350504E-02  4.910705093813E-02  4.972529836409E-02  5.035132238534E-02
  5.098522081940E-02  5.162709271420E-02  5.227703836352E-02  5.293515932269E-02
  5.360155842446E-02  5.427633979504E-02  5.495960887038E-02  5.565147241268E-02
  5.635203852702E-02  5.706141667828E-02  5.777971770824E-02  5.850705385289E-02
  5.924353876000E-02  5.998928750682E-02  6.074441661811E-02  6.150904408434E-02
  6.228328938009E-02  6.306727348278E-02  6.386111889152E-02  6.466494964625E-02
  6.547889134719E-02  6.630307117436E-02  6.713761790756E-02  6.798266194639E-02
  6.883833533072E-02  6.970477176125E-02  7.058210662043E-02  7.147047699362E-02
  7.237002169050E-02  7.328088126676E-02  7.420319804606E-02  7.513711614227E-02
  7.608278148200E-02  7.704034182738E-02  7.800994679916E-02  7.899174790009E-02
  7.998589853860E-02  8.099255405273E-02  8.201187173446E-02  8.304401085426E-02
  8.408913268597E-02  8.514740053198E-02  8.621897974881E-02  8.730403777290E-02
  8.840274414676E-02  8.951527054550E-02  9.064179080363E-02  9.178248094224E-02
  9.293751919649E-02  9.410708604344E-02  9.529136423029E-02  9.649053880294E-02
  9.770479713483E-02  9.893432895631E-02  1.001793263842E-01  1.014399839520E-01
  1.027164986398E-01  1.040090699058E-01  1.053178997168E-01  1.066431925802E-01
  1.079851555756E-01  1.093439983876E-01  1.107199333380E-01  1.121131754195E-01
  1.135239423290E-01  1.149524545017E-01  1.163989351456E-01  1.178636102761E-01
  1.193467087518E-01  1.208484623098E-01  1.223691056022E-01  1.239088762325E-01
  1.254680147931E-01  1.270467649025E-01  1.286453732436E-01  1.302640896023E-01
  1.319031669063E-01  1.335628612647E-01  1.352434320082E-01  1.369451417294E-01
  1.386682563238E-01  1.404130450316E-01  1.421797804796E-01  1.439687387239E-01
  1.457801992927E-01  1.476144452305E-01  1.494717631420E-01  1.513524432368E-01
  1.532567793750E-01  1.551850691131E-01  1.571376137502E-01  1.591147183754E-01
  1.611166919153E-01  1.631438471824E-01  1.651965009238E-01  1.672749738707E-01
  1.693795907890E-01  1.715106805291E-01  1.736685760783E-01  1.758536146120E-01
  1.780661375471E-01  1.803064905947E-01  1.825750238145E-01  1.848720916696E-01
  1.871980530813E-01  1.895532714859E-01  1.919381148911E-01  1.943529559335E-01
  1.967981719369E-01  1.992741449713E-01  2.017812619126E-01  2.043199145028E-01
  2.068904994115E-01  2.094934182980E-01  2.121290778736E-01  2.147978899654E-01
  2.175002715808E-01  2.202366449724E-01  2.230074377041E-01  2.258130827179E-01
  2.286540184015E-01  2.315306886570E-01  2.344435429699E-01  2.373930364796E-01
  2.403796300504E-01  2.434037903438E-01  2.464659898909E-01  2.495667071666E-01
  2.527064266643E-01  2.558856389715E-01  2.591048408467E-01  2.623645352966E-01
  2.656652316553E-01  2.690074456631E-01  2.723916995479E-01  2.758185221062E-01
  2.792884487859E-01  2.828020217703E-01  2.863597900621E-01  2.899623095700E-01
  2.936101431950E-01  2.973038609185E-01  3.010440398913E-01  3.048312645241E-01
  3.086661265784E-01  3.125492252592E-01  3.164811673087E-01  3.204625671006E-01
  3.244940467369E-01  3.285762361444E-01  3.327097731736E-01  3.368953036980E-01
  3.411334817153E-01  3.454249694493E-01  3.497704374539E-01  3.541705647172E-01
  3.586260387681E-01  3.631375557833E-01  3.677058206968E-01  3.723315473090E-01
  3.770154583994E-01  3.817582858383E-01  3.865607707024E-01  3.914236633896E-01
  3.963477237369E-01  4.013337211386E-01  4.063824346670E-01  4.114946531938E-01
  4.166711755137E-01  4.219128104687E-01  4.272203770750E-01  4.325947046506E-01
  4.380366329452E-01  4.435470122712E-01  4.491267036365E-01  4.547765788792E-01
  4.604975208039E-01  4.662904233193E-01  4.721561915783E-01  4.780957421191E-01
  4.841100030086E-01  4.901999139872E-01  4.963664266159E-01  5.026105044250E-01
  5.089331230641E-01  5.153352704554E-01  5.218179469475E-01  5.283821654716E-01
  5.350289517004E-01  5.417593442076E-01  5.485743946308E-01  5.554751678356E-01
  5.624627420816E-01  5.695382091917E-01  5.767026747220E-01  5.839572581348E-01
  5.913030929735E-01  5.987413270397E-01  6.062731225727E-01  6.138996564308E-01
  6.216221202755E-01  6.294417207574E-01  6.373596797050E-01  6.453772343155E-01
  6.534956373482E-01  6.617161573201E-01  6.700400787040E-01  6.784687021297E-01
  6.870033445867E-01  6.956453396303E-01  7.043960375897E-01  7.132568057794E-01
  7.222290287123E-01  7.313141083167E-01  7.405134641545E-01  7.498285336440E-01
  7.592607722837E-01  7.688116538800E-01  7.784826707776E-01  7.882753340927E-01
  7.981911739486E-01  8.082317397158E-01  8.183986002528E-01  8.286933441524E-01
  8.391175799893E-01  8.496729365716E-01  8.603610631950E-01  8.711836299013E-01
  8.821423277385E-01  8.932388690253E-01  9.044749876190E-01  9.158524391859E-01
  9.273730014760E-01  9.390384746006E-01  9.508506813136E-01  9.628114672963E-01
  9.749227014458E-01  9.871862761673E-01  9.996041076691E-01  1.012178136263E+00
  1.024910326666E+00  1.037802668308E+00  1.050857175646E+00  1.064075888471E+00
  1.077460872235E+00  1.091014218369E+00  1.104738044611E+00  1.118634495335E+00
  1.132705741892E+00  1.146953982942E+00  1.161381444801E+00  1.175990381790E+00
  1.190783076585E+00  1.205761840574E+00  1.220929014221E+00  1.236286967426E+00
  1.251838099902E+00  1.267584841544E+00  1.283529652812E+00  1.299675025116E+00
  1.316023481204E+00  1.332577575554E+00  1.349339894778E+00  1.366313058021E+00
  1.383499717377E+00  1.400902558293E+00  1.418524300002E+00  1.436367695934E+00
  1.454435534157E+00  1.472730637808E+00  1.491255865533E+00  1.510014111938E+00
  1.529008308036E+00  1.548241421709E+00  1.567716458171E+00  1.587436460435E+00
  1.607404509792E+00  1.627623726290E+00  1.648097269223E+00  1.668828337623E+00
  1.689820170763E+00  1.711076048659E+00  1.732599292585E+00  1.754393265591E+00
  1.776461373031E+00  1.798807063091E+00  1.821433827331E+00  1.844345201228E+00
  1.867544764731E+00  1.891036142820E+00  1.914823006069E+00  1.938909071225E+00
  1.963298101785E+00  1.987993908583E+00  2.013000350391E+00  2.038321334515E+00
  2.063960817411E+00  2.089922805300E+00  2.116211354795E+00  2.142830573537E+00
  2.169784620831E+00  2.197077708304E+00  2.224714100554E+00  2.252698115825E+00
  2.281034126676E+00  2.309726560666E+00  2.338779901047E+00  2.368198687462E+00
  2.397987516656E+00  2.428151043195E+00  2.458693980191E+00  2.489621100039E+00
  2.520937235166E+00  2.552647278781E+00  2.584756185643E+00  2.617268972834E+00
  2.650190720543E+00  2.683526572860E+00  2.717281738580E+00  2.751461492017E+00
  2.786071173825E+00  2.821116191839E+00  2.856602021914E+00  2.892534208783E+00
  2.928918366924E+00  2.965760181434E+00  3.003065408923E+00  3.040839878408E+00
  3.079089492226E+00  3.117820226959E+00  3.157038134362E+00  3.196749342312E+00
  3.236960055767E+00  3.277676557733E+00  3.318905210246E+00  3.360652455366E+00
  3.402924816187E+00  3.445728897849E+00  3.489071388578E+00  3.532959060727E+00
  3.577398771832E+00  3.622397465691E+00  3.667962173439E+00  3.714100014656E+00
  3.760818198473E+00  3.808124024701E+00  3.856024884972E+00  3.904528263893E+00
  3.953641740214E+00  4.003372988018E+00  4.053729777913E+00  4.104719978248E+00
  4.156351556348E+00  4.208632579751E+00  4.261571217473E+00  4.315175741284E+00
  4.369454527001E+00  4.424416055793E+00  4.480068915512E+00  4.536421802030E+00
  4.593483520600E+00  4.651262987232E+00  4.709769230085E+00  4.769011390879E+00
  4.828998726321E+00  4.889740609555E+00  4.951246531624E+00  5.013526102953E+00
  5.076589054853E+00  5.140445241036E+00  5.205104639163E+00  5.270577352396E+00
  5.336873610980E+00  5.404003773840E+00  5.471978330200E+00  5.540807901223E+00
  5.610503241670E+00  5.681075241579E+00  5.752534927970E+00  5.824893466562E+00
  5.898162163526E+00  5.972352467244E+00  6.047475970103E+00  6.123544410301E+00
  6.200569673689E+00  6.278563795619E+00  6.357538962832E+00  6.437507515359E+00
  6.518481948449E+00  6.600474914522E+00  6.683499225145E+00  6.767567853035E+00
  6.852693934088E+00  6.938890769426E+00  7.026171827481E+00  7.114550746094E+00
  7.204041334653E+00  7.294657576243E+00  7.386413629837E+00  7.479323832504E+00
  7.573402701653E+00  7.668664937299E+00  7.765125424360E+00  7.862799234983E+00
  7.961701630899E+00  8.061848065810E+00  8.163254187799E+00  8.265935841779E+00
  8.369909071969E+00  8.475190124395E+00  8.581795449438E+00  8.689741704396E+00
  8.799045756091E+00  8.909724683503E+00  9.021795780440E+00  9.135276558239E+00
  9.250184748503E+00  9.366538305869E+00  9.484355410819E+00  9.603654472513E+00
  9.724454131674E+00  9.846773263494E+00  9.970630980586E+00  1.009604663597E+01
  1.022303982610E+01  1.035163039391E+01  1.048183843196E+01  1.061368428549E+01
  1.074718855571E+01  1.088237210292E+01  1.101925604983E+01  1.115786178484E+01
  1.129821096536E+01  1.144032552125E+01  1.158422765819E+01  1.172993986119E+01
  1.187748489807E+01  1.202688582306E+01  1.217816598033E+01  1.233134900773E+01
  1.248645884042E+01  1.264351971463E+01  1.280255617143E+01  1.296359306059E+01
  1.312665554446E+01  1.329176910188E+01  1.345895953219E+01  1.362825295921E+01
  1.379967583541E+01  1.397325494595E+01  1.414901741292E+01  1.432699069956E+01
  1.450720261456E+01  1.468968131640E+01  1.487445531775E+01  1.506155348993E+01
  1.525100506739E+01  1.544283965234E+01  1.563708721933E+01  1.583377811992E+01
  1.603294308747E+01  1.623461324191E+01  1.643882009462E+01  1.664559555333E+01
  1.685497192713E+01  1.706698193150E+01  1.728165869344E+01  1.749903575662E+01
  1.771914708666E+01  1.794202707639E+01  1.816771055128E+01  1.839623277482E+01
  1.862762945407E+01  1.886193674524E+01  1.909919125932E+01  1.933943006781E+01
  1.958269070851E+01  1.982901119138E+01  2.007843000452E+01  2.033098612011E+01
  2.058671900056E+01  2.084566860465E+01  2.110787539379E+01  2.137338033833E+01
  2.164222492394E+01  2.191445115814E+01  2.219010157684E+01  2.246921925097E+01
  2.275184779324E+01  2.303803136493E+01  2.332781468281E+01  2.362124302611E+01
  2.391836224361E+01  2.421921876079E+01  2.452385958709E+01  2.483233232326E+01
  2.514468516879E+01  2.546096692946E+01  2.578122702493E+01  2.610551549648E+01
  2.643388301486E+01  2.676638088816E+01  2.710306106985E+01  2.744397616688E+01
  2.778917944795E+01  2.813872485175E+01  2.849266699548E+01  2.885106118331E+01
  2.921396341507E+01  2.958143039496E+01  2.995351954045E+01  3.033028899123E+01
  3.071179761828E+01  3.109810503311E+01  3.148927159704E+01  3.188535843064E+01
  3.228642742328E+01  3.269254124281E+01  3.310376334534E+01  3.352015798516E+01
  3.394179022478E+01  3.436872594509E+01  3.480103185566E+01  3.523877550519E+01
  3.568202529200E+01  3.613085047477E+01  3.658532118336E+01  3.704550842972E+01
  3.751148411907E+01  3.798332106105E+01  3.846109298113E+01  3.894487453216E+01
  3.943474130598E+01  3.993076984528E+01  4.043303765553E+01  4.094162321708E+01
  4.145660599748E+01  4.197806646382E+01  4.250608609537E+01  4.304074739627E+01
  4.358213390843E+01  4.413033022460E+01  4.468542200157E+01  4.524749597356E+01
  4.581663996576E+01  4.639294290809E+01  4.697649484905E+01  4.756738696983E+01
  4.816571159851E+01  4.877156222453E+01  4.938503351330E+01  5.000622132095E+01
  5.063522270933E+01  5.127213596119E+01  5.191706059553E+01  5.257009738313E+01
  5.323134836231E+01  5.390091685490E+01  5.457890748232E+01  5.526542618199E+01
  5.596058022386E+01  5.666447822715E+01  5.737723017738E+01  5.809894744346E+01
  5.882974279521E+01  5.956973042087E+01  6.031902594502E+01  6.107774644662E+01
  6.184601047727E+01  6.262393807981E+01  6.341165080699E+01  6.420927174055E+01
  6.501692551036E+01  6.583473831398E+01  6.666283793632E+01  6.750135376963E+01
  6.835041683371E+01  6.921015979640E+01  7.008071699428E+01  7.096222445369E+01
  7.185481991197E+01  7.275864283896E+01  7.367383445883E+01  7.460053777215E+01
  7.553889757819E+01  7.648906049758E+01  7.745117499520E+01  7.842539140341E+01
  7.941186194549E+01  8.041074075949E+01  8.142218392225E+01  8.244634947381E+01
  8.348339744214E+01  8.453348986807E+01  8.559679083071E+01  8.667346647297E+01
  8.776368502762E+01  8.886761684354E+01  8.998543441230E+01  9.111731239518E+01
  9.226342765043E+01  9.342395926086E+01  9.459908856193E+01  9.578899916996E+01
  9.699387701091E+01  9.821391034939E+01  9.944928981810E+01  1.007002084476E+02
  1.019668616965E+02  1.032494474818E+02  1.045481662103E+02  1.058632208094E+02
  1.071948167591E+02  1.085431621239E+02  1.099084675855E+02  1.112909464757E+02
  1.126908148096E+02  1.141082913195E+02  1.155435974890E+02  1.169969575876E+02
  1.184685987058E+02  1.199587507905E+02

</grid-data>
</grid>
<semilocal-potentials set="scalar_relativistic">
<slps n="5" l="s" rc="1.73259929258" flavor="Troullier-Martins">
<radfunc>
<data>
 -2.166521229636E+00 -2.166521229635E+00 -2.166521229635E+00 -2.166521229633E+00
 -2.166521229631E+00 -2.166521229628E+00 -2.166521229624E+00 -2.166521229620E+00
 -2.166521229615E+00 -2.166521229609E+00 -2.166521229602E+00 -2.166521229595E+00
 -2.166521229587E+00 -2.166521229577E+00 -2.166521229567E+00 -2.166521229556E+00
 -2.166521229544E+00 -2.166521229530E+00 -2.166521229516E+00 -2.166521229501E+00
 -2.166521229484E+00 -2.166521229467E+00 -2.166521229448E+00 -2.166521229427E+00
 -2.166521229406E+00 -2.166521229383E+00 -2.166521229359E+00 -2.166521229333E+00
 -2.166521229306E+00 -2.166521229277E+00 -2.166521229247E+00 -2.166521229215E+00
 -2.166521229182E+00 -2.166521229146E+00 -2.166521229109E+00 -2.166521229070E+00
 -2.166521229029E+00 -2.166521228986E+00 -2.166521228942E+00 -2.166521228895E+00
 -2.166521228846E+00 -2.166521228794E+00 -2.166521228741E+00 -2.166521228685E+00
 -2.166521228626E+00 -2.166521228565E+00 -2.166521228502E+00 -2.166521228436E+00
 -2.166521228367E+00 -2.166521228295E+00 -2.166521228220E+00 -2.166521228143E+00
 -2.166521228062E+00 -2.166521227978E+00 -2.166521227891E+00 -2.166521227800E+00
 -2.166521227706E+00 -2.166521227608E+00 -2.166521227507E+00 -2.166521227402E+00
 -2.166521227293E+00 -2.166521227180E+00 -2.166521227063E+00 -2.166521226941E+00
 -2.166521226815E+00 -2.166521226685E+00 -2.166521226550E+00 -2.166521226410E+00
 -2.166521226266E+00 -2.166521226116E+00 -2.166521225961E+00 -2.166521225801E+00
 -2.166521225635E+00 -2.166521225464E+00 -2.166521225287E+00 -2.166521225104E+00
 -2.166521224914E+00 -2.166521224718E+00 -2.166521224516E+00 -2.166521224307E+00
 -2.166521224092E+00 -2.166521223869E+00 -2.166521223639E+00 -2.166521223401E+00
 -2.166521223156E+00 -2.166521222903E+00 -2.166521222641E+00 -2.166521222372E+00
 -2.166521222093E+00 -2.166521221806E+00 -2.166521221510E+00 -2.166521221205E+00
 -2.166521220889E+00 -2.166521220565E+00 -2.166521220229E+00 -2.166521219884E+00
 -2.166521219528E+00 -2.166521219161E+00 -2.166521218782E+00 -2.166521218392E+00
 -2.166521217990E+00 -2.166521217576E+00 -2.166521217149E+00 -2.166521216709E+00
 -2.166521216256E+00 -2.166521215790E+00 -2.166521215309E+00 -2.166521214814E+00
 -2.166521214304E+00 -2.166521213779E+00 -2.166521213238E+00 -2.166521212682E+00
 -2.166521212108E+00 -2.166521211518E+00 -2.166521210911E+00 -2.166521210285E+00
 -2.166521209642E+00 -2.166521208979E+00 -2.166521208297E+00 -2.166521207595E+00
 -2.166521206873E+00 -2.166521206130E+00 -2.166521205366E+00 -2.166521204579E+00
 -2.166521203770E+00 -2.166521202937E+00 -2.166521202080E+00 -2.166521201199E+00
 -2.166521200293E+00 -2.166521199361E+00 -2.166521198402E+00 -2.166521197416E+00
 -2.166521196402E+00 -2.166521195359E+00 -2.166521194287E+00 -2.166521193184E+00
 -2.166521192050E+00 -2.166521190884E+00 -2.166521189686E+00 -2.166521188453E+00
 -2.166521187187E+00 -2.166521185884E+00 -2.166521184546E+00 -2.166521183169E+00
 -2.166521181755E+00 -2.166521180301E+00 -2.166521178806E+00 -2.166521177271E+00
 -2.166521175692E+00 -2.166521174070E+00 -2.166521172403E+00 -2.166521170689E+00
 -2.166521168929E+00 -2.166521167120E+00 -2.166521165261E+00 -2.166521163351E+00
 -2.166521161388E+00 -2.166521159372E+00 -2.166521157300E+00 -2.166521155172E+00
 -2.166521152985E+00 -2.166521150739E+00 -2.166521148432E+00 -2.166521146061E+00
 -2.166521143626E+00 -2.166521141125E+00 -2.166521138555E+00 -2.166521135916E+00
 -2.166521133205E+00 -2.166521130421E+00 -2.166521127561E+00 -2.166521124624E+00
 -2.166521121608E+00 -2.166521118510E+00 -2.166521115329E+00 -2.166521112062E+00
 -2.166521108706E+00 -2.166521105261E+00 -2.166521101723E+00 -2.166521098090E+00
 -2.166521094359E+00 -2.166521090528E+00 -2.166521086594E+00 -2.166521082556E+00
 -2.166521078409E+00 -2.166521074151E+00 -2.166521069779E+00 -2.166521065291E+00
 -2.166521060682E+00 -2.166521055951E+00 -2.166521051094E+00 -2.166521046108E+00
 -2.166521040989E+00 -2.166521035733E+00 -2.166521030338E+00 -2.166521024800E+00
 -2.166521019115E+00 -2.166521013278E+00 -2.166521007288E+00 -2.166521001138E+00
 -2.166520994826E+00 -2.166520988346E+00 -2.166520981696E+00 -2.166520974869E+00
 -2.166520967862E+00 -2.166520960670E+00 -2.166520953289E+00 -2.166520945712E+00
 -2.166520937936E+00 -2.166520929955E+00 -2.166520921764E+00 -2.166520913358E+00
 -2.166520904730E+00 -2.166520895876E+00 -2.166520886789E+00 -2.166520877463E+00