<?xml version="1.0" encoding="UTF-8" ?>
<psml version="0.8" energy_unit="hartree" length_unit="bohr">
<provenance creator="ATM3.4.0" date="15-FEB-15">
<input-file name="INP">
#
#  PS generation with core corrections
#  GGA (Perdew-Burke-Ernzerhof) XC , spin-polarized
#  3d7 4s1 configuration
#
   pe   Fe, GGA, rcore=0.70
        tm2      3.0
 n=Fe c=pbs
       0.0       0.0       0.0       0.0       0.0       0.0
    5    4
    4    0      1.00      0.00    # 4s1
    4    1      0.00      0.00    # 4p0
    3    2      4.00      3.00    # 3d(4,3)
    4    3      0.00      0.00    # 4f0
      2.00      2.00      2.00      2.00      0.00      0.70
#                                                        |
#                                       Radius of pseudocore
</input-file>
</provenance>
<header atomic-label="Fe" atomic-number="26." z-pseudo="8."
 flavor="Troullier-Martins" relativity="no" polarized="yes"
 core-corrections="yes">
<exchange-correlation>
<annotation atom-xc-code="pb" siesta-xc-type="GGA" siesta-xc-authors="PBE" />
<libxc-info number-of-functionals="2">
<functional name="XC_GGA_X_PBE" type="XC_EXCHANGE" id="101" />
<functional name="XC_GGA_C_PBE" type="XC_CORRELATION" id="130" />
</libxc-info>
</exchange-correlation>
<valence-configuration total-valence-charge="8.">
<shell n="4" l="s" occupation="1." occupation-down="1." occupation-up="0." />
<shell n="3" l="d" occupation="7." occupation-down="4." occupation-up="3." />
</valence-configuration>
</header>
<grid npts="1124">
<annotation type="log-atom" nrval="1124" scale="0.953366221795E-04"
 step="0.125000000000E-01" />
<grid-data>
  0.000000000000E+00  1.199187082132E-06  2.413458080865E-06  3.643002728513E-06
  4.888013143928E-06  6.148683862522E-06  7.425211866657E-06  8.717796616433E-06
  1.002664008085E-05  1.135194676935E-05  1.269392376381E-05  1.405278075087E-05
  1.542873005469E-05  1.682198667015E-05  1.823276829643E-05  1.966129537103E-05
  2.110779110421E-05  2.257248151388E-05  2.405559546088E-05  2.555736468480E-05
  2.707802384013E-05  2.861781053295E-05  3.017696535807E-05  3.175573193660E-05
  3.335435695404E-05  3.497309019878E-05  3.661218460121E-05  3.827189627314E-05
  3.995248454791E-05  4.165421202086E-05  4.337734459036E-05  4.512215149938E-05
  4.688890537756E-05  4.867788228378E-05  5.048936174932E-05  5.232362682153E-05
  5.418096410807E-05  5.606166382166E-05  5.796601982546E-05  5.989432967897E-05
  6.184689468453E-05  6.382401993439E-05  6.582601435839E-05  6.785319077225E-05
  6.990586592638E-05  7.198436055548E-05  7.408899942854E-05  7.622011139968E-05
  7.837802945947E-05  8.056309078701E-05  8.277563680257E-05  8.501601322097E-05
  8.728457010558E-05  8.958166192303E-05  9.190764759859E-05  9.426289057226E-05
  9.664775885553E-05  9.906262508894E-05  1.015078666002E-04  1.039838654634E-04
  1.064910085583E-04  1.090296876311E-04  1.116002993556E-04  1.142032453951E-04
  1.168389324652E-04  1.195077723974E-04  1.222101822033E-04  1.249465841401E-04
  1.277174057760E-04  1.305230800576E-04  1.333640453771E-04  1.362407456413E-04
  1.391536303404E-04  1.421031546184E-04  1.450897793447E-04  1.481139711854E-04
  1.511762026765E-04  1.542769522981E-04  1.574167045486E-04  1.605959500206E-04
  1.638151854777E-04  1.670749139319E-04  1.703756447226E-04  1.737178935956E-04
  1.771021827841E-04  1.805290410901E-04  1.839990039673E-04  1.875126136043E-04
  1.910704190099E-04  1.946729760984E-04  1.983208477767E-04  2.020146040321E-04
  2.057548220215E-04  2.095420861617E-04  2.133769882203E-04  2.172601274087E-04
  2.211921104751E-04  2.251735518001E-04  2.292050734917E-04  2.332873054837E-04
  2.374208856329E-04  2.416064598197E-04  2.458446820485E-04  2.501362145503E-04
  2.544817278857E-04  2.588819010501E-04  2.633374215793E-04  2.678489856576E-04
  2.724172982260E-04  2.770430730927E-04  2.817270330444E-04  2.864699099594E-04
  2.912724449218E-04  2.961353883375E-04  3.010595000513E-04  3.060455494657E-04
  3.110943156610E-04  3.162065875173E-04  3.213831638373E-04  3.266248534717E-04
  3.319324754452E-04  3.373068590845E-04  3.427488441480E-04  3.482592809568E-04
  3.538390305280E-04  3.594889647089E-04  3.652099663130E-04  3.710029292585E-04
  3.768687587078E-04  3.828083712085E-04  3.888226948372E-04  3.949126693443E-04
  4.010792463005E-04  4.073233892462E-04  4.136460738413E-04  4.200482880182E-04
  4.265310321359E-04  4.330953191364E-04  4.397421747027E-04  4.464726374197E-04
  4.532877589359E-04  4.601886041278E-04  4.671762512665E-04  4.742517921861E-04
  4.814163324543E-04  4.886709915451E-04  4.960169030137E-04  5.034552146737E-04
  5.109870887765E-04  5.186137021927E-04  5.263362465961E-04  5.341559286502E-04
  5.420739701960E-04  5.500916084436E-04  5.582100961655E-04  5.664307018917E-04
  5.747547101087E-04  5.831834214597E-04  5.917181529480E-04  6.003602381427E-04
  6.091110273872E-04  6.179718880102E-04  6.269442045392E-04  6.360293789168E-04
  6.452288307200E-04  6.545439973820E-04  6.639763344164E-04  6.735273156451E-04
  6.831984334284E-04  6.929911988980E-04  7.029071421936E-04  7.129478127014E-04
  7.231147792966E-04  7.334096305884E-04  7.438339751683E-04  7.543894418614E-04
  7.650776799807E-04  7.759003595853E-04  7.868591717409E-04  7.979558287840E-04
  8.091920645901E-04  8.205696348438E-04  8.320903173135E-04  8.437559121294E-04
  8.555682420643E-04  8.675291528190E-04  8.796405133099E-04  8.919042159619E-04
  9.043221770034E-04  9.168963367661E-04  9.296286599880E-04  9.425211361206E-04
  9.555757796395E-04  9.687946303592E-04  9.821797537521E-04  9.957332412710E-04
  1.009457210676E-03  1.023353806365E-03  1.037425199709E-03  1.051673589393E-03
  1.066101201756E-03  1.080710291142E-03  1.095503140250E-03  1.110482060495E-03
  1.125649392362E-03  1.141007505777E-03  1.156558800478E-03  1.172305706386E-03
  1.188250683987E-03  1.204396224716E-03  1.220744851346E-03  1.237299118384E-03
  1.254061612468E-03  1.271034952772E-03  1.288221791414E-03  1.305624813873E-03
  1.323246739407E-03  1.341090321477E-03  1.359158348179E-03  1.377453642680E-03
  1.395979063656E-03  1.414737505742E-03  1.433731899983E-03  1.452965214291E-03
  1.472440453912E-03  1.492160661890E-03  1.512128919548E-03  1.532348346968E-03
  1.552822103476E-03  1.573553388138E-03  1.594545440259E-03  1.615801539891E-03
  1.637325008342E-03  1.659119208698E-03  1.681187546347E-03  1.703533469511E-03
  1.726160469787E-03  1.749072082690E-03  1.772271888206E-03  1.795763511350E-03
  1.819550622738E-03  1.843636939154E-03  1.868026224134E-03  1.892722288553E-03
  1.917728991222E-03  1.943050239488E-03  1.968689989849E-03  1.994652248567E-03
  2.020941072298E-03  2.047560568724E-03  2.074514897197E-03  2.101808269383E-03
  2.129444949930E-03  2.157429257123E-03  2.185765563568E-03  2.214458296871E-03
  2.243511940329E-03  2.272931033633E-03  2.302720173577E-03  2.332884014774E-03
  2.363427270386E-03  2.394354712859E-03  2.425671174668E-03  2.457381549074E-03
  2.489490790888E-03  2.522003917244E-03  2.554926008384E-03  2.588262208453E-03
  2.622017726299E-03  2.656197836290E-03  2.690807879138E-03  2.725853262733E-03
  2.761339462987E-03  2.797272024692E-03  2.833656562382E-03  2.870498761217E-03
  2.907804377865E-03  2.945579241404E-03  2.983829254233E-03  3.022560392995E-03
  3.061778709509E-03  3.101490331717E-03  3.141701464640E-03  3.182418391350E-03
  3.223647473950E-03  3.265395154567E-03  3.307667956362E-03  3.350472484546E-03
  3.393815427413E-03  3.437703557387E-03  3.482143732077E-03  3.527142895350E-03
  3.572708078419E-03  3.618846400934E-03  3.665565072103E-03  3.712871391814E-03
  3.760772751775E-03  3.809276636670E-03  3.858390625332E-03  3.908122391919E-03
  3.958479707123E-03  4.009470439376E-03  4.061102556083E-03  4.113384124869E-03
  4.166323314833E-03  4.219928397834E-03  4.274207749773E-03  4.329169851910E-03
  4.384823292186E-03  4.441176766563E-03  4.498239080387E-03  4.556019149760E-03
  4.614526002935E-03  4.673768781728E-03  4.733756742943E-03  4.794499259822E-03
  4.856005823505E-03  4.918286044519E-03  4.981349654276E-03  5.045206506591E-03
  5.109866579229E-03  5.175339975457E-03  5.241636925626E-03  5.308767788771E-03
  5.376743054225E-03  5.445573343261E-03  5.515269410752E-03  5.585842146851E-03
  5.657302578691E-03  5.729661872110E-03  5.802931333395E-03  5.877122411048E-03
  5.952246697575E-03  6.028315931301E-03  6.105341998197E-03  6.183336933742E-03
  6.262312924805E-03  6.342282311544E-03  6.423257589339E-03  6.505251410741E-03
  6.588276587453E-03  6.672346092327E-03  6.757473061394E-03  6.843670795916E-03
  6.930952764464E-03  7.019332605025E-03  7.108824127127E-03  7.199441314003E-03
  7.291198324773E-03  7.384109496656E-03  7.478189347213E-03  7.573452576610E-03
  7.669914069923E-03  7.767588899454E-03  7.866492327096E-03  7.966639806709E-03
  8.068046986541E-03  8.170729711671E-03  8.274704026483E-03  8.379986177176E-03
  8.486592614299E-03  8.594539995325E-03  8.703845187252E-03  8.814525269239E-03
  8.926597535274E-03  9.040079496877E-03  9.154988885834E-03  9.271343656971E-03
  9.389161990959E-03  9.508462297152E-03  9.629263216465E-03  9.751583624287E-03
  9.875442633432E-03  1.000085959712E-02  1.012785411201E-02  1.025644602125E-02
  1.038665541759E-02  1.051850264651E-02  1.065200830941E-02  1.078719326683E-02
  1.092407864167E-02  1.106268582258E-02  1.120303646719E-02  1.134515250558E-02
  1.148905614367E-02  1.163476986671E-02  1.178231644274E-02  1.193171892624E-02
  1.208300066163E-02  1.223618528700E-02  1.239129673776E-02  1.254835925038E-02
  1.270739736621E-02  1.286843593527E-02  1.303150012017E-02  1.319661540001E-02
  1.336380757440E-02  1.353310276746E-02  1.370452743190E-02  1.387810835317E-02
  1.405387265365E-02  1.423184779686E-02  1.441206159179E-02  1.459454219720E-02
  1.477931812607E-02  1.496641825001E-02  1.515587180378E-02  1.534770838990E-02
  1.554195798323E-02  1.573865093565E-02  1.593781798084E-02  1.613949023906E-02
  1.634369922200E-02  1.655047683774E-02  1.675985539570E-02  1.697186761171E-02
  1.718654661310E-02  1.740392594390E-02  1.762403957009E-02  1.784692188485E-02
  1.807260771401E-02  1.830113232144E-02  1.853253141457E-02  1.876684114997E-02
  1.900409813903E-02  1.924433945363E-02  1.948760263196E-02  1.973392568439E-02
  1.998334709940E-02  2.023590584959E-02  2.049164139778E-02  2.075059370317E-02
  2.101280322759E-02  2.127831094180E-02  2.154715833193E-02  2.181938740593E-02
  2.209504070015E-02  2.237416128596E-02  2.265679277654E-02  2.294297933363E-02
  2.323276567446E-02  2.352619707873E-02  2.382331939571E-02  2.412417905134E-02
  2.442882305558E-02  2.473729900966E-02  2.504965511358E-02  2.536594017362E-02
  2.568620360996E-02  2.601049546441E-02  2.633886640824E-02  2.667136775008E-02
  2.700805144392E-02  2.734897009730E-02  2.769417697944E-02  2.804372602961E-02
  2.839767186558E-02  2.875606979209E-02  2.911897580955E-02  2.948644662277E-02
  2.985853964980E-02  3.023531303094E-02  3.061682563780E-02  3.100313708249E-02
  3.139430772697E-02  3.179039869245E-02  3.219147186894E-02  3.259758992495E-02
  3.300881631725E-02  3.342521530079E-02  3.384685193877E-02  3.427379211276E-02
  3.470610253305E-02  3.514385074901E-02  3.558710515969E-02  3.603593502449E-02
  3.649041047400E-02  3.695060252093E-02  3.741658307122E-02  3.788842493528E-02
  3.836620183936E-02  3.884998843708E-02  3.933986032107E-02  3.983589403481E-02
  4.033816708459E-02  4.084675795158E-02  4.136174610415E-02  4.188321201024E-02
  4.241123714996E-02  4.294590402831E-02  4.348729618808E-02  4.403549822290E-02
  4.459059579045E-02  4.515267562585E-02  4.572182555522E-02  4.629813450940E-02
  4.688169253783E-02  4.747259082264E-02  4.807092169289E-02  4.867677863900E-02
  4.929025632735E-02  4.991145061507E-02  5.054045856504E-02  5.117737846102E-02
  5.182230982305E-02  5.247535342297E-02  5.313661130016E-02  5.380618677751E-02
  5.448418447756E-02  5.517071033883E-02  5.586587163237E-02  5.656977697855E-02
  5.728253636402E-02  5.800426115888E-02  5.873506413410E-02  5.947505947913E-02
  6.022436281975E-02  6.098309123613E-02  6.175136328112E-02  6.252929899880E-02
  6.331701994321E-02  6.411464919735E-02  6.492231139240E-02  6.574013272724E-02
  6.656824098811E-02  6.740676556860E-02  6.825583748990E-02  6.911558942121E-02
  6.998615570053E-02  7.086767235561E-02  7.176027712521E-02  7.266410948066E-02
  7.357931064759E-02  7.450602362804E-02  7.544439322281E-02  7.639456605406E-02
  7.735669058822E-02  7.833091715921E-02  7.931739799192E-02  8.031628722597E-02
  8.132774093985E-02  8.235191717525E-02  8.338897596180E-02  8.443907934204E-02
  8.550239139676E-02  8.657907827064E-02  8.766930819818E-02  8.877325153003E-02
  8.989108075959E-02  9.102297054994E-02  9.216909776117E-02  9.332964147799E-02
  9.450478303770E-02  9.569470605858E-02  9.689959646852E-02  9.811964253409E-02
  9.935503488997E-02  1.006059665687E-01  1.018726330310E-01  1.031552321960E-01
  1.044539644724E-01  1.057690327898E-01  1.071006426304E-01  1.084490020607E-01
  1.098143217649E-01  1.111968150767E-01  1.125966980137E-01  1.140141893104E-01
  1.154495104527E-01  1.169028857124E-01  1.183745421824E-01  1.198647098119E-01
  1.213736214428E-01  1.229015128455E-01  1.244486227562E-01  1.260151929139E-01
  1.276014680985E-01  1.292076961685E-01  1.308341281005E-01  1.324810180278E-01
  1.341486232802E-01  1.358372044245E-01  1.375470253048E-01  1.392783530842E-01
  1.410314582863E-01  1.428066148371E-01  1.446041001086E-01  1.464241949615E-01
  1.482671837892E-01  1.501333545627E-01  1.520229988748E-01  1.539364119863E-01
  1.558738928718E-01  1.578357442669E-01  1.598222727146E-01  1.618337886141E-01
  1.638706062689E-01  1.659330439359E-01  1.680214238751E-01  1.701360724002E-01
  1.722773199293E-01  1.744455010366E-01  1.766409545050E-01  1.788640233784E-01
  1.811150550159E-01  1.833944011458E-01  1.857024179205E-01  1.880394659724E-01
  1.904059104699E-01  1.928021211749E-01  1.952284725001E-01  1.976853435679E-01
  2.001731182694E-01  2.026921853243E-01  2.052429383422E-01  2.078257758833E-01
  2.104411015212E-01  2.130893239059E-01  2.157708568276E-01  2.184861192811E-01
  2.212355355319E-01  2.240195351817E-01  2.268385532362E-01  2.296930301728E-01
  2.325834120091E-01  2.355101503733E-01  2.384737025742E-01  2.414745316728E-01
  2.445131065548E-01  2.475899020037E-01  2.507053987751E-01  2.538600836717E-01
  2.570544496193E-01  2.602889957443E-01  2.635642274509E-01  2.668806565008E-01
  2.702388010928E-01  2.736391859438E-01  2.770823423709E-01  2.805688083743E-01
  2.840991287213E-01  2.876738550317E-01  2.912935458639E-01  2.949587668017E-01
  2.986700905435E-01  3.024280969911E-01  3.062333733407E-01  3.100865141745E-01
  3.139881215535E-01  3.179388051119E-01  3.219391821519E-01  3.259898777408E-01
  3.300915248077E-01  3.342447642436E-01  3.384502450004E-01  3.427086241932E-01
  3.470205672022E-01  3.513867477774E-01  3.558078481435E-01  3.602845591062E-01
  3.648175801608E-01  3.694076196011E-01  3.740553946301E-01  3.787616314721E-01
  3.835270654861E-01  3.883524412809E-01  3.932385128313E-01  3.981860435960E-01
  4.031958066366E-01  4.082685847388E-01  4.134051705346E-01  4.186063666259E-01
  4.238729857102E-01  4.292058507074E-01  4.346057948886E-01  4.400736620059E-01
  4.456103064249E-01  4.512165932573E-01  4.568933984970E-01  4.626416091563E-01
  4.684621234049E-01  4.743558507098E-01  4.803237119781E-01  4.863666397001E-01
  4.924855780956E-01  4.986814832612E-01  5.049553233197E-01  5.113080785714E-01
  5.177407416471E-01  5.242543176636E-01  5.308498243804E-01  5.375282923588E-01
  5.442907651230E-01  5.511382993232E-01  5.580719649005E-01  5.650928452543E-01
  5.722020374114E-01  5.794006521975E-01  5.866898144109E-01  5.940706629979E-01
  6.015443512312E-01  6.091120468898E-01  6.167749324415E-01  6.245342052278E-01
  6.323910776508E-01  6.403467773628E-01  6.484025474582E-01  6.565596466673E-01
  6.648193495535E-01  6.731829467122E-01  6.816517449725E-01  6.902270676013E-01
  6.989102545102E-01  7.077026624649E-01  7.166056652970E-01  7.256206541188E-01
  7.347490375406E-01  7.439922418909E-01  7.533517114392E-01  7.628289086217E-01
  7.724253142697E-01  7.821424278410E-01  7.919817676546E-01  8.019448711272E-01
  8.120332950140E-01  8.222486156518E-01  8.325924292052E-01  8.430663519161E-01
  8.536720203563E-01  8.644110916831E-01  8.752852438981E-01  8.862961761098E-01
  8.974456087987E-01  9.087352840864E-01  9.201669660076E-01  9.317424407859E-01
  9.434635171128E-01  9.553320264302E-01  9.673498232170E-01  9.795187852782E-01
  9.918408140391E-01  1.004317834842E+00  1.016951797246E+00  1.029744675334E+00
  1.042698468019E+00  1.055815199357E+00  1.069096918865E+00  1.082545701838E+00
  1.096163649677E+00  1.109952890212E+00  1.123915578041E+00  1.138053894862E+00
  1.152370049816E+00  1.166866279832E+00  1.181544849974E+00  1.196408053800E+00
  1.211458213714E+00  1.226697681336E+00  1.242128837863E+00  1.257754094444E+00
  1.273575892558E+00  1.289596704393E+00  1.305819033233E+00  1.322245413851E+00
  1.338878412901E+00  1.355720629324E+00  1.372774694749E+00  1.390043273910E+00
  1.407529065058E+00  1.425234800382E+00  1.443163246439E+00  1.461317204587E+00
  1.479699511418E+00  1.498313039204E+00  1.517160696347E+00  1.536245427833E+00
  1.555570215688E+00  1.575138079451E+00  1.594952076641E+00  1.615015303233E+00
  1.635330894149E+00  1.655902023742E+00  1.676731906290E+00  1.697823796507E+00
  1.719180990043E+00  1.740806824003E+00  1.762704677468E+00  1.784877972021E+00
  1.807330172285E+00  1.830064786462E+00  1.853085366882E+00  1.876395510557E+00
  1.899998859744E+00  1.923899102516E+00  1.948099973333E+00  1.972605253631E+00
  1.997418772410E+00  2.022544406832E+00  2.047986082829E+00  2.073747775715E+00
  2.099833510806E+00  2.126247364053E+00  2.152993462672E+00  2.180075985796E+00
  2.207499165126E+00  2.235267285587E+00  2.263384686007E+00  2.291855759784E+00
  2.320684955584E+00  2.349876778026E+00  2.379435788392E+00  2.409366605337E+00
  2.439673905613E+00  2.470362424797E+00  2.501436958032E+00  2.532902360778E+00
  2.564763549567E+00  2.597025502776E+00  2.629693261399E+00  2.662771929842E+00
  2.696266676712E+00  2.730182735633E+00  2.764525406057E+00  2.799300054097E+00
  2.834512113362E+00  2.870167085809E+00  2.906270542598E+00  2.942828124969E+00
  2.979845545119E+00  3.017328587094E+00  3.055283107696E+00  3.093715037396E+00
  3.132630381261E+00  3.172035219894E+00  3.211935710379E+00  3.252338087251E+00
  3.293248663462E+00  3.334673831374E+00  3.376620063753E+00  3.419093914783E+00
  3.462102021090E+00  3.505651102778E+00  3.549747964480E+00  3.594399496420E+00
  3.639612675490E+00  3.685394566343E+00  3.731752322491E+00  3.778693187428E+00
  3.826224495760E+00  3.874353674350E+00  3.923088243482E+00  3.972435818029E+00
  4.022404108651E+00  4.073000922996E+00  4.124234166918E+00  4.176111845716E+00
  4.228642065383E+00  4.281833033872E+00  4.335693062380E+00  4.390230566648E+00
  4.445454068270E+00  4.501372196031E+00  4.557993687252E+00  4.615327389156E+00
  4.673382260252E+00  4.732167371731E+00  4.791691908885E+00  4.851965172546E+00
  4.912996580533E+00  4.974795669127E+00  5.037372094563E+00  5.100735634534E+00
  5.164896189721E+00  5.229863785343E+00  5.295648572719E+00  5.362260830854E+00
  5.429710968050E+00  5.498009523528E+00  5.567167169077E+00  5.637194710719E+00
  5.708103090400E+00  5.779903387699E+00  5.852606821557E+00  5.926224752036E+00
  6.000768682085E+00  6.076250259347E+00  6.152681277970E+00  6.230073680457E+00
  6.308439559528E+00  6.387791160012E+00  6.468140880756E+00  6.549501276570E+00
  6.631885060180E+00  6.715305104220E+00  6.799774443241E+00  6.885306275749E+00
  6.971913966268E+00  7.059611047426E+00  7.148411222068E+00  7.238328365405E+00
  7.329376527171E+00  7.421569933828E+00  7.514922990784E+00  7.609450284642E+00
  7.705166585485E+00  7.802086849180E+00  7.900226219716E+00  7.999600031567E+00
  8.100223812096E+00  8.202113283972E+00  8.305284367632E+00  8.409753183769E+00
  8.515536055847E+00  8.622649512655E+00  8.731110290889E+00  8.840935337765E+00
  8.952141813673E+00  9.064747094848E+00  9.178768776096E+00  9.294224673535E+00
  9.411132827386E+00  9.529511504785E+00  9.649379202641E+00  9.770754650526E+00
  9.893656813600E+00  1.001810489558E+01  1.014411834172E+01  1.027171684189E+01
  1.040092033361E+01  1.053174900520E+01  1.066422329888E+01  1.079836391405E+01
  1.093419181045E+01  1.107172821146E+01  1.121099460743E+01  1.135201275901E+01
  1.149480470057E+01  1.163939274365E+01  1.178579948043E+01  1.193404778725E+01
  1.208416082821E+01  1.223616205879E+01  1.239007522947E+01  1.254592438952E+01
  1.270373389067E+01  1.286352839099E+01  1.302533285868E+01  1.318917257603E+01
  1.335507314333E+01  1.352306048287E+01  1.369316084302E+01  1.386540080231E+01
  1.403980727358E+01  1.421640750820E+01  1.439522910031E+01  1.457629999115E+01
  1.475964847342E+01  1.494530319569E+01  1.513329316688E+01  1.532364776082E+01
  1.551639672079E+01  1.571157016422E+01  1.590919858734E+01  1.610931287001E+01
  1.631194428048E+01  1.651712448034E+01  1.672488552939E+01  1.693525989073E+01
  1.714828043578E+01  1.736398044944E+01  1.758239363526E+01  1.780355412076E+01
  1.802749646270E+01  1.825425565254E+01  1.848386712187E+01  1.871636674793E+01
  1.895179085927E+01  1.919017624139E+01  1.943156014249E+01  1.967598027928E+01
  1.992347484293E+01  2.017408250495E+01  2.042784242330E+01  2.068479424849E+01
  2.094497812976E+01  2.120843472137E+01  2.147520518895E+01  2.174533121594E+01
  2.201885501006E+01  2.229581930997E+01  2.257626739191E+01  2.286024307645E+01
  2.314779073538E+01  2.343895529861E+01  2.373378226118E+01  2.403231769041E+01
  2.433460823308E+01  2.464070112269E+01  2.495064418687E+01  2.526448585487E+01
  2.558227516508E+01  2.590406177273E+01  2.622989595764E+01  2.655982863204E+01
  2.689391134860E+01  2.723219630843E+01  2.757473636923E+01  2.792158505358E+01
  2.827279655730E+01  2.862842575790E+01  2.898852822317E+01  2.935316021985E+01
  2.972237872242E+01  3.009624142204E+01  3.047480673551E+01  3.085813381443E+01
  3.124628255444E+01  3.163931360456E+01  3.203728837670E+01  3.244026905523E+01
  3.284831860669E+01  3.326150078966E+01  3.367988016470E+01  3.410352210444E+01
  3.453249280378E+01  3.496685929028E+01  3.540668943457E+01  3.585205196103E+01
  3.630301645844E+01  3.675965339093E+01  3.722203410894E+01  3.769023086041E+01
  3.816431680203E+01  3.864436601070E+01  3.913045349507E+01  3.962265520730E+01
  4.012104805493E+01  4.062570991283E+01  4.113671963546E+01  4.165415706913E+01
  4.217810306447E+01  4.270863948913E+01  4.324584924050E+01  4.378981625869E+01
  4.434062553966E+01  4.489836314848E+01  4.546311623279E+01  4.603497303639E+01
  4.661402291309E+01  4.720035634061E+01  4.779406493472E+01  4.839524146362E+01
  4.900397986236E+01  4.962037524754E+01  5.024452393221E+01  5.087652344086E+01
  5.151647252470E+01  5.216447117709E+01  5.282062064912E+01  5.348502346548E+01
  5.415778344048E+01  5.483900569422E+01  5.552879666907E+01  5.622726414627E+01
  5.693451726278E+01  5.765066652835E+01  5.837582384275E+01  5.911010251329E+01
  5.985361727250E+01  6.060648429608E+01  6.136882122103E+01  6.214074716406E+01
  6.292238274014E+01  6.371385008145E+01  6.451527285635E+01  6.532677628879E+01
  6.614848717784E+01  6.698053391748E+01  6.782304651671E+01  6.867615661985E+01
  6.953999752707E+01  7.041470421529E+01  7.130041335920E+01  7.219726335265E+01
  7.310539433028E+01  7.402494818941E+01  7.495606861220E+01  7.589890108810E+01
  7.685359293661E+01  7.782029333028E+01  7.879915331800E+01  7.979032584864E+01
  8.079396579492E+01  8.181022997764E+01  8.283927719013E+01  8.388126822311E+01
  8.493636588981E+01  8.600473505138E+01  8.708654264267E+01  8.818195769833E+01
  8.929115137919E+01  9.041429699901E+01  9.155157005157E+01  9.270314823812E+01
  9.386921149509E+01  9.504994202222E+01  9.624552431108E+01  9.745614517382E+01
  9.868199377241E+01  9.992326164820E+01  1.011801427518E+02  1.024528334735E+02
  1.037415326737E+02  1.050464417144E+02  1.063677644902E+02  1.077057074605E+02
  1.090604796816E+02  1.104322928395E+02  1.118213612827E+02  1.132279020560E+02
  1.146521349342E+02  1.160942824567E+02  1.175545699619E+02  1.190332256227E+02

</grid-data>
</grid>
<semilocal-potentials set="spin_average">
<slps n="4" l="s" rc="1.99741877241" flavor="Troullier-Martins">
<radfunc>
<data>
 -4.244606942466E+00 -4.244612442515E+00 -4.244618011745E+00 -4.244613117231E+00
 -4.244617387194E+00 -4.244613384317E+00 -4.244616781550E+00 -4.244614749012E+00
 -4.244615266935E+00 -4.244615566903E+00 -4.244615136065E+00 -4.244615420099E+00
 -4.244615488150E+00 -4.244615449643E+00 -4.244615006860E+00 -4.244615363844E+00
 -4.244615440446E+00 -4.244615253824E+00 -4.244615423293E+00 -4.244615414328E+00
 -4.244615303643E+00 -4.244615196468E+00 -4.244615442962E+00 -4.244615353478E+00
 -4.244615231976E+00 -4.244615265249E+00 -4.244615419752E+00 -4.244615415330E+00
 -4.244615300532E+00 -4.244615286045E+00 -4.244615401269E+00 -4.244615373937E+00
 -4.244615321625E+00 -4.244615412332E+00 -4.244615204735E+00 -4.244615346401E+00
 -4.244615435359E+00 -4.244615376574E+00 -4.244615239445E+00 -4.244615370078E+00
 -4.244615340781E+00 -4.244615331404E+00 -4.244615449092E+00 -4.244615317176E+00
 -4.244615307431E+00 -4.244615340897E+00 -4.244615354272E+00 -4.244615210974E+00
 -4.244615400669E+00 -4.244615470007E+00 -4.244615323828E+00 -4.244615309472E+00
 -4.244615282056E+00 -4.244615387727E+00 -4.244615427063E+00 -4.244615270529E+00
 -4.244615317245E+00 -4.244615389797E+00 -4.244615312787E+00 -4.244615325474E+00
 -4.244615406126E+00 -4.244615386678E+00 -4.244615370143E+00 -4.244615274284E+00
 -4.244615284221E+00 -4.244615433929E+00 -4.244615315504E+00 -4.244615320046E+00
 -4.244615456414E+00 -4.244615330075E+00 -4.244615299946E+00 -4.244615323273E+00
 -4.244615347920E+00 -4.244615403905E+00 -4.244615341486E+00 -4.244615349903E+00
 -4.244615357745E+00 -4.244615376011E+00 -4.244615330925E+00 -4.244615349076E+00
 -4.244615395988E+00 -4.244615327611E+00 -4.244615358587E+00 -4.244615395467E+00
 -4.244615308107E+00 -4.244615390085E+00 -4.244615364529E+00 -4.244615305158E+00
 -4.244615408467E+00 -4.244615357257E+00 -4.244615372291E+00 -4.244615327172E+00
 -4.244615381872E+00 -4.244615409812E+00 -4.244615334209E+00 -4.244615370224E+00
 -4.244615364607E+00 -4.244615377964E+00 -4.244615378116E+00 -4.244615382221E+00
 -4.244615365294E+00 -4.244615376057E+00 -4.244615390582E+00 -4.244615376471E+00
 -4.244615365163E+00 -4.244615392219E+00 -4.244615393056E+00 -4.244615361397E+00
 -4.244615371010E+00 -4.244615393627E+00 -4.244615410031E+00 -4.244615375059E+00
 -4.244615389464E+00 -4.244615386637E+00 -4.244615383131E+00 -4.244615394358E+00
 -4.244615418523E+00 -4.244615391539E+00 -4.244615402586E+00 -4.244615410371E+00
 -4.244615387951E+00 -4.244615419249E+00 -4.244615413887E+00 -4.244615417470E+00
 -4.244615424931E+00 -4.244615424883E+00 -4.244615397848E+00 -4.244615409553E+00
 -4.244615445836E+00 -4.244615434114E+00 -4.244615417563E+00 -4.244615426278E+00
 -4.244615440724E+00 -4.244615449078E+00 -4.244615433943E+00 -4.244615442511E+00
 -4.244615447564E+00 -4.244615459587E+00 -4.244615457143E+00 -4.244615441339E+00
 -4.244615472179E+00 -4.244615470003E+00 -4.244615468425E+00 -4.244615481334E+00
 -4.244615467183E+00 -4.244615476804E+00 -4.244615490696E+00 -4.244615490133E+00
 -4.244615496098E+00 -4.244615503031E+00 -4.244615505632E+00 -4.244615500047E+00
 -4.244615516601E+00 -4.244615523842E+00 -4.244615523557E+00 -4.244615529009E+00
 -4.244615533329E+00 -4.244615545973E+00 -4.244615547282E+00 -4.244615548588E+00
 -4.244615562802E+00 -4.244615569785E+00 -4.244615567639E+00 -4.244615572977E+00
 -4.244615589426E+00 -4.244615601547E+00 -4.244615595709E+00 -4.244615609484E+00
 -4.244615622451E+00 -4.244615621694E+00 -4.244615625855E+00 -4.244615638531E+00
 -4.244615652572E+00 -4.244615659901E+00 -4.244615671007E+00 -4.244615672248E+00
 -4.244615683721E+00 -4.244615703166E+00 -4.244615701275E+00 -4.244615716381E+00
 -4.244615730674E+00 -4.244615731999E+00 -4.244615750782E+00 -4.244615758969E+00
 -4.244615772355E+00 -4.244615787873E+00 -4.244615793394E+00 -4.244615810076E+00
 -4.244615824621E+00 -4.244615836644E+00 -4.244615853504E+00 -4.244615861135E+00
 -4.244615877910E+00 -4.244615896263E+00 -4.244615909819E+00 -4.244615925783E+00
 -4.244615939541E+00 -4.244615956891E+00 -4.244615978416E+00 -4.244615990850E+00
 -4.244616009805E+00 -4.244616031560E+00 -4.244616045657E+00 -4.244616068338E+00
 -4.244616088269E+00 -4.244616107878E+00 -4.244616127963E+00 -4.244616152568E+00
 -4.244616173241E+00 -4.244616194273E+00 -4.244616218796E+00 -4.244616243261E+00
 -4.244616267851E+00 -4.244616292488E+00 -4.244616318260E+00 -4.244616344701E+00
 -4.244616373810E+00 -4.244616399882E+00 -4.244616428110E+00 -4.244616460940E+00
 -4.244616490277E+00 -4.244616518908E+00 -4.244616551168E+00 -4.244616586601E+00
 -4.244616618524E+00 -4.244616652026E+00 -4.244616688561E+00 -4.244616724519E+00
 -4.244616761316E+00 -4.244616798898E+00 -4.244616839248E+00 -4.244616880057E+00
 -4.244616920537E+00 -4.244616961709E+00 -4.244617005700E+00 -4.244617052806E+00
 -4.244617095961E+00 -4.244617142294E+00 -4.244617192801E+00 -4.244617240477E+00
 -4.244617291079E+00 -4.244617342873E+00 -4.244617396899E+00 -4.244617452207E+00
 -4.244617507397E+00 -4.244617564917E+00 -4.244617624407E+00 -4.244617685318E+00
 -4.244617747714E+00 -4.244617810302E+00 -4.244617876067E+00 -4.244617944171E+00
 -4.244618012027E+00 -4.244618083421E+00 -4.244618155700E+00 -4.244618229526E+00
 -4.244618306668E+00 -4.244618384138E+00 -4.244618464628E+00 -4.244618547546E+00
 -4.244618631321E+00 -4.244618718504E+00 -4.244618807593E+00 -4.244618898355E+00
 -4.244618991980E+00 -4.244619088220E+00 -4.244619186850E+00 -4.244619287429E+00